G2DPncore-PETIM in water
54319
    1aaa     N1    1   6.298   6.678   7.026  0.8361  0.3300 -0.3384
    1aaa     C1    2   6.312   6.544   7.105  0.8425 -0.2848 -0.2570
    1aaa     H1    3   6.233   6.537   7.180  0.0449 -1.4799 -1.1612
    1aaa     H2    4   6.293   6.455   7.043 -1.7323  0.2600 -0.3817
    1aaa     C2    5   6.273   6.632   6.878  0.0356  0.5260 -0.0465
    1aaa     H3    6   6.319   6.535   6.857 -3.2640 -1.0551 -0.6380
    1aaa     H4    7   6.166   6.611   6.873 -0.0121 -0.2358  2.7154
    1aaa     C3    8   6.168   6.754   7.081  0.3576 -0.5763 -0.1061
    1aaa     H5    9   6.146   6.832   7.008  0.1972  0.0551  0.5966
    1aaa     H6   10   6.083   6.686   7.090  0.4617 -0.6478  0.4005
    1aaa     C4   11   6.172   6.819   7.227  0.4558  0.4833  0.6207
    1aaa     H7   12   6.082   6.881   7.236  0.2841  0.3516 -0.0902
    1aaa     H8   13   6.164   6.726   7.284  1.3050 -0.3548 -0.5910
    1aaa     C5   14   6.452   6.531   7.179 -0.6801  0.2185  0.0896
    1aaa     H9   15   6.534   6.516   7.108 -0.1172 -1.2468  1.0058
    1aaa    H10   16   6.470   6.628   7.227  2.9223 -0.7660  1.0551
    1aaa     C6   17   6.313   6.737   6.769 -0.5331 -0.0917 -0.2526
    1aaa    H11   18   6.246   6.824   6.767 -0.1925  0.1917  0.3213
    1aaa    H12   19   6.415   6.772   6.786  0.1243 -2.5649  1.3917
    1aaa     C7   20   6.302   6.659   6.626  0.3732 -0.5433 -0.5298
    1aaa    H13   21   6.385   6.587   6.627  0.7767 -0.0935  0.6922
    1aaa    H14   22   6.209   6.601   6.627  0.0270 -0.0398  1.9279
    1aaa     C8   23   6.301   6.896   7.266 -0.6399 -0.8250  0.2112
    1aaa    H15   24   6.383   6.835   7.304  1.5988  1.6672 -0.3396
    1aaa    H16   25   6.335   6.941   7.171 -1.2274  1.9833  1.2203
    1aaa     C9   26   6.456   6.427   7.284  0.9702  0.3977  0.3837
    1aaa    H17   27   6.529   6.455   7.361  1.0217 -0.0363  0.4956
    1aaa    H18   28   6.356   6.418   7.328  0.5055  1.8162 -0.3463
    1aaa    H19   29   6.381   6.737   7.042 -0.1883  1.5589  0.7824
    2bbb     N1   30   6.487   7.019   6.174  0.3918  0.3075  1.0313
    2bbb     C1   31   6.635   7.041   6.174 -0.0084  0.4841 -0.1269
    2bbb     H1   32   6.667   7.087   6.080  0.3623 -3.6234 -2.2538
    2bbb     H2   33   6.685   6.945   6.162 -0.1559  0.6984 -3.5703
    2bbb     C2   34   6.449   6.998   6.029  0.7844 -0.3121  0.2815
    2bbb     H3   35   6.347   6.960   6.026  0.9135 -0.6081 -0.3637
    2bbb     H4   36   6.507   6.912   5.995  1.1644 -0.0514  0.2534
    2bbb     C3   37   6.458   6.896   6.259 -0.6315  0.3802  0.1421
    2bbb     H5   38   6.478   6.931   6.360  0.7558  0.5871 -0.1932
    2bbb     H6   39   6.538   6.828   6.230  0.7857  1.1876  1.9587
    2bbb     C4   40   6.319   6.829   6.269 -0.6840 -0.3395  0.2907
    2bbb     H7   41   6.283   6.794   6.171 -0.1241  1.2321 -0.5183
    2bbb     H8   42   6.245   6.907   6.294  0.6980  1.0250  0.3038
    2bbb     C5   43   6.707   7.094   6.302 -0.2017  0.3075  0.8115
    2bbb     H9   44   6.815   7.088   6.291 -0.1045 -0.5064  1.9893
    2bbb    H10   45   6.681   7.037   6.393  0.8582  1.5334  1.9297
    2bbb     C6   46   6.461   7.108   5.930 -0.8944  0.3624  0.0795
    2bbb    H11   47   6.562   7.152   5.933 -1.5146  2.1676 -2.0775
    2bbb    H12   48   6.396   7.191   5.960 -3.2703 -1.7136  0.9483
    2bbb     C7   49   6.308   6.714   6.374  0.9596 -0.2305 -0.3973
    2bbb    H13   50   6.391   6.643   6.361  2.2940 -0.0391  4.8931
    2bbb    H14   51   6.217   6.658   6.348  2.0683 -2.0628 -0.5117
    2bbb     C8   52   6.437   7.069   5.782 -0.2835  0.1718  0.0269
    2bbb    H15   53   6.461   7.159   5.724 -1.1795  1.2528  1.2694
    2bbb    H16   54   6.513   6.991   5.766 -2.5817 -2.7528  2.2825
    2bbb     C9   55   6.661   7.240   6.334 -0.3309  0.2441  0.1157
    2bbb    H17   56   6.711   7.292   6.417 -0.2157 -2.5741  1.9423
    2bbb    H18   57   6.554   7.235   6.360  0.3744 -2.0409  3.0778
    2bbb     O1   58   6.301   6.754   6.514 -0.2834  0.7230 -0.3125
    2bbb    H19   59   6.444   7.106   6.207 -0.0056  0.7836 -0.6082
    3bbb     N1   60   6.060   7.223   7.481  0.5317  0.1075  0.3673
    3bbb     C1   61   6.033   7.236   7.632 -0.6285 -0.2900  0.0095
    3bbb     H1   62   6.120   7.187   7.678  0.7321 -0.3364 -2.4282
    3bbb     H2   63   5.945   7.176   7.653 -1.8509 -0.2316 -3.9936
    3bbb     C2   64   5.940   7.286   7.398 -0.1287  0.4651 -0.1004
    3bbb     H3   65   5.975   7.337   7.308  0.5600 -0.3895 -0.3319
    3bbb     H4   66   5.904   7.369   7.459 -1.1962  1.1556 -1.6110
    3bbb     C3   67   6.196   7.284   7.441 -0.2937 -0.3030 -0.1269
    3bbb     H5   68   6.201   7.386   7.480  1.8201  0.8290 -2.9805
    3bbb     H6   69   6.205   7.286   7.332  1.7978 -0.6859  0.0034
    3bbb     C4   70   6.328   7.205   7.486  0.5565  0.7403  0.0511
    3bbb     H7   71   6.313   7.147   7.578  2.9290 -2.2080 -1.2197
    3bbb     H8   72   6.403   7.284   7.485  2.0710 -0.6397 -0.1678
    3bbb     C5   73   6.035   7.377   7.706 -0.0870  0.0049  0.0463
    3bbb     H9   74   5.932   7.412   7.713  0.1696  0.5745  1.2433
    3bbb    H10   75   6.095   7.453   7.653  2.6113  0.7032  3.6989
    3bbb     C6   76   5.813   7.194   7.372 -0.3848  0.0304  0.2832
    3bbb    H11   77   5.760   7.173   7.465 -0.4281  1.4293  0.5850
    3bbb    H12   78   5.828   7.093   7.329 -2.6325 -0.1097 -0.2870
    3bbb     C7   79   6.378   7.091   7.394  0.0098 -0.2707  0.4802
    3bbb    H13   80   6.467   7.046   7.439  2.4695  3.4846 -0.1355
    3bbb    H14   81   6.411   7.136   7.300 -0.0072 -0.3302  0.4464
    3bbb     C8   82   5.710   7.261   7.286  0.5418 -0.2935 -0.1077
    3bbb    H15   83   5.752   7.282   7.187 -0.2891  1.7408 -0.0933
    3bbb    H16   84   5.624   7.196   7.268  0.4495 -0.2638  0.2146
    3bbb     C9   85   6.095   7.361   7.843 -0.3391 -0.4937 -0.3316
    3bbb    H17   86   6.046   7.275   7.891  2.5677 -1.1092  1.7663
    3bbb    H18   87   6.080   7.452   7.902 -0.7362 -1.3389  0.9033
    3bbb     O1   88   6.275   7.003   7.363 -0.1323  0.4095  0.1416
    3bbb    H19   89   6.069   7.121   7.467  1.5427  0.0813  1.1081
    4bbb     N1   90   6.570   5.853   7.122 -0.0885 -0.3874  0.0357
    4bbb     C1   91   6.707   5.827   7.073 -0.0645 -0.0020 -0.4503
    4bbb     H1   92   6.718   5.725   7.037  1.8012 -0.0854  0.2302
    4bbb     H2   93   6.769   5.842   7.162 -0.2492  1.0076 -0.4858
    4bbb     C2   94   6.525   5.743   7.223  0.4259 -0.4434  0.3624
    4bbb     H3   95   6.474   5.804   7.297 -0.5542  3.1264 -2.9540
    4bbb     H4   96   6.609   5.700   7.279 -0.6381 -0.5391  1.9354
    4bbb     C3   97   6.576   5.993   7.192 -0.5060  0.0238 -0.1326
    4bbb     H5   98   6.616   6.065   7.121  1.2972  0.6306  1.4258
    4bbb     H6   99   6.653   5.987   7.269  0.4065  0.4512 -0.9979
    4bbb     C4  100   6.450   6.048   7.259  0.1200  0.2177 -0.1930
    4bbb     H7  101   6.418   5.977   7.335 -0.3517  0.4998 -0.1198
    4bbb     H8  102   6.358   6.038   7.200 -1.5395 -0.1005  2.3128
    4bbb     C5  103   6.747   5.914   6.953  0.2899 -0.5459  0.0461
    4bbb     H9  104   6.705   6.014   6.949 -0.4813 -0.9005 -1.0703
    4bbb    H10  105   6.705   5.858   6.869  1.9213 -2.4537  0.4172
    4bbb     C6  106   6.438   5.623   7.171 -0.4807  0.2821  0.3494
    4bbb    H11  107   6.496   5.569   7.095  0.3484 -0.0814  1.2233
    4bbb    H12  108   6.352   5.676   7.129  0.6926  1.0722 -1.1725
    4bbb     C7  109   6.475   6.192   7.323  0.2371  0.9602  0.6364
    4bbb    H13  110   6.561   6.172   7.388  0.6976 -1.8773 -0.6852
    4bbb    H14  111   6.384   6.211   7.382 -0.5672 -0.3598 -0.1315
    4bbb     C8  112   6.411   5.527   7.284 -0.2331  0.0426 -0.2610
    4bbb    H15  113   6.364   5.436   7.243 -1.7492 -0.0135  1.4570
    4bbb    H16  114   6.502   5.489   7.332 -0.4962  1.0540  1.0929
    4bbb     C9  115   6.904   5.923   6.941  0.2660 -0.6448 -0.5009
    4bbb    H17  116   6.948   5.999   7.008 -0.2530  0.2256 -1.1177
    4bbb    H18  117   6.933   5.962   6.843  0.9326  1.4216  0.4457
    4bbb     O1  118   6.498   6.294   7.225  0.4330  0.4039  0.1083
    4bbb    H19  119   6.508   5.871   7.041  2.0440  0.3017 -1.5491
    5bbb     N1  120   6.537   6.788   5.406 -0.3566 -1.0775  0.8858
    5bbb     C1  121   6.634   6.852   5.298 -0.1332  0.1106 -0.1706
    5bbb     H1  122   6.714   6.894   5.360 -1.0206  2.7190 -0.6322
    5bbb     H2  123   6.574   6.930   5.251  1.1131  0.9298 -0.4647
    5bbb     C2  124   6.613   6.683   5.478 -0.1700  0.3216  0.1563
    5bbb     H3  125   6.632   6.716   5.580  0.0308  0.7711 -0.0221
    5bbb     H4  126   6.712   6.673   5.433  0.4553 -0.0728  1.5514
    5bbb     C3  127   6.493   6.895   5.501 -0.8749 -0.5897  0.4960
    5bbb     H5  128   6.469   6.982   5.440 -1.3250 -0.3752  0.9709
    5bbb     H6  129   6.576   6.916   5.568  0.3341  0.3794 -1.2156
    5bbb     C4  130   6.379   6.854   5.594  0.1350  0.1474  0.3508
    5bbb     H7  131   6.420   6.813   5.687  1.7407 -0.7577 -0.7197
    5bbb     H8  132   6.322   6.772   5.549  1.9119 -0.4270 -0.9670
    5bbb     C5  133   6.687   6.762   5.185 -0.0156  0.4212  0.2583
    5bbb     H9  134   6.717   6.670   5.237 -1.2320  0.7988  1.7040
    5bbb    H10  135   6.776   6.807   5.139  0.3871  2.5738  2.8604
    5bbb     C6  136   6.566   6.531   5.479  0.5396 -0.7956 -0.3621
    5bbb    H11  137   6.591   6.477   5.387  1.4381  0.5485 -0.9382
    5bbb    H12  138   6.457   6.533   5.486  0.3606  4.1115 -1.0108
    5bbb     C7  139   6.278   6.973   5.624 -0.0802  0.6172 -0.8216
    5bbb    H13  140   6.174   6.942   5.631 -0.2133  0.5605 -2.5301
    5bbb    H14  141   6.275   7.042   5.538 -3.0879  1.8357  0.1544
    5bbb     C8  142   6.627   6.472   5.612 -0.1480  0.2593  0.6158
    5bbb    H15  143   6.613   6.543   5.694 -0.9946  1.3540 -0.4209
    5bbb    H16  144   6.566   6.393   5.656  0.4427  0.1264  1.1969
    5bbb     C9  145   6.588   6.731   5.075  0.6717  0.4158 -0.6658
    5bbb    H17  146   6.516   6.680   5.140 -0.1007  1.8761 -0.3295
    5bbb    H18  147   6.635   6.661   5.005 -2.1988  0.5626 -2.9094
    5bbb     O1  148   6.302   7.029   5.759 -0.4231 -0.2945  0.2514
    5bbb    H19  149   6.457   6.741   5.362  1.1239 -2.0029 -0.9495
    6bbb     N1  150   6.563   7.525   5.857 -0.7681 -0.2693 -0.0604
    6bbb     C1  151   6.702   7.525   5.786  1.0825  0.1780 -0.1573
    6bbb     H1  152   6.688   7.515   5.678  3.1554 -1.0790 -0.3677
    6bbb     H2  153   6.753   7.440   5.833 -0.5777  0.0655  1.5522
    6bbb     C2  154   6.467   7.459   5.770 -0.1594  0.3751 -0.2216
    6bbb     H3  155   6.491   7.353   5.761 -2.7962 -0.2632 -0.5984
    6bbb     H4  156   6.473   7.494   5.666 -2.8620 -0.2518 -0.6807
    6bbb     C3  157   6.582   7.445   5.985 -0.0117 -0.2442  0.1245
    6bbb     H5  158   6.650   7.363   5.963 -0.2331 -0.4730  0.2754
    6bbb     H6  159   6.485   7.399   6.007 -0.2124  1.1916  2.6827
    6bbb     C4  160   6.632   7.534   6.105 -0.5752 -0.4551  0.0946
    6bbb     H7  161   6.551   7.606   6.125 -1.6820 -1.4566 -0.6422
    6bbb     H8  162   6.717   7.599   6.084 -0.8761 -0.1549 -0.2097
    6bbb     C5  163   6.791   7.653   5.805  0.2636 -0.5980 -0.2226
    6bbb     H9  164   6.760   7.702   5.898  1.3345 -4.3119  2.3549
    6bbb    H10  165   6.778   7.724   5.723 -1.2704 -1.0544 -0.4165
    6bbb     C6  166   6.321   7.467   5.815  0.0225  0.2641  0.7192
    6bbb    H11  167   6.292   7.573   5.817  1.0961  0.6791 -1.5441
    6bbb    H12  168   6.315   7.418   5.913  1.2142  2.5570  2.0146
    6bbb     C7  169   6.646   7.463   6.243  0.1043  0.4350  0.5828
    6bbb    H13  170   6.545   7.461   6.284  0.0971 -0.0453  0.5562
    6bbb    H14  171   6.711   7.519   6.312  0.4421 -1.2095  1.6674
    6bbb     C8  172   6.225   7.404   5.712  0.3273  0.0535 -0.4229
    6bbb    H15  173   6.231   7.460   5.618 -0.8728 -0.7253 -0.9851
    6bbb    H16  174   6.246   7.298   5.690  0.9914 -0.0705  0.7052
    6bbb     C9  175   6.944   7.616   5.813 -0.0204 -0.1791 -0.2893
    6bbb    H17  176   6.983   7.572   5.720  2.4402 -1.4325  1.2171
    6bbb    H18  177   6.951   7.538   5.891  1.0124 -0.3220 -0.5083
    6bbb     O1  178   6.704   7.331   6.230 -0.1669 -0.5440  0.4345
    6bbb    H19  179   6.547   7.625   5.876  0.4252 -0.2073  0.7888
    7bbb     N1  180   5.696   7.679   7.316 -0.5034  0.2088 -0.3978
    7bbb     C1  181   5.780   7.761   7.218  0.5613  0.6137  0.9071
    7bbb     H1  182   5.878   7.771   7.264  0.2859 -2.2093  2.3465
    7bbb     H2  183   5.738   7.861   7.209 -1.0025 -0.0400  0.7175
    7bbb     C2  184   5.683   7.735   7.460  0.4930  0.4820 -0.8378
    7bbb     H3  185   5.579   7.736   7.491  0.3070  2.8093 -1.3312
    7bbb     H4  186   5.708   7.841   7.456  1.5780  0.2351 -0.9290
    7bbb     C3  187   5.550   7.670   7.272  0.0015  0.0676 -0.5513
    7bbb     H5  188   5.544   7.647   7.166  0.7808 -2.9202 -0.0628
    7bbb     H6  189   5.500   7.765   7.290 -2.1823 -0.9472 -0.9159
    7bbb     C4  190   5.473   7.548   7.337  0.1446 -0.9139  0.5911
    7bbb     H7  191   5.365   7.568   7.330  0.4341  0.8108  0.6953
    7bbb     H8  192   5.488   7.557   7.445  1.2811 -0.0238  0.3794
    7bbb     C5  193   5.788   7.701   7.079 -0.2286 -0.0942 -0.1694
    7bbb     H9  194   5.829   7.778   7.012  2.7492  0.0959  1.6606
    7bbb    H10  195   5.687   7.674   7.047 -1.1207 -0.3854  2.6818
    7bbb     C6  196   5.770   7.681   7.573  0.0710  0.5088  0.3110
    7bbb    H11  197   5.810   7.765   7.631  1.1582 -1.1853  2.1467
    7bbb    H12  198   5.861   7.636   7.532 -0.6254 -0.4004 -0.2754
    7bbb     C7  199   5.521   7.414   7.284  0.3287  0.4454 -0.4390
    7bbb    H13  200   5.513   7.424   7.175 -0.5350  0.3045 -0.3953
    7bbb    H14  201   5.453   7.334   7.316 -0.0128  1.0484  0.3737
    7bbb     C8  202   5.699   7.589   7.671 -0.0067  0.4080  0.1826
    7bbb    H15  203   5.669   7.495   7.624 -2.9571  0.6684  1.3427
    7bbb    H16  204   5.761   7.563   7.758 -2.0785  0.5618  1.8084
    7bbb     C9  205   5.885   7.584   7.067 -0.5162 -0.6540  1.3818
    7bbb    H17  206   5.874   7.548   6.964 -2.9450 -0.2515  1.4304
    7bbb    H18  207   5.853   7.503   7.134 -0.7537 -0.0403  2.0193
    7bbb     O1  208   5.660   7.388   7.337 -0.2534  0.0697  0.1401
    7bbb    H19  209   5.740   7.586   7.314 -0.3434  0.2860 -0.5303
    8bbb     N1  210   6.471   7.517   8.229  0.3168  0.2011  0.2006
    8bbb     C1  211   6.448   7.474   8.375  0.3643 -0.0609 -0.0957
    8bbb     H1  212   6.352   7.422   8.385  0.4820 -0.1365  0.6570
    8bbb     H2  213   6.443   7.566   8.433  1.3325  1.6896 -2.5996
    8bbb     C2  214   6.611   7.587   8.210  0.2431 -1.0175  0.4693
    8bbb     H3  215   6.645   7.624   8.307  0.1444 -2.2375  0.9859
    8bbb     H4  216   6.585   7.676   8.152 -1.0574 -1.0690  0.9536
    8bbb     C3  217   6.441   7.400   8.135 -0.0103  0.1217  0.4267
    8bbb     H5  218   6.384   7.331   8.198  1.7848 -1.2550  0.5963
    8bbb     H6  219   6.533   7.357   8.096 -0.7050 -0.3238 -0.7849
    8bbb     C4  220   6.358   7.431   8.012  0.1894 -0.2431  0.1053
    8bbb     H7  221   6.399   7.510   7.949 -1.3860 -1.0421 -2.0124
    8bbb     H8  222   6.262   7.475   8.042 -0.0485  0.1393 -1.1616
    8bbb     C5  223   6.557   7.379   8.428  0.3350  0.6567 -0.2255
    8bbb     H9  224   6.656   7.426   8.432  0.4474  0.3686  0.7025
    8bbb    H10  225   6.561   7.287   8.368  1.0104 -0.8646  1.9961
    8bbb     C6  226   6.716   7.512   8.135 -0.0714 -1.0866 -0.4002
    8bbb    H11  227   6.680   7.486   8.035 -1.5297 -0.3216 -0.1002
    8bbb    H12  228   6.743   7.418   8.185  0.5772 -0.1573  1.1066
    8bbb     C7  229   6.321   7.305   7.930 -0.6239  0.5167  0.3475
    8bbb    H13  230   6.286   7.226   7.998  0.9429  1.3036  2.1628
    8bbb    H14  231   6.415   7.264   7.890 -0.5400  0.7878  0.2708
    8bbb     C8  232   6.852   7.586   8.126  0.2866 -0.3615 -0.3173
    8bbb    H15  233   6.930   7.514   8.097 -0.2528 -2.1537  2.2301
    8bbb    H16  234   6.839   7.664   8.051  1.0774  2.0374  1.8917
    8bbb     C9  235   6.523   7.338   8.571  0.8144  0.2728  0.8141
    8bbb    H17  236   6.578   7.245   8.589 -0.9964 -1.5072 -2.0278
    8bbb    H18  237   6.416   7.316   8.581  0.5683  1.9146  2.3511
    8bbb     O1  238   6.230   7.333   7.823 -0.1061 -0.4937 -0.7475
    8bbb    H19  239   6.403   7.593   8.213  1.1126  1.0595  0.8111
    9bbb     N1  240   5.925   5.708   7.537  0.5717  0.1887  0.5743
    9bbb     C1  241   5.925   5.757   7.684  0.7339  0.7034  0.3960
    9bbb     H1  242   5.847   5.833   7.682  0.1176  0.0862  0.3897
    9bbb     H2  243   6.018   5.810   7.702  0.4858  0.0515  4.5810
    9bbb     C2  244   5.866   5.823   7.457 -0.0301 -0.2289  0.5495
    9bbb     H3  245   5.945   5.898   7.447  2.3159 -2.4524  1.3625
    9bbb     H4  246   5.793   5.868   7.524  0.0556  1.2043 -0.2842
    9bbb     C3  247   6.069   5.692   7.481 -0.9527  0.4336  0.1742
    9bbb     H5  248   6.124   5.786   7.487 -1.8624  0.9726  0.1914
    9bbb     H6  249   6.049   5.666   7.377 -0.2010 -0.9904  0.3592
    9bbb     C4  250   6.154   5.578   7.552  0.0309 -0.1205  0.3139
    9bbb     H7  251   6.087   5.494   7.571  2.0971 -2.4479 -1.8249
    9bbb     H8  252   6.185   5.613   7.651 -0.7520 -0.6837  0.7653
    9bbb     C5  253   5.894   5.636   7.780  0.1236 -0.4067  0.2642
    9bbb     H9  254   5.963   5.552   7.768 -1.0700 -1.3232 -0.4481
    9bbb    H10  255   5.800   5.584   7.758 -0.5287  0.6356  0.4976
    9bbb     C6  256   5.782   5.791   7.329  0.4740 -0.4549 -0.6098
    9bbb    H11  257   5.851   5.818   7.247 -0.0685  1.5112 -0.4750
    9bbb    H12  258   5.694   5.857   7.330  0.0791 -0.8370  3.3056
    9bbb     C7  259   6.263   5.508   7.462 -0.9620 -0.3921 -0.1507
    9bbb    H13  260   6.200   5.435   7.411 -1.1389 -0.5137  0.2375
    9bbb    H14  261   6.335   5.461   7.530 -0.4289 -2.2481 -1.9126
    9bbb     C8  262   5.742   5.639   7.322 -0.4205 -0.2703  0.4276
    9bbb    H15  263   5.655   5.641   7.256 -1.1821  1.4067  1.4042
    9bbb    H16  264   5.834   5.590   7.287  0.3486  2.1783 -1.2168
    9bbb     C9  265   5.893   5.677   7.931 -0.3073  0.2663  0.4408
    9bbb    H17  266   5.872   5.783   7.945 -1.7398  0.0736 -0.1878
    9bbb    H18  267   5.991   5.650   7.973 -0.7874  0.0724  1.4773
    9bbb     O1  268   6.324   5.598   7.371 -0.4323  0.0910  0.0722
    9bbb    H19  269   5.868   5.624   7.520  3.3375 -1.1499 -4.3177
   10bbb     N1  270   6.935   5.527   6.922  0.2460 -0.1389  0.4563
   10bbb     C1  271   6.841   5.447   6.835  0.3494 -0.0927 -0.5357
   10bbb     H1  272   6.748   5.456   6.892  1.2283  0.1158  0.9135
   10bbb     H2  273   6.864   5.341   6.839  0.4321 -0.0686 -0.3895
   10bbb     C2  274   6.936   5.450   7.053 -0.0964  0.5347 -0.7930
   10bbb     H3  275   7.025   5.482   7.108  0.9943 -0.0506 -2.1685
   10bbb     H4  276   6.935   5.342   7.041 -2.4372  0.4021  0.0053
   10bbb     C3  277   7.076   5.528   6.866  0.2227 -0.0139 -0.2027
   10bbb     H5  278   7.076   5.533   6.758 -0.2598  1.1577 -0.1605
   10bbb     H6  279   7.123   5.433   6.894 -1.0980 -0.2870  1.2332
   10bbb     C4  280   7.158   5.644   6.930 -0.4805  0.2080  0.1978
   10bbb     H7  281   7.262   5.635   6.898 -0.4677 -0.1033  0.3233
   10bbb     H8  282   7.163   5.633   7.039 -2.0186 -1.6929  0.1278
   10bbb     C5  283   6.818   5.491   6.691 -0.0043 -0.3287 -0.4627
   10bbb     H9  284   6.920   5.487   6.652  0.3926 -1.6640  0.6293
   10bbb    H10  285   6.779   5.593   6.682 -2.8373 -1.2658  0.0569
   10bbb     C6  286   6.820   5.483   7.145  0.0451  0.1846 -0.1379
   10bbb    H11  287   6.726   5.447   7.102 -0.4828 -1.1251  1.9598
   10bbb    H12  288   6.800   5.589   7.161  0.5310  0.0463  1.5565
   10bbb     C7  289   7.106   5.787   6.902 -0.5050  0.1030  0.8713
   10bbb    H13  290   7.094   5.799   6.794  0.4578 -0.9649  0.6231
   10bbb    H14  291   7.166   5.870   6.940 -1.1996 -0.0337  2.3518
   10bbb     C8  292   6.855   5.420   7.283  0.0565 -0.0860  0.5218
   10bbb    H15  293   6.766   5.426   7.347 -0.0379  1.2891  0.3113
   10bbb    H16  294   6.883   5.314   7.286  0.9408  0.1590  1.9438
   10bbb     C9  295   6.736   5.401   6.603  0.2229  0.0168  0.0387
   10bbb    H17  296   6.748   5.303   6.651  0.4109  0.4885  0.9779
   10bbb    H18  297   6.765   5.411   6.497  0.2292 -0.5941 -0.0207
   10bbb     O1  298   6.967   5.798   6.963  0.3522 -0.0273  0.0156
   10bbb    H19  299   6.897   5.622   6.936  0.1530 -0.2008  0.6341
   11bbb     N1  300   7.108   6.141   5.475  0.1504  0.1503 -0.9899
   11bbb     C1  301   7.143   6.055   5.597  0.1352 -0.5098  0.0258
   11bbb     H1  302   7.060   5.993   5.631 -0.4820  1.7768  3.0999
   11bbb     H2  303   7.164   6.122   5.681  0.8044 -1.6226  0.7695
   11bbb     C2  304   7.083   6.045   5.365  0.0870  0.0951 -0.2710
   11bbb     H3  305   7.012   5.971   5.404  0.9664  0.3087  1.8666
   11bbb     H4  306   7.173   5.989   5.343  0.6516  1.0098 -0.3509
   11bbb     C3  307   6.980   6.225   5.506 -0.2762  1.0846 -0.2898
   11bbb     H5  308   6.903   6.151   5.527  1.0160 -0.8800 -2.1015
   11bbb     H6  309   6.945   6.288   5.424  0.4379  0.8852 -0.7538
   11bbb     C4  310   6.971   6.317   5.632 -0.2496 -0.2065 -0.2973
   11bbb     H7  311   7.025   6.407   5.601  0.2636 -0.2805  0.3656
   11bbb     H8  312   7.034   6.271   5.709 -0.7512  0.2070  0.3825
   11bbb     C5  313   7.269   5.968   5.594  0.1680 -0.1661 -0.3452
   11bbb     H9  314   7.254   5.874   5.540 -0.7287 -0.0016 -0.3973
   11bbb    H10  315   7.304   5.936   5.693  2.8149  1.8597 -0.5409
   11bbb     C6  316   7.035   6.115   5.233 -0.4469  0.9210  0.2364
   11bbb    H11  317   7.115   6.157   5.170 -0.9746  0.7798 -0.5527
   11bbb    H12  318   6.960   6.188   5.264  0.1357  1.1307  1.1661
   11bbb     C7  319   6.836   6.367   5.682 -0.3261 -0.1819  0.2585
   11bbb    H13  320   6.858   6.443   5.758 -0.3065 -0.9817  1.0653
   11bbb    H14  321   6.775   6.286   5.723 -2.0139  0.2987 -1.2072
   11bbb     C8  322   6.972   6.008   5.149  0.4099 -0.2048  0.2622
   11bbb    H15  323   6.937   6.067   5.063  2.0201  1.3034  0.5766
   11bbb    H16  324   7.042   5.929   5.121  0.3243 -0.8406  1.7465
   11bbb     C9  325   7.391   6.032   5.536 -0.2514  0.3920  0.2883
   11bbb    H17  326   7.483   5.981   5.567  1.3439  0.3300 -3.9645
   11bbb    H18  327   7.412   6.124   5.593 -0.4938 -0.8482  2.5126
   11bbb     O1  328   6.760   6.432   5.574  0.0065 -0.6600  0.5110
   11bbb    H19  329   7.185   6.206   5.451 -0.5686  1.8913  1.1033
   12bbb     N1  330   6.611   6.809   4.587  0.1619 -0.1071  0.0403
   12bbb     C1  331   6.694   6.915   4.520  0.1335  0.2417  0.0747
   12bbb     H1  332   6.749   6.968   4.598 -0.9981  1.7693 -0.1078
   12bbb     H2  333   6.628   6.990   4.476 -1.1606 -0.4856  0.7170
   12bbb     C2  334   6.676   6.678   4.625 -0.0275  0.2393 -0.2872
   12bbb     H3  335   6.708   6.626   4.535 -3.5069 -0.1595 -1.4386
   12bbb     H4  336   6.597   6.615   4.666 -0.0286  1.0827  1.0841
   12bbb     C3  337   6.546   6.876   4.706 -0.2173  0.6773 -0.0861
   12bbb     H5  338   6.505   6.973   4.680 -1.2183  0.2132 -0.2984
   12bbb     H6  339   6.630   6.894   4.773 -0.5632 -0.7160  0.7938
   12bbb     C4  340   6.452   6.790   4.797  0.1100  0.1592  0.0088
   12bbb     H7  341   6.493   6.690   4.817 -0.6463 -0.3349 -0.8262
   12bbb     H8  342   6.357   6.775   4.744 -0.5058 -1.5157  1.4899
   12bbb     C5  343   6.789   6.871   4.411  0.5558  0.5074 -0.3658
   12bbb     H9  344   6.726   6.824   4.334  0.2323  0.1990  0.0862
   12bbb    H10  345   6.858   6.793   4.445 -0.0676  0.7214  1.4982
   12bbb     C6  346   6.804   6.687   4.714  0.6769  0.9353 -0.2333
   12bbb    H11  347   6.769   6.725   4.811 -0.7865  0.0191 -0.3766
   12bbb    H12  348   6.880   6.758   4.678  0.0299  1.6141 -0.2800
   12bbb     C7  349   6.424   6.850   4.937  0.5301  0.4769 -0.5931
   12bbb    H13  350   6.343   6.806   4.996  0.5556  0.7258 -0.3702
   12bbb    H14  351   6.385   6.951   4.918 -1.0480  0.1107  0.5455
   12bbb     C8  352   6.881   6.551   4.724 -0.3387  0.1809 -0.5447
   12bbb    H15  353   6.951   6.550   4.808 -2.0055 -0.8097  0.9154
   12bbb    H16  354   6.804   6.476   4.746  0.3131  0.0300  1.4205
   12bbb     C9  355   6.868   6.989   4.350  0.6912 -0.7018  0.4558
   12bbb    H17  356   6.798   7.073   4.337  0.3456 -1.0020  0.3632
   12bbb    H18  357   6.893   6.951   4.250 -0.0767  0.6495 -0.2879
   12bbb     O1  358   6.544   6.861   5.018 -0.0911 -0.4827 -0.2232
   12bbb    H19  359   6.535   6.784   4.521  1.3917 -1.7817 -0.8033
   13bbb     N1  360   5.793   7.641   5.732  0.8977 -0.0405 -0.6160
   13bbb     C1  361   5.661   7.709   5.782 -0.0512  0.4811  0.3159
   13bbb     H1  362   5.648   7.809   5.741  0.5724  0.5963  0.3878
   13bbb     H2  363   5.674   7.737   5.887  0.0762  2.5008 -0.1851
   13bbb     C2  364   5.916   7.730   5.736 -0.0684  0.0096 -0.3638
   13bbb     H3  365   6.002   7.663   5.736 -0.6094 -0.7244 -1.7723
   13bbb     H4  366   5.923   7.782   5.832 -0.0095  2.4069 -1.5741
   13bbb     C3  367   5.819   7.521   5.814  0.8695  0.1540  0.0454
   13bbb     H5  368   5.736   7.498   5.882  1.6928 -2.0483  0.3873
   13bbb     H6  369   5.902   7.535   5.884  1.1380 -1.6251  0.1280
   13bbb     C4  370   5.845   7.384   5.741  0.1167 -0.0292  0.5336
   13bbb     H7  371   5.760   7.371   5.673  1.6525 -2.4621 -1.0416
   13bbb     H8  372   5.831   7.297   5.806 -0.1836  0.6325  1.3799
   13bbb     C5  373   5.539   7.619   5.761 -0.1679  0.1709  0.2172
   13bbb     H9  374   5.563   7.522   5.715  1.2514  0.7922 -0.3956
   13bbb    H10  375   5.472   7.672   5.693 -0.1883  1.2497  1.0550
   13bbb     C6  376   5.936   7.825   5.609 -0.5777  0.3335  0.2809
   13bbb    H11  377   5.873   7.914   5.612  0.3197  1.0013 -0.1502
   13bbb    H12  378   5.910   7.767   5.519  0.4629  2.1191 -1.2551
   13bbb     C7  379   5.985   7.385   5.673  0.6692  0.3950 -0.5489
   13bbb    H13  380   5.982   7.455   5.589  0.6752  0.6530 -0.3351
   13bbb    H14  381   5.999   7.278   5.650  0.0058 -0.4450  2.4316
   13bbb     C8  382   6.079   7.881   5.597  0.2320  0.2450  0.1031
   13bbb    H15  383   6.144   7.794   5.580 -2.4321 -1.3921 -2.7314
   13bbb    H16  384   6.080   7.936   5.502  1.0526 -0.9619 -0.6213
   13bbb     C9  385   5.457   7.584   5.889  0.5580  0.3548 -0.0326
   13bbb    H17  386   5.499   7.499   5.945  0.8827  1.3437  1.2621
   13bbb    H18  387   5.358   7.548   5.855  0.9950  0.1714 -1.1593
   13bbb     O1  388   6.093   7.433   5.761  0.2595  0.4054 -0.1343
   13bbb    H19  389   5.768   7.603   5.640 -1.9855  0.9626 -0.3336
   14bbb     N1  390   7.116   7.767   6.117 -0.2904  0.3596 -0.8563
   14bbb     C1  391   7.127   7.681   6.237  0.1164  0.1047  0.2770
   14bbb     H1  392   7.210   7.722   6.294 -0.4461  1.9037 -0.1367
   14bbb     H2  393   7.153   7.584   6.194  0.8202  0.2960  0.2723
   14bbb     C2  394   7.104   7.915   6.155 -0.2891  0.3453 -0.3966
   14bbb     H3  395   7.008   7.913   6.206  0.7804 -0.7138  1.7115
   14bbb     H4  396   7.115   7.970   6.061  0.5069  0.3523 -0.3086
   14bbb     C3  397   7.245   7.745   6.042 -0.2278  0.0364  0.7685
   14bbb     H5  398   7.254   7.637   6.034  1.1025  0.2456 -1.2490
   14bbb     H6  399   7.332   7.780   6.097 -0.5145 -0.1416  1.3538
   14bbb     C4  400   7.240   7.816   5.900  0.1478 -0.3809 -0.6697
   14bbb     H7  401   7.337   7.835   5.855  0.2533  0.1580 -0.2275
   14bbb     H8  402   7.200   7.919   5.902  1.6952  0.2568 -1.2054
   14bbb     C5  403   6.997   7.663   6.319 -0.8472 -0.2555  0.5517
   14bbb     H9  404   6.916   7.641   6.247  0.7609  0.7585 -1.6892
   14bbb    H10  405   6.960   7.756   6.365  1.6512  0.4431  1.3030
   14bbb     C6  406   7.214   7.986   6.246  0.0537  0.4250 -0.6124
   14bbb    H11  407   7.228   8.093   6.229  1.2789  0.4253  0.2556
   14bbb    H12  408   7.314   7.945   6.228  1.1597  2.0319  1.3840
   14bbb     C7  409   7.156   7.728   5.804  0.0668  0.6043  0.0613
   14bbb    H13  410   7.205   7.630   5.803  0.2393  0.6919 -1.3593
   14bbb    H14  411   7.145   7.774   5.706  0.2591 -0.8423 -0.6655
   14bbb     C8  412   7.199   7.968   6.396 -0.2481 -0.5359 -0.4807
   14bbb    H15  413   7.221   7.864   6.423  2.3200  0.0632  0.0025
   14bbb    H16  414   7.266   8.038   6.448 -0.1353 -1.9177  1.3425
   14bbb     C9  415   7.014   7.558   6.431 -0.1450  0.4386  0.1254
   14bbb    H17  416   6.925   7.555   6.496  0.0891  0.8903  0.4691
   14bbb    H18  417   7.099   7.583   6.495  1.8550 -0.0246 -2.2312
   14bbb     O1  418   7.017   7.729   5.861  0.1002  0.1997  0.0298
   14bbb    H19  419   7.039   7.738   6.056 -1.7321 -2.7285  2.0940
   15bbb     N1  420   5.575   7.672   8.043  0.1222  0.1460  0.4921
   15bbb     C1  421   5.436   7.682   8.116 -0.0357  0.0672  0.4654
   15bbb     H1  422   5.427   7.588   8.171 -0.9094 -0.2729 -0.2293
   15bbb     H2  423   5.372   7.678   8.027 -1.3132  0.2232  1.3487
   15bbb     C2  424   5.684   7.697   8.139 -0.7968  0.3232 -0.3676
   15bbb     H3  425   5.679   7.625   8.221 -0.9532  1.4632  0.6411
   15bbb     H4  426   5.674   7.795   8.185  2.5101  0.3822  0.4612
   15bbb     C3  427   5.579   7.527   7.986  0.3280  0.1437  0.6624
   15bbb     H5  428   5.537   7.462   8.062 -3.4325  0.7091 -0.7163
   15bbb     H6  429   5.680   7.490   7.968  0.0926 -0.3978  0.4142
   15bbb     C4  430   5.476   7.498   7.873  0.3247  0.0977 -0.3771
   15bbb     H7  431   5.383   7.501   7.931 -0.4950  3.5639 -1.6497
   15bbb     H8  432   5.495   7.398   7.834  0.0380  0.4714 -1.5057
   15bbb     C5  433   5.394   7.807   8.193 -0.0849 -0.1944 -0.0734
   15bbb     H9  434   5.471   7.829   8.268  1.3893 -2.7758 -0.7277
   15bbb    H10  435   5.304   7.794   8.255 -1.0134  2.5860 -0.6588
   15bbb     C6  436   5.827   7.687   8.090 -0.0866 -0.6953  0.2836
   15bbb    H11  437   5.842   7.581   8.065 -1.4792 -1.1066  1.1005
   15bbb    H12  438   5.891   7.721   8.172  0.0431 -1.6911  0.6128
   15bbb     C7  439   5.469   7.588   7.750  0.0448 -0.4071  0.0648
   15bbb    H13  440   5.389   7.663   7.756  0.9731  0.5724  0.5259
   15bbb    H14  441   5.446   7.520   7.667  2.4929 -0.5922 -0.5467
   15bbb     C8  442   5.859   7.782   7.973 -0.4190 -0.3358  0.1232
   15bbb    H15  443   5.799   7.747   7.888 -0.6598  1.0814 -0.3153
   15bbb    H16  444   5.834   7.883   8.010  1.7386  0.3747 -0.2463
   15bbb     C9  445   5.371   7.926   8.102 -0.4088  0.4081 -0.2702
   15bbb    H17  446   5.349   8.017   8.159 -2.2540  0.0060 -0.2916
   15bbb    H18  447   5.280   7.908   8.045  0.3565 -3.2504 -0.6094
   15bbb     O1  448   5.593   7.669   7.725  0.7360  0.0201  0.7951
   15bbb    H19  449   5.577   7.743   7.968 -3.4097  0.4846  0.5337
   16bbb     N1  450   6.247   7.834   6.956 -0.5556 -0.1365  0.1515
   16bbb     C1  451   6.305   7.922   7.059  0.1098  0.0699 -0.1200
   16bbb     H1  452   6.340   8.011   7.006  1.7297 -0.7261 -0.4486
   16bbb     H2  453   6.391   7.871   7.104 -1.5095 -0.3393  2.7747
   16bbb     C2  454   6.278   7.887   6.812 -0.0118  0.2279  0.9185
   16bbb     H3  455   6.252   7.798   6.754 -1.7111  1.2824 -0.0170
   16bbb     H4  456   6.382   7.913   6.797  0.2642 -0.5954  1.3671
   16bbb     C3  457   6.310   7.703   6.965  0.0901  1.0669 -0.4107
   16bbb     H5  458   6.417   7.717   6.979  0.4283 -0.0216 -1.6760
   16bbb     H6  459   6.293   7.657   6.867 -0.3232  0.2126  0.0481
   16bbb     C4  460   6.256   7.597   7.076  0.6910  0.3138  0.1397
   16bbb     H7  461   6.252   7.647   7.173 -0.8995 -0.5728  0.5488
   16bbb     H8  462   6.319   7.508   7.066 -0.9307 -0.6786 -1.9688
   16bbb     C5  463   6.213   7.951   7.178  0.4028  0.6896  0.0315
   16bbb     H9  464   6.280   7.999   7.251  1.0979  1.3943 -1.0519
   16bbb    H10  465   6.176   7.860   7.227  2.0576 -1.2413 -2.0790
   16bbb     C6  466   6.180   8.000   6.771 -0.0246  0.7040 -0.0458
   16bbb    H11  467   6.204   8.085   6.836 -2.3934  1.1562  0.3041
   16bbb    H12  468   6.074   7.973   6.772  0.1389 -0.1548 -1.5814
   16bbb     C7  469   6.121   7.540   7.041  0.3432 -0.3248 -0.0683
   16bbb    H13  470   6.100   7.448   7.097 -1.9050 -1.5174 -2.6307
   16bbb    H14  471   6.109   7.495   6.941 -0.1919 -1.8163  0.6277
   16bbb     C8  472   6.219   8.056   6.629 -0.0964  0.8005  0.4389
   16bbb    H15  473   6.196   7.981   6.552  0.6304  0.3386  0.6651
   16bbb    H16  474   6.170   8.151   6.605 -0.3688  0.8976  1.3376
   16bbb     C9  475   6.093   8.045   7.160 -0.6277  0.3309 -0.8537
   16bbb    H17  476   6.138   8.145   7.154  2.9612 -1.1263 -0.6130
   16bbb    H18  477   6.030   8.055   7.249  1.8110  2.0240  0.8152
   16bbb     O1  478   6.016   7.637   7.075 -0.6504  0.5623  0.2217
   16bbb    H19  479   6.145   7.821   6.967 -0.5193 -0.4199  0.1612
   17bbb     N1  480   6.956   7.784   8.658 -0.3077  0.2694 -0.1142
   17bbb     C1  481   6.800   7.817   8.654 -0.1660 -0.2789 -0.3708
   17bbb     H1  482   6.786   7.895   8.578  2.4519  1.6456  0.9717
   17bbb     H2  483   6.780   7.860   8.753  0.1093 -1.8509  0.3973
   17bbb     C2  484   6.995   7.681   8.766  0.1118 -0.3068 -0.3860
   17bbb     H3  485   6.959   7.581   8.744  1.1113 -1.0734  1.2950
   17bbb     H4  486   6.940   7.723   8.851 -1.3141  1.3469 -2.0137
   17bbb     C3  487   6.992   7.711   8.526  1.1841  0.3616  0.3979
   17bbb     H5  488   6.910   7.639   8.516 -0.9435  2.4521  1.5966
   17bbb     H6  489   7.082   7.653   8.544  0.5831 -0.6716  0.1351
   17bbb     C4  490   7.018   7.798   8.399  0.3337 -0.7729 -1.3010
   17bbb     H7  491   7.118   7.841   8.414 -0.4374  0.3699  0.9773
   17bbb     H8  492   6.949   7.884   8.403 -0.7431 -1.4301 -3.5694
   17bbb     C5  493   6.698   7.706   8.622 -0.1216 -0.2465  0.3255
   17bbb     H9  494   6.710   7.625   8.695  0.4755 -2.0176 -1.6458
   17bbb    H10  495   6.725   7.665   8.524  0.6599  3.1468 -1.0118
   17bbb     C6  496   7.143   7.653   8.802  0.0808  0.7811  0.0618
   17bbb    H11  497   7.206   7.627   8.716 -0.5744  1.6458 -0.6889
   17bbb    H12  498   7.156   7.567   8.869  1.7728  0.5760 -0.4808
   17bbb     C7  499   7.001   7.727   8.260 -0.0861 -0.2398  0.3754
   17bbb    H13  500   7.097   7.676   8.241  1.2101  2.0407  0.4052
   17bbb    H14  501   6.987   7.800   8.180 -1.3546 -1.4891 -0.5923
   17bbb     C8  502   7.224   7.765   8.871 -0.3361 -0.3903  0.0814
   17bbb    H15  503   7.181   7.781   8.970  2.5795  0.4487  1.3032
   17bbb    H16  504   7.329   7.746   8.893 -0.1355  1.0642  0.4996
   17bbb     C9  505   6.552   7.762   8.622 -0.0434 -0.2150  0.5027
   17bbb    H17  506   6.536   7.816   8.716 -0.1183  0.8833 -0.1293
   17bbb    H18  507   6.485   7.676   8.609  1.2859 -1.3009  0.6266
   17bbb     O1  508   6.883   7.643   8.259 -0.0694  0.2936  0.1462
   17bbb    H19  509   7.001   7.876   8.668 -1.8777  0.8471  2.4970
   18bbb     N1  510   6.184   7.518   8.861  0.0696 -0.1368 -0.3677
   18bbb     C1  511   6.150   7.626   8.966 -0.0950 -0.2106 -0.4159
   18bbb     H1  512   6.149   7.717   8.907 -3.2192 -0.1630 -0.4967
   18bbb     H2  513   6.241   7.621   9.026  0.2878  2.6011 -0.6660
   18bbb     C2  514   6.084   7.520   8.751 -0.5050  0.2370  0.0273
   18bbb     H3  515   6.088   7.622   8.712  2.7986 -0.0898 -0.7974
   18bbb     H4  516   5.986   7.508   8.798 -0.7552  2.0972  0.0219
   18bbb     C3  517   6.324   7.561   8.808  0.1298 -0.4521  0.5495
   18bbb     H5  518   6.332   7.670   8.816  0.0626 -0.4347  0.3821
   18bbb     H6  519   6.330   7.523   8.706 -1.8915 -1.2019  0.6815
   18bbb     C4  520   6.451   7.508   8.884  0.0707 -1.0124  0.4174
   18bbb     H7  521   6.427   7.479   8.986 -1.2427  2.4673  1.2516
   18bbb     H8  522   6.519   7.594   8.878  2.5591 -2.9536 -1.6457
   18bbb     C5  523   6.026   7.613   9.056 -0.9961 -0.3062  0.2704
   18bbb     H9  524   6.047   7.549   9.142  2.2245 -1.9645 -1.5712
   18bbb    H10  525   5.943   7.567   9.001  0.6068 -1.2196 -1.5106
   18bbb     C6  526   6.096   7.415   8.636  0.2110  0.8672  0.5832
   18bbb    H11  527   6.180   7.447   8.573  2.2998  0.8719  3.2379
   18bbb    H12  528   5.999   7.420   8.584  0.1938 -1.6777  0.2346
   18bbb     C7  529   6.510   7.396   8.798 -0.4842  0.6225 -0.4808
   18bbb    H13  530   6.445   7.307   8.799 -1.0582  1.0358 -0.5374
   18bbb    H14  531   6.597   7.362   8.856 -0.1330  0.2212 -1.2317
   18bbb     C8  532   6.128   7.273   8.681  0.6198  0.5914  0.2850
   18bbb    H15  533   6.120   7.207   8.594  1.8752  1.6088 -0.6461
   18bbb    H16  534   6.227   7.266   8.729  0.3878 -0.2639  0.6698
   18bbb     C9  535   5.966   7.748   9.104 -0.2301  0.3225  0.3697
   18bbb    H17  536   5.888   7.727   9.178 -1.7882 -0.0353 -1.2901
   18bbb    H18  537   5.923   7.808   9.023  0.8669  0.9564  0.2417
   18bbb     O1  538   6.548   7.442   8.666 -0.4258  0.2243 -0.4555
   18bbb    H19  539   6.189   7.423   8.900  2.9940 -0.3938 -1.1191
   19bbb     N1  540   5.435   5.392   7.504 -0.4317 -0.6361 -0.0073
   19bbb     C1  541   5.495   5.253   7.470  0.4325 -0.2262  0.1345
   19bbb     H1  542   5.599   5.267   7.438  0.1684  1.0026 -0.2405
   19bbb     H2  543   5.448   5.218   7.378 -0.9917  1.0143  0.3554
   19bbb     C2  544   5.289   5.406   7.539 -1.0861  0.3350 -0.2336
   19bbb     H3  545   5.274   5.514   7.534  0.3143  0.4760 -2.7208
   19bbb     H4  546   5.257   5.370   7.637  0.7488 -0.8629 -0.0408
   19bbb     C3  547   5.516   5.454   7.614  0.9202  0.1621 -0.5214
   19bbb     H5  548   5.621   5.426   7.604  0.9107 -0.4502  0.8638
   19bbb     H6  549   5.477   5.405   7.704 -1.1858  2.3498 -0.1368
   19bbb     C4  550   5.508   5.610   7.614 -0.1076  0.5414 -0.2864
   19bbb     H7  551   5.564   5.651   7.699  0.4081 -0.5897 -0.0699
   19bbb     H8  552   5.402   5.637   7.628  0.0968  0.9407  0.6101
   19bbb     C5  553   5.484   5.133   7.573 -0.1703 -0.5658 -0.0866
   19bbb     H9  554   5.377   5.125   7.597  0.1228  0.3162  1.7051
   19bbb    H10  555   5.536   5.158   7.666 -2.0721 -0.2726  0.9472
   19bbb     C6  556   5.203   5.347   7.431 -0.5727  0.2194 -0.1471
   19bbb    H11  557   5.218   5.239   7.417 -0.2013  0.0852  1.1536
   19bbb    H12  558   5.223   5.391   7.332 -2.1360  0.8840 -0.1892
   19bbb     C7  559   5.562   5.667   7.485 -0.2873  0.2614 -0.2002
   19bbb    H13  560   5.595   5.771   7.497  2.9869 -0.5671 -1.0513
   19bbb    H14  561   5.491   5.654   7.402 -0.3956  0.0926 -0.0794
   19bbb     C8  562   5.055   5.367   7.468 -0.2695  0.2235  0.6621
   19bbb    H15  563   5.040   5.469   7.505  3.2920  1.1606 -0.0730
   19bbb    H16  564   5.013   5.347   7.369  0.5648  2.8993 -0.3024
   19bbb     C9  565   5.549   5.009   7.515  0.8682  0.2339 -0.6560
   19bbb    H17  566   5.496   4.983   7.422 -1.6757 -0.4040  0.8781
   19bbb    H18  567   5.539   4.923   7.582  1.2712  0.1291 -0.7310
   19bbb     O1  568   5.689   5.597   7.447  0.1173  0.3623 -0.1554
   19bbb    H19  569   5.442   5.447   7.418 -0.1510 -1.3947 -0.4801
   20bbb     N1  570   5.577   5.378   8.306 -0.3085 -0.0864 -0.5514
   20bbb     C1  571   5.660   5.261   8.362  0.3227  0.3887 -0.4540
   20bbb     H1  572   5.595   5.228   8.442  0.9361 -0.0171 -0.1110
   20bbb     H2  573   5.753   5.294   8.410 -0.2370  1.8168 -0.3054
   20bbb     C2  574   5.490   5.449   8.408 -0.4664 -0.0076  0.1460
   20bbb     H3  575   5.469   5.545   8.361 -1.4349  0.3838  1.3232
   20bbb     H4  576   5.550   5.454   8.499 -0.5271  1.2396  0.1345
   20bbb     C3  577   5.661   5.478   8.234 -0.1352 -0.0088  0.0356
   20bbb     H5  578   5.737   5.436   8.168  1.0642  0.7508  0.8854
   20bbb     H6  579   5.731   5.520   8.307 -0.4192 -0.1862  0.4081
   20bbb     C4  580   5.596   5.585   8.149 -0.0872 -0.5140  0.3802
   20bbb     H7  581   5.520   5.648   8.198  0.0823 -0.0465  0.0418
   20bbb     H8  582   5.549   5.534   8.064 -1.6086 -0.5658  1.2029
   20bbb     C5  583   5.682   5.140   8.272 -0.0854  0.2659 -0.7475
   20bbb     H9  584   5.734   5.179   8.183 -1.9909  2.4736 -0.9808
   20bbb    H10  585   5.589   5.091   8.240 -0.0304 -0.3543  0.0185
   20bbb     C6  586   5.353   5.384   8.460 -0.3443  0.4115  0.5295
   20bbb    H11  587   5.314   5.445   8.543  1.5892  0.4795  1.4615
   20bbb    H12  588   5.379   5.291   8.512 -0.2600 -0.8864 -1.7272
   20bbb     C7  589   5.703   5.675   8.091 -0.3982  0.0364  0.0076
   20bbb    H13  590   5.772   5.715   8.167  1.1540 -3.4365  0.6298
   20bbb    H14  591   5.653   5.763   8.050  1.1617  0.4179 -1.1432
   20bbb     C8  592   5.251   5.354   8.349 -0.0925  0.8128  0.1220
   20bbb    H15  593   5.277   5.266   8.288  2.6135 -1.4962  4.1638
   20bbb    H16  594   5.155   5.340   8.400 -0.1766  0.7384 -0.0580
   20bbb     C9  595   5.767   5.032   8.338  0.0173  0.0920 -0.0379
   20bbb    H17  596   5.779   4.941   8.278  0.0161  0.5232 -0.6981
   20bbb    H18  597   5.712   4.996   8.427  0.9399 -2.3347 -0.3752
   20bbb     O1  598   5.789   5.605   7.989  0.2395  0.0912 -0.2353
   20bbb    H19  599   5.511   5.336   8.239 -1.0444 -0.7161  0.5169
   21bbb     N1  600   7.310   5.682   7.521  0.2918  0.1643  0.2399
   21bbb     C1  601   7.454   5.674   7.463  0.7654  0.1841  0.1962
   21bbb     H1  602   7.449   5.718   7.364 -0.4817  0.8149  0.5292
   21bbb     H2  603   7.478   5.568   7.448  1.2031  0.2041  0.7012
   21bbb     C2  604   7.239   5.811   7.484 -0.3864 -0.1360  0.1930
   21bbb     H3  605   7.297   5.887   7.537 -0.8838 -0.1808  0.8096
   21bbb     H4  606   7.143   5.820   7.536 -1.3023 -1.6841 -1.1368
   21bbb     C3  607   7.229   5.582   7.450  0.0544  0.4274  0.8978
   21bbb     H5  608   7.293   5.503   7.410 -1.3301  0.1627 -0.9104
   21bbb     H6  609   7.186   5.622   7.358  1.3294 -0.7181 -0.2407
   21bbb     C4  610   7.114   5.525   7.531  0.5571 -0.0540  0.7202
   21bbb     H7  611   7.047   5.605   7.565 -0.5240 -1.1952  1.3354
   21bbb     H8  612   7.153   5.474   7.620 -0.4823 -0.2143  1.0927
   21bbb     C5  613   7.566   5.740   7.559  0.2133 -0.4161  0.3283
   21bbb     H9  614   7.538   5.840   7.593  1.9462  0.0738  0.4104
   21bbb    H10  615   7.652   5.770   7.498 -0.1465  0.2674  0.1507
   21bbb     C6  616   7.226   5.867   7.342  0.5716 -0.0391  0.7704
   21bbb    H11  617   7.169   5.797   7.280  1.1406 -1.1052  1.4331
   21bbb    H12  618   7.324   5.872   7.293 -0.7143 -1.8872 -2.2667
   21bbb     C7  619   7.023   5.431   7.454  0.2746  0.4270 -0.1616
   21bbb    H13  620   6.941   5.402   7.521  0.6196  0.1139  0.1276
   21bbb    H14  621   7.084   5.345   7.425 -0.2873  0.3940 -1.2748
   21bbb     C8  622   7.156   6.005   7.331  0.4734  0.2599  0.4236
   21bbb    H15  623   7.050   5.986   7.349 -0.1250  1.6340 -1.3303
   21bbb    H16  624   7.196   6.069   7.411  0.8908 -0.4853  0.8254
   21bbb     C9  625   7.615   5.656   7.672  0.2484  0.6102 -0.7953
   21bbb    H17  626   7.697   5.702   7.728 -0.0107 -0.9774  0.9787
   21bbb    H18  627   7.660   5.566   7.627 -1.6130 -0.6783 -0.2077
   21bbb     O1  628   6.962   5.496   7.342 -0.5840 -0.1722  0.1243
   21bbb    H19  629   7.301   5.663   7.621 -2.0955 -0.2579  0.0014
   22bbb     N1  630   6.459   5.619   6.438  0.4634 -0.6527 -0.0866
   22bbb     C1  631   6.430   5.689   6.297  0.1507  0.1079 -0.2370
   22bbb     H1  632   6.499   5.773   6.290 -2.0699  1.9192 -1.5362
   22bbb     H2  633   6.329   5.730   6.304  0.0590 -0.2710  1.0102
   22bbb     C2  634   6.439   5.728   6.543  0.5451  0.3891  0.3857
   22bbb     H3  635   6.431   5.665   6.632  2.5333 -1.9020 -0.9266
   22bbb     H4  636   6.340   5.768   6.521  0.6883  0.5126 -0.0480
   22bbb     C3  637   6.355   5.507   6.444 -0.6033 -0.7161  0.3545
   22bbb     H5  638   6.363   5.451   6.351  0.9234  0.3237 -0.1762
   22bbb     H6  639   6.257   5.555   6.455 -0.8015 -0.7241 -1.1402
   22bbb     C4  640   6.364   5.418   6.565 -0.0372  1.0343  0.5182
   22bbb     H7  641   6.287   5.344   6.545 -0.2043  1.5962 -1.0031
   22bbb     H8  642   6.336   5.473   6.656  1.7030 -1.8447  2.9781
   22bbb     C5  643   6.439   5.603   6.170 -0.1325  0.2517 -0.1696
   22bbb     H9  644   6.368   5.519   6.174 -0.4311  0.4798 -0.7191
   22bbb    H10  645   6.543   5.570   6.153 -0.2290  0.2150 -0.6959
   22bbb     C6  646   6.548   5.838   6.555 -0.5471  0.2863 -0.3361
   22bbb    H11  647   6.619   5.831   6.472  1.3076 -0.1197  1.1965
   22bbb    H12  648   6.614   5.824   6.642 -0.4707 -4.2992 -0.8930
   22bbb     C7  649   6.491   5.341   6.591 -0.0061  0.2310 -0.3076
   22bbb    H13  650   6.521   5.293   6.497  1.3154 -2.2931  1.3048
   22bbb    H14  651   6.479   5.262   6.666  0.3617 -1.3222 -1.8258
   22bbb     C8  652   6.485   5.971   6.561  0.4014  0.2906  0.3297
   22bbb    H15  653   6.442   5.998   6.464  0.0817  0.5347  0.5414
   22bbb    H16  654   6.402   5.970   6.633 -0.2575  2.0978 -0.3439
   22bbb     C9  655   6.390   5.680   6.046 -0.2325 -0.2238  0.3209
   22bbb    H17  656   6.294   5.729   6.069 -0.6841 -0.4315 -1.0425
   22bbb    H18  657   6.375   5.607   5.966 -1.0010 -0.0400  0.2880
   22bbb     O1  658   6.592   5.442   6.623 -0.3371  0.0572 -0.4965
   22bbb    H19  659   6.555   5.582   6.442  0.1220 -1.6025 -0.3775
   23ccc     C1  660   6.622   5.838   4.976  0.6198 -0.0018  0.2142
   23ccc     C2  661   6.505   5.793   5.064 -0.2672 -0.2806  0.4764
   23ccc     H1  662   6.681   5.748   4.956  0.0312 -0.6141  1.1129
   23ccc     H2  663   6.448   5.718   5.008 -0.4150  0.5642 -0.5290
   23ccc     C3  664   6.558   5.729   5.199  0.3396 -0.2268 -0.2789
   23ccc     C4  665   6.663   5.829   5.265  0.2456 -0.0567 -0.2140
   23ccc     C5  666   6.768   5.862   5.164 -0.2754 -0.6245 -0.3288
   23ccc     H3  667   6.625   5.928   5.293 -1.1150 -0.4698 -0.5001
   23ccc     H4  668   6.613   5.639   5.169  0.5391  0.3302 -1.6907
   23ccc     H5  669   6.819   5.767   5.146 -0.2115 -0.8492  0.9417
   23ccc     O1  670   6.857   5.957   5.227  0.0813  0.0298 -0.0425
   23ccc     O2  671   6.730   5.755   5.369  0.3673 -0.4792  0.3952
   23ccc     O3  672   6.451   5.703   5.285  0.1838  0.4378  0.4227
   23ccc     O4  673   6.418   5.901   5.086  0.3854  0.4289 -0.2335
   23ccc     C6  674   6.586   5.906   4.843 -0.6844  0.3704  0.3807
   23ccc     H6  675   6.389   5.656   5.227  0.7644  1.3400 -0.9778
   23ccc     H7  676   6.348   5.889   5.152 -0.6928  2.1217 -0.9838
   23ccc     H8  677   6.679   5.763   5.452 -1.0097  0.0997 -0.4749
   23ccc     H9  678   6.528   5.830   4.789 -0.4062 -1.0040  1.9331
   23ccc    H10  679   6.676   5.925   4.782 -0.6452 -0.7916  0.0489
   23ccc     O5  680   6.507   6.024   4.860 -0.0215 -0.2539 -0.3829
   23ccc    H11  681   6.452   5.993   4.934  1.4063 -0.3966  0.6729
   23ccc     O6  682   6.715   5.923   5.047  0.1224 -0.1010  0.3392
   24ccc     C1  683   7.633   6.324   5.324 -0.9914  0.0405 -0.3698
   24ccc     C2  684   7.591   6.355   5.180 -0.7903  0.5225 -0.3608
   24ccc     H1  685   7.723   6.262   5.317 -0.6198  0.6710 -1.4257
   24ccc     H2  686   7.680   6.398   5.132  0.5253 -1.2529  0.3688
   24ccc     C3  687   7.562   6.222   5.104  0.0487  0.1828 -0.0950
   24ccc     C4  688   7.450   6.140   5.173 -0.3800  0.7366  0.0886
   24ccc     C5  689   7.496   6.106   5.323 -0.0758 -0.4352 -0.3013
   24ccc     H3  690   7.360   6.203   5.181 -1.1220 -0.3443  0.5699
   24ccc     H4  691   7.652   6.164   5.126 -0.4936 -0.5734  0.1934
   24ccc     H5  692   7.585   6.042   5.334  1.5377  2.0761  2.8150
   24ccc     O1  693   7.386   6.048   5.394 -0.0805  0.2509 -0.1832
   24ccc     O2  694   7.433   6.029   5.091  0.7439  0.1278  0.7179
   24ccc     O3  695   7.534   6.247   4.968  0.4927  0.1949 -0.4093
   24ccc     O4  696   7.479   6.437   5.190 -0.0561 -0.5143  0.3139
   24ccc     C6  697   7.675   6.440   5.406 -0.1316  0.0583  0.0054
   24ccc     H6  698   7.460   6.309   4.980  3.8278  4.3852  1.0107
   24ccc     H7  699   7.485   6.483   5.275 -0.4123 -1.7541  1.0207
   24ccc     H8  700   7.373   5.962   5.128 -0.7944  1.7267  1.2374
   24ccc     H9  701   7.760   6.486   5.353 -1.1802  1.0343 -0.8797
   24ccc    H10  702   7.713   6.406   5.504 -0.1299 -0.3973 -0.1555
   24ccc     O5  703   7.574   6.535   5.414 -0.2955  0.1484  0.5242
   24ccc    H11  704   7.617   6.609   5.459  0.2871  0.9992 -1.3393
   24ccc     O6  705   7.529   6.237   5.383 -0.0591  0.3702 -0.4008
   25ccc     C1  706   7.158   6.245   4.731  0.3443 -0.9758 -0.4861
   25ccc     C2  707   7.278   6.254   4.634 -0.7624 -0.3602 -0.6977
   25ccc     H1  708   7.101   6.161   4.688 -0.6188 -0.6525  0.1152
   25ccc     H2  709   7.336   6.162   4.641 -0.8041 -0.3375  0.0020
   25ccc     C3  710   7.230   6.272   4.489  1.0506 -0.6609 -0.0557
   25ccc     C4  711   7.120   6.387   4.481 -0.6065 -0.1436 -1.1569
   25ccc     C5  712   7.020   6.397   4.599  0.7345 -0.3390  0.1609
   25ccc     H3  713   7.171   6.484   4.489 -1.1226 -0.0100  2.5642
   25ccc     H4  714   7.168   6.184   4.469 -2.9547  1.4794  1.7679
   25ccc     H5  715   6.945   6.320   4.580  0.0107 -0.0572  1.6893
   25ccc     O1  716   6.952   6.520   4.609 -0.1237  0.4244  0.6143
   25ccc     O2  717   7.053   6.378   4.360 -0.9654  0.2274 -0.3047
   25ccc     O3  718   7.350   6.288   4.406  0.2617 -0.0882 -0.2482
   25ccc     O4  719   7.363   6.369   4.674  0.1923  0.1005  0.3412
   25ccc     C6  720   7.187   6.212   4.882 -0.7548 -0.7985  0.0514
   25ccc     H6  721   7.379   6.380   4.416  0.9294 -0.4136  1.1765
   25ccc     H7  722   7.451   6.343   4.641 -0.8135 -1.3224 -1.4159
   25ccc     H8  723   7.122   6.368   4.291 -0.2888 -1.1288  0.5182
   25ccc     H9  724   7.252   6.126   4.899 -1.3841 -0.9435  1.8939
   25ccc    H10  725   7.105   6.197   4.953 -0.5489  1.4422  0.8278
   25ccc     O5  726   7.258   6.326   4.922  0.2766  0.0632 -0.2784
   25ccc    H11  727   7.286   6.357   4.834  1.6400 -1.9422 -0.6204
   25ccc     O6  728   7.084   6.367   4.727 -0.2717  0.1376  0.0677
   26ccc     C1  729   7.110   7.278   4.181 -0.4134  0.2593  0.3163
   26ccc     C2  730   7.250   7.215   4.147  0.1502  0.4309 -0.3640
   26ccc     H1  731   7.119   7.361   4.251  0.5511 -0.2248  0.7849
   26ccc     H2  732   7.313   7.297   4.113 -0.0543  0.3459 -0.9617
   26ccc     C3  733   7.314   7.170   4.283 -0.2898 -0.2533  0.6151
   26ccc     C4  734   7.223   7.069   4.356 -0.1755  0.3123  0.4072
   26ccc     C5  735   7.078   7.131   4.366  0.4028 -0.4097 -0.1870
   26ccc     H3  736   7.217   6.983   4.289  0.4333 -0.8905  1.8414
   26ccc     H4  737   7.327   7.242   4.365  2.7453 -0.1458  0.1516
   26ccc     H5  738   7.082   7.215   4.437  1.1071 -0.0517 -0.6378
   26ccc     O1  739   6.988   7.023   4.414  0.2381  0.2330 -0.0531
   26ccc     O2  740   7.287   7.030   4.477  0.1720 -0.9687  0.4272
   26ccc     O3  741   7.444   7.105   4.255  0.3563 -0.4913 -0.0950
   26ccc     O4  742   7.241   7.104   4.049 -0.2088  0.1765 -0.3092
   26ccc     C6  743   7.049   7.339   4.058 -0.8650  0.3464 -0.1049
   26ccc     H6  744   7.512   7.158   4.210 -0.2507  0.0563 -0.4012
   26ccc     H7  745   7.325   7.103   4.000  0.4184 -0.4512  0.7648
   26ccc     H8  746   7.243   6.948   4.507  0.4169 -0.3661  2.6413
   26ccc     H9  747   7.109   7.420   4.015 -1.4216  0.4692 -0.6627
   26ccc    H10  748   6.956   7.389   4.087 -0.7316 -0.2708  1.5046
   26ccc     O5  749   7.037   7.233   3.958 -0.0642  0.0966 -0.1359
   26ccc    H11  750   7.108   7.180   3.998  0.9752  2.0815  0.8191
   26ccc     O6  751   7.029   7.178   4.237 -0.5478  0.1948  0.1254
   27ccc     C1  752   6.454   8.025   5.605 -0.7948 -0.0004 -0.3591
   27ccc     C2  753   6.528   7.910   5.691  0.1053 -0.7933 -0.4730
   27ccc     H1  754   6.468   8.122   5.655  0.2079 -0.8944  1.1994
   27ccc     H2  755   6.635   7.931   5.703  0.5606 -2.6828 -0.9493
   27ccc     C3  756   6.465   7.915   5.835  0.0876 -0.1893 -0.1291
   27ccc     C4  757   6.308   7.901   5.832  0.3628  0.1034  0.2320
   27ccc     C5  758   6.244   7.994   5.726  0.0477 -1.0160 -0.1806
   27ccc     H3  759   6.278   7.798   5.809 -0.5597  0.3418  0.3374
   27ccc     H4  760   6.486   8.015   5.875  0.6127  0.0096 -0.8789
   27ccc     H5  761   6.250   8.100   5.752  0.6025 -0.7696 -1.2467
   27ccc     O1  762   6.104   7.954   5.713  0.3494  0.5142  0.9367
   27ccc     O2  763   6.270   7.940   5.965  0.1854 -0.5905 -0.5080
   27ccc     O3  764   6.524   7.817   5.926  0.1851  0.0263 -0.2220
   27ccc     O4  765   6.499   7.786   5.622 -0.1088 -0.1066  0.1445
   27ccc     C6  766   6.500   8.015   5.457  0.1579  0.1116  0.8500
   27ccc     H6  767   6.497   7.845   6.016  2.0681 -1.3008  0.8360
   27ccc     H7  768   6.581   7.765   5.573  0.5890  1.5551  0.5326
   27ccc     H8  769   6.188   7.891   5.985  0.6613 -1.7896 -1.3912
   27ccc     H9  770   6.487   7.914   5.416 -0.6590  0.5476  0.0223
   27ccc    H10  771   6.608   8.036   5.447  0.0436  1.0017  1.3730
   27ccc     O5  772   6.432   8.121   5.384  0.0984  0.5492 -0.4213
   27ccc    H11  773   6.341   8.107   5.416  0.7220 -0.7703  0.8821
   27ccc     O6  774   6.315   7.987   5.598 -0.2316  0.0666 -0.1600
   28ccc     C1  775   5.102   7.758   6.081  0.8080  0.1192 -0.9917
   28ccc     C2  776   5.132   7.862   6.194  0.2829  0.2847 -0.5903
   28ccc     H1  777   5.081   7.664   6.134  1.4557  1.6130  2.1074
   28ccc     H2  778   5.045   7.868   6.261  0.7059  1.0753 -0.0915
   28ccc     C3  779   5.261   7.823   6.276  0.8829 -0.8037  0.3490
   28ccc     C4  780   5.374   7.804   6.185 -0.0246 -0.1378  0.3216
   28ccc     C5  781   5.343   7.701   6.076 -1.4919  0.1690 -0.5191
   28ccc     H3  782   5.391   7.901   6.137  1.8227 -1.5724 -2.1605
   28ccc     H4  783   5.256   7.730   6.334  0.7136 -0.0191  1.6342
   28ccc     H5  784   5.334   7.600   6.118  2.1912 -0.0325  0.1106
   28ccc     O1  785   5.446   7.696   5.973  0.1024  0.0535 -0.3358
   28ccc     O2  786   5.487   7.758   6.263 -0.7966  0.0525 -0.5079
   28ccc     O3  787   5.298   7.915   6.376  0.0274 -0.1363 -0.2381
   28ccc     O4  788   5.157   7.990   6.127 -0.1188  0.0641 -0.2303
   28ccc     C6  789   4.986   7.786   5.992  0.4778 -0.1234 -0.4845
   28ccc     H6  790   5.249   7.998   6.366 -1.2600 -1.1078 -3.4363
   28ccc     H7  791   5.117   7.975   6.040  0.8737 -1.3753 -0.4633
   28ccc     H8  792   5.470   7.823   6.333 -0.6134 -1.6032  1.1529
   28ccc     H9  793   4.893   7.777   6.051 -0.0844 -3.1910 -1.6758
   28ccc    H10  794   4.985   7.702   5.922  0.5523  0.2253 -0.9042
   28ccc     O5  795   5.016   7.911   5.925 -1.0294  0.8066  0.2611
   28ccc    H11  796   4.940   7.931   5.868  0.9106 -2.7880 -4.3057
   28ccc     O6  797   5.227   7.745   6.009 -1.1088  0.2598  0.5880
   29ccc     C1  798   7.004   7.831   6.746  0.0866  0.3397 -0.2822
   29ccc     C2  799   6.847   7.848   6.751  0.6392 -0.5347 -0.1533
   29ccc     H1  800   7.061   7.906   6.800  1.4011 -0.0913 -1.0218
   29ccc     H2  801   6.803   7.840   6.851  0.0006 -0.6367 -0.4402
   29ccc     C3  802   6.796   7.982   6.685  0.6803 -0.5866  0.0418
   29ccc     C4  803   6.865   8.008   6.546  0.5099  0.4015  0.5763
   29ccc     C5  804   7.023   7.983   6.554 -0.1678 -0.3952  0.1717
   29ccc     H3  805   6.834   7.929   6.476  4.1216 -0.1795 -0.5560
   29ccc     H4  806   6.822   8.071   6.744  0.2988 -1.0731  0.9604
   29ccc     H5  807   7.074   8.065   6.608 -0.8107  1.3017 -1.6752
   29ccc     O1  808   7.065   8.004   6.420  0.3043  0.3730 -0.8405
   29ccc     O2  809   6.838   8.147   6.506 -0.5201  0.0464  0.3858
   29ccc     O3  810   6.656   7.981   6.666 -0.1610 -0.0997  0.1585
   29ccc     O4  811   6.789   7.735   6.691 -0.2571  0.0861  0.3003
   29ccc     C6  812   7.067   7.705   6.805  0.0793  0.1573  0.8071
   29ccc     H6  813   6.632   7.937   6.582 -0.8601  2.0934 -0.8714
   29ccc     H7  814   6.861   7.672   6.712 -0.6178 -0.0102  1.2864
   29ccc     H8  815   6.831   8.139   6.410  0.4152  0.4518  0.2719
   29ccc     H9  816   7.063   7.710   6.914  0.0908  1.7354  0.7663
   29ccc    H10  817   7.170   7.711   6.767  0.6774  0.2655  2.3796
   29ccc     O5  818   7.002   7.589   6.753  0.1316  0.2425  0.0760
   29ccc    H11  819   7.036   7.511   6.800  0.3205 -0.4950 -1.2619
   29ccc     O6  820   7.048   7.848   6.609  0.2485 -0.4959  0.2595
   30ccc     C1  821   6.943   7.242   6.695  0.5226 -0.4994 -0.7267
   30ccc     C2  822   7.080   7.245   6.766  0.2532  0.5962  0.0183
   30ccc     H1  823   6.918   7.144   6.652  1.9433 -1.0319 -0.4141
   30ccc     H2  824   7.080   7.151   6.823 -0.7724 -0.1114 -1.0980
   30ccc     C3  825   7.198   7.243   6.667 -0.2454  0.3357 -0.0579
   30ccc     C4  826   7.186   7.346   6.556  0.5760  0.3739  0.5818
   30ccc     C5  827   7.051   7.321   6.477  0.4625  0.1909 -0.2760
   30ccc     H3  828   7.169   7.445   6.601 -2.4542  0.2706 -0.0961
   30ccc     H4  829   7.193   7.144   6.620  2.2633  0.1249  0.0226
   30ccc     H5  830   7.047   7.223   6.429 -1.2669  0.2800 -0.3814
   30ccc     O1  831   7.045   7.431   6.377  0.2468  0.8044  0.1360
   30ccc     O2  832   7.295   7.340   6.463  0.5307 -0.6232  0.1719
   30ccc     O3  833   7.325   7.243   6.732 -0.2966 -0.4568  0.3094
   30ccc     O4  834   7.087   7.364   6.848  0.7281  0.5514  0.1922
   30ccc     C6  835   6.820   7.275   6.795 -0.1682 -0.4425 -0.6562
   30ccc     H6  836   7.336   7.339   6.748  0.0092  0.0940 -2.6485
   30ccc     H7  837   7.121   7.347   6.938 -1.9600 -0.4302  1.1057
   30ccc     H8  838   7.328   7.429   6.441 -0.3894 -0.9050 -2.7425
   30ccc     H9  839   6.840   7.368   6.849  2.3168 -1.4327  0.2607
   30ccc    H10  840   6.828   7.197   6.872  2.7602  0.3617 -0.0381
   30ccc     O5  841   6.698   7.294   6.729  0.1794  0.9407 -0.3349
   30ccc    H11  842   6.714   7.354   6.655 -0.8627  0.2574 -1.1411
   30ccc     O6  843   6.941   7.329   6.575  0.8864  0.1611 -0.2734
   31ccc     C1  844   5.994   8.022   7.666  0.1515 -0.6002  1.3322
   31ccc     C2  845   6.125   7.978   7.591  0.3245 -0.0402 -0.3578
   31ccc     H1  846   6.021   8.118   7.711 -0.9705  1.6548 -2.3919
   31ccc     H2  847   6.162   8.059   7.527  0.3305 -0.2013 -0.5589
   31ccc     C3  848   6.238   7.945   7.700  0.9352  0.7289 -0.1587
   31ccc     C4  849   6.182   7.832   7.796 -0.1304  0.4559 -0.3167
   31ccc     C5  850   6.048   7.890   7.860 -0.2293 -0.3421 -0.6033
   31ccc     H3  851   6.165   7.744   7.734  2.2190 -0.0088 -0.3781
   31ccc     H4  852   6.247   8.034   7.764  0.7161 -0.3406  1.3961
   31ccc     H5  853   6.061   7.973   7.930  1.9232 -0.5530 -0.6824
   31ccc     O1  854   6.002   7.778   7.937 -0.1644  0.0677 -0.2273
   31ccc     O2  855   6.283   7.804   7.896 -1.0505 -0.3684 -0.1721
   31ccc     O3  856   6.366   7.906   7.640 -0.0674 -0.4589 -0.6408
   31ccc     O4  857   6.089   7.860   7.520  0.1430  0.8249  0.1400
   31ccc     C6  858   5.882   8.059   7.567 -0.4171 -0.3225 -0.3129
   31ccc     H6  859   6.394   7.988   7.596  0.3632  0.0433  0.5140
   31ccc     H7  860   6.178   7.825   7.503 -0.3324 -0.1114 -0.5389
   31ccc     H8  861   6.365   7.794   7.845  0.0093 -1.1977  1.6330
   31ccc     H9  862   5.855   7.972   7.508  0.3036 -0.8270  0.0818
   31ccc    H10  863   5.918   8.137   7.499  0.1583  1.3444  1.7570
   31ccc     O5  864   5.782   8.101   7.657  0.6095 -0.0046  0.1460
   31ccc    H11  865   5.766   8.016   7.701  0.7802 -0.6986 -1.0842
   31ccc     O6  866   5.955   7.926   7.760  0.1939  0.5193 -0.1246
   32ccc     C1  867   5.313   8.199   7.822  0.1662  0.3144 -0.6689
   32ccc     C2  868   5.322   8.125   7.689 -0.6559  0.3027  0.1292
   32ccc     H1  869   5.379   8.285   7.810  0.2014  0.3797 -0.0305
   32ccc     H2  870   5.312   8.195   7.605  0.5295  1.9581  1.2918
   32ccc     C3  871   5.460   8.051   7.666  0.7073 -0.1168 -0.1460
   32ccc     C4  872   5.490   7.966   7.789 -0.5788  0.0486  0.1778
   32ccc     C5  873   5.479   8.047   7.910 -0.3386 -0.9656 -0.1623
   32ccc     H3  874   5.424   7.879   7.804  2.3884 -1.9891  3.0136
   32ccc     H4  875   5.529   8.136   7.660  0.4149  0.2182  1.0441
   32ccc     H5  876   5.561   8.120   7.912 -0.0502 -1.2875 -0.1850
   32ccc     O1  877   5.491   7.955   8.025 -0.1618  0.3503  0.4883
   32ccc     O2  878   5.627   7.913   7.784 -0.6267 -0.2061  0.4164
   32ccc     O3  879   5.450   7.979   7.540  0.1913  0.2618  0.4726
   32ccc     O4  880   5.212   8.031   7.684  0.1559 -0.0166 -0.7122
   32ccc     C6  881   5.170   8.253   7.836 -0.1302  0.2771 -0.4188
   32ccc     H6  882   5.389   7.904   7.536  0.3117  0.0208  2.2700
   32ccc     H7  883   5.190   8.029   7.589 -1.1087 -0.1139 -0.4319
   32ccc     H8  884   5.626   7.824   7.745 -0.6250  1.2023 -3.1826
   32ccc     H9  885   5.099   8.180   7.878 -0.5006  0.4278 -0.7747
   32ccc    H10  886   5.128   8.279   7.738  0.7049  0.9654 -0.6078
   32ccc     O5  887   5.184   8.370   7.924  0.2219 -0.2288  0.7437
   32ccc    H11  888   5.113   8.352   7.988 -1.6225 -1.3403 -1.4858
   32ccc     O6  889   5.352   8.106   7.924  0.2779  0.0964 -0.4768
   33ccc     C1  890   6.407   8.239   6.310 -0.6430 -0.3042 -0.6815
   33ccc     C2  891   6.411   8.118   6.213 -0.1789  0.6153  0.5578
   33ccc     H1  892   6.505   8.287   6.316 -0.1248 -1.3660 -0.5436
   33ccc     H2  893   6.448   8.152   6.116  0.7178  0.5659  0.8704
   33ccc     C3  894   6.500   8.007   6.265  0.0180  0.3425 -0.2134
   33ccc     C4  895   6.457   7.975   6.415  0.1447 -0.6325  0.0908
   33ccc     C5  896   6.437   8.097   6.511  0.5666 -0.2957 -0.2774
   33ccc     H3  897   6.354   7.937   6.407 -0.2394  0.5500 -0.7661
   33ccc     H4  898   6.605   8.038   6.261  0.3352 -0.7178 -0.5303
   33ccc     H5  899   6.536   8.135   6.540  0.9626 -1.7191  0.2972
   33ccc     O1  900   6.363   8.057   6.629 -0.4962  0.5142  0.2307
   33ccc     O2  901   6.545   7.875   6.472 -0.0062 -0.3361 -0.0997
   33ccc     O3  902   6.490   7.890   6.178  0.6846 -0.3025 -0.2062
   33ccc     O4  903   6.274   8.080   6.202 -0.0912  0.1232 -0.1379
   33ccc     C6  904   6.315   8.353   6.258 -0.4609  0.6717  0.5396
   33ccc     H6  905   6.415   7.835   6.208  0.4263 -0.5488 -1.2605
   33ccc     H7  906   6.285   8.031   6.118  1.8080  0.5681 -0.1975
   33ccc     H8  907   6.490   7.804   6.510 -0.6214  0.6410  0.8694
   33ccc     H9  908   6.208   8.331   6.264 -0.8301  2.6773  4.3118
   33ccc    H10  909   6.345   8.375   6.155 -0.7678  1.6602  0.6456
   33ccc     O5  910   6.338   8.467   6.340  0.5451  0.6303 -0.3262
   33ccc    H11  911   6.297   8.434   6.422  1.4695  1.6771  0.6006
   33ccc     O6  912   6.366   8.206   6.445 -0.0032  0.2104  0.1473
   34ccc     C1  913   5.680   8.169   7.165  0.0837 -0.6725  0.5532
   34ccc     C2  914   5.591   8.125   7.052  1.1258  0.2985 -0.5619
   34ccc     H1  915   5.704   8.276   7.158 -0.9855 -0.3370  1.6548
   34ccc     H2  916   5.507   8.195   7.060  2.7619  2.3220 -0.2031
   34ccc     C3  917   5.659   8.146   6.915  0.6603 -0.1259 -0.3578
   34ccc     C4  918   5.800   8.080   6.911  0.3976 -0.2378 -0.8365
   34ccc     C5  919   5.882   8.116   7.042 -0.2532  0.2591 -0.3398
   34ccc     H3  920   5.793   7.971   6.900  2.3081 -0.6282  1.1275
   34ccc     H4  921   5.674   8.255   6.906 -2.5668  0.4986  0.6502
   34ccc     H5  922   5.908   8.223   7.040 -1.4994  0.5781 -2.0699
   34ccc     O1  923   6.010   8.030   7.043  0.2527  0.0963  0.2618
   34ccc     O2  924   5.875   8.135   6.803 -0.1300 -1.0259  0.0189
   34ccc     O3  925   5.568   8.107   6.807  0.0661 -0.3089 -0.1454
   34ccc     O4  926   5.557   7.989   7.083  0.0408  0.8975 -0.1702
   34ccc     C6  927   5.616   8.149   7.306  0.6049 -0.0637 -0.2220
   34ccc     H6  928   5.553   8.011   6.813 -1.1977 -0.0724  1.1595
   34ccc     H7  929   5.565   7.986   7.180 -0.3349  0.4883 -0.1480
   34ccc     H8  930   5.833   8.099   6.723  0.6639  0.2186 -1.0071
   34ccc     H9  931   5.513   8.187   7.306  0.8523  0.6298  0.8024
   34ccc    H10  932   5.674   8.195   7.387 -0.3124 -0.1448  0.4943
   34ccc     O5  933   5.597   8.002   7.334  0.1318  0.0593 -0.3140
   34ccc    H11  934   5.547   8.008   7.417 -1.1483  0.0566 -1.0548
   34ccc     O6  935   5.803   8.091   7.158  0.1445 -0.1821 -0.2731
   35ccc     C1  936   7.523   7.988   8.645 -0.3099 -0.3969 -0.1483
   35ccc     C2  937   7.474   8.114   8.574 -0.2023 -0.1139 -0.7188
   35ccc     H1  938   7.536   7.918   8.562  0.2565 -2.0280  1.2517
   35ccc     H2  939   7.545   8.128   8.492 -1.1289 -0.9756 -1.7017
   35ccc     C3  940   7.332   8.103   8.514  0.2213  0.2261 -0.4072
   35ccc     C4  941   7.234   8.052   8.625 -0.6675  0.0420  0.4081
   35ccc     C5  942   7.289   7.915   8.687  0.0452 -0.2781 -0.5018
   35ccc     H3  943   7.221   8.126   8.704 -2.0375  1.3057 -0.9455
   35ccc     H4  944   7.341   8.027   8.435  0.8829  1.0911 -1.1912
   35ccc     H5  945   7.286   7.830   8.618  0.5992 -0.5250 -0.2253
   35ccc     O1  946   7.202   7.890   8.805 -0.7444 -0.2490 -0.6812
   35ccc     O2  947   7.093   8.051   8.564  0.1192 -0.5530 -0.0027
   35ccc     O3  948   7.289   8.229   8.457  0.0344 -0.2505  0.4746
   35ccc     O4  949   7.461   8.214   8.676  0.6312 -0.2685 -0.0400
   35ccc     C6  950   7.654   7.992   8.722 -1.0871  0.4123 -0.3887
   35ccc     H6  951   7.313   8.288   8.531 -1.7610  0.3360  0.6284
   35ccc     H7  952   7.523   8.285   8.656  0.5254  0.2408  1.3485
   35ccc     H8  953   7.061   8.143   8.568  3.8964  0.9659 -0.9194
   35ccc     H9  954   7.641   7.996   8.831  1.0294 -0.1457 -0.0645
   35ccc    H10  955   7.716   8.072   8.679 -1.0930  1.2361  1.0621
   35ccc     O5  956   7.716   7.868   8.694 -0.2659  0.2232 -0.2349
   35ccc    H11  957   7.808   7.880   8.726 -0.1894  1.6515 -0.8991
   35ccc     O6  958   7.428   7.934   8.742  0.6515 -0.2115  0.4953
   36ccc     C1  959   6.222   7.826   8.354 -0.2974  0.0796  0.1839
   36ccc     C2  960   6.257   7.877   8.211 -0.0671  0.8590 -0.5002
   36ccc     H1  961   6.191   7.919   8.403  0.1316 -0.1203  0.8499
   36ccc     H2  962   6.170   7.905   8.150 -1.2264 -1.9509 -0.2996
   36ccc     C3  963   6.339   8.004   8.225  0.0118  0.2737 -1.2195
   36ccc     C4  964   6.459   7.976   8.332  0.5311  0.0761  0.2841
   36ccc     C5  965   6.421   7.894   8.463 -0.1509 -0.3485 -0.1044
   36ccc     H3  966   6.528   7.907   8.281  1.0566 -0.3375  1.5319
   36ccc     H4  967   6.268   8.080   8.259 -0.6292 -0.4211 -0.9811
   36ccc     H5  968   6.367   7.964   8.528  1.5971 -0.0304  1.0501
   36ccc     O1  969   6.549   7.853   8.509 -0.0668  0.2405 -0.6333
   36ccc     O2  970   6.512   8.097   8.370 -0.1572  0.0588 -0.3146
   36ccc     O3  971   6.378   8.047   8.090 -0.0703 -0.0020  0.4014
   36ccc     O4  972   6.325   7.763   8.146  0.1198 -0.3952  0.2909
   36ccc     C6  973   6.110   7.717   8.362  0.8468  0.3947 -0.0095
   36ccc     H6  974   6.455   8.000   8.053  0.6202  0.7380  0.8846
   36ccc     H7  975   6.317   7.773   8.049 -0.5742  0.8339  0.4485
   36ccc     H8  976   6.609   8.090   8.370 -0.1773 -0.4622  1.2088
   36ccc     H9  977   6.018   7.766   8.327  0.7005  1.6420  1.9367
   36ccc    H10  978   6.102   7.687   8.467 -0.3079  1.3512  0.1944
   36ccc     O5  979   6.143   7.614   8.268 -0.0742  0.7047  0.2472
   36ccc    H11  980   6.193   7.667   8.204 -0.0670  1.1304  0.5923
   36ccc     O6  981   6.338   7.785   8.426  0.0232 -0.1651  0.2054
   37ccc     C1  982   5.929   6.889   8.728  0.2351  0.6349 -0.3505
   37ccc     C2  983   5.831   6.874   8.846  0.3129 -0.5134 -0.3187
   37ccc     H1  984   6.019   6.835   8.761 -0.6068 -0.5668  0.0542
   37ccc     H2  985   5.812   6.768   8.868  0.7629 -0.3717  0.8362
   37ccc     C3  986   5.870   6.955   8.970 -0.3400  0.0015  0.2684
   37ccc     C4  987   5.905   7.101   8.927 -0.1704  0.1764 -0.1498
   37ccc     C5  988   6.007   7.106   8.815 -0.3659  0.2151  0.3090
   37ccc     H3  989   5.810   7.146   8.896  0.2005  1.2202  0.2042
   37ccc     H4  990   5.966   6.915   9.002 -0.7218 -0.9620  0.2251
   37ccc     H5  991   6.097   7.055   8.850  0.5172  0.9482 -0.8141
   37ccc     O1  992   6.028   7.249   8.785  0.3606  0.0276  0.3604
   37ccc     O2  993   5.968   7.169   9.046  0.2457  0.0155 -0.3024
   37ccc     O3  994   5.771   6.943   9.076 -0.6009  0.1416 -0.0088
   37ccc     O4  995   5.693   6.920   8.813 -0.1522  0.6843  0.5114
   37ccc     C6  996   5.872   6.820   8.603 -0.1983  0.2028  0.5938
   37ccc     H6  997   5.689   6.991   9.055 -0.1733  0.2884 -1.4653
   37ccc     H7  998   5.624   6.865   8.854  0.6719 -2.2791 -1.6682
   37ccc     H8  999   5.915   7.247   9.067 -0.3465 -0.7884  1.3867
   37ccc     H9 1000   5.779   6.874   8.583 -0.4905 -0.1093  1.0876
   37ccc    H10 1001   5.846   6.715   8.620  1.5462 -0.2099  0.9152
   37ccc     O5 1002   5.971   6.830   8.507  0.0349 -0.3365 -0.0823
   37ccc    H11 1003   5.964   6.749   8.453 -2.1257 -1.5456  1.8833
   37ccc     O6 1004   5.970   7.028   8.704 -0.1875  0.3919  1.9032
   38ccc     C1 1005   5.919   8.159   9.187 -0.0482  0.5026  0.4670
   38ccc     C2 1006   6.043   8.245   9.224 -0.3029 -0.3840 -0.1749
   38ccc     H1 1007   5.854   8.154   9.275 -3.2232  0.4892 -1.7202
   38ccc     H2 1008   6.011   8.339   9.272  0.0828  1.4099 -3.1831
   38ccc     C3 1009   6.138   8.169   9.325  0.6915  1.1897  0.3190
   38ccc     C4 1010   6.158   8.014   9.293 -0.1492  0.0864  0.4579
   38ccc     C5 1011   6.025   7.950   9.249  0.1530  0.4192  0.4414
   38ccc     H3 1012   6.225   7.998   9.208 -0.2352  1.0145  0.2053
   38ccc     H4 1013   6.083   8.166   9.420 -0.2318 -0.2617 -0.2241
   38ccc     H5 1014   5.965   7.941   9.340  0.7089  0.1775  0.7888
   38ccc     O1 1015   6.061   7.820   9.191  1.1147  0.5808 -0.1435
   38ccc     O2 1016   6.217   7.950   9.404  0.2198  0.0633  0.3219
   38ccc     O3 1017   6.266   8.238   9.333 -0.2574  0.4905 -0.0202
   38ccc     O4 1018   6.115   8.269   9.106 -0.7694 -0.0050  0.3027
   38ccc     C6 1019   5.822   8.210   9.075  0.2842 -0.1819 -0.0807
   38ccc     H6 1020   6.264   8.289   9.416  0.3109 -1.1909  1.0809
   38ccc     H7 1021   6.176   8.343   9.121 -1.1485  0.2215  0.7355
   38ccc     H8 1022   6.313   7.951   9.389 -0.1754  2.0969 -3.2957
   38ccc     H9 1023   5.861   8.194   8.974 -1.6604  4.6258 -1.8796
   38ccc    H10 1024   5.815   8.319   9.087  0.5789  0.0527 -1.8292
   38ccc     O5 1025   5.689   8.147   9.089 -0.4485 -0.2925 -0.1267
   38ccc    H11 1026   5.703   8.081   9.160  1.6474 -0.5979 -0.7544
   38ccc     O6 1027   5.960   8.027   9.146  0.1232 -0.2796  0.0869
   39ccc     C1 1028   4.731   5.361   7.777 -0.4747 -0.2039  0.0495
   39ccc     C2 1029   4.693   5.226   7.849 -0.2254 -0.0497  0.6015
   39ccc     H1 1030   4.657   5.385   7.700 -2.0368 -0.7829  1.2966
   39ccc     H2 1031   4.590   5.237   7.886 -0.7178 -1.4520 -0.2559
   39ccc     C3 1032   4.706   5.109   7.751  0.3475  0.3734 -0.2626
   39ccc     C4 1033   4.846   5.113   7.671 -0.0260 -0.1004  0.1318
   39ccc     C5 1034   4.880   5.257   7.617  0.2101  0.5722 -0.2027
   39ccc     H3 1035   4.927   5.070   7.731  1.7166  0.2942 -1.8119
   39ccc     H4 1036   4.627   5.122   7.676 -0.0300 -1.1853 -0.1644
   39ccc     H5 1037   4.810   5.281   7.536  0.0969 -1.2580 -0.6927
   39ccc     O1 1038   5.020   5.263   7.565  0.6647  0.0947 -0.9904
   39ccc     O2 1039   4.834   5.026   7.556  0.4833  0.5283 -0.4974
   39ccc     O3 1040   4.683   4.983   7.816 -0.4645 -0.3727  0.4655
   39ccc     O4 1041   4.782   5.201   7.958  0.2460 -0.5607 -0.3447
   39ccc     C6 1042   4.733   5.474   7.874 -0.1930  0.2149 -0.3688
   39ccc     H6 1043   4.585   4.982   7.815 -0.4955  0.9230 -0.1783
   39ccc     H7 1044   4.726   5.164   8.029  0.5501 -0.0189  0.1827
   39ccc     H8 1045   4.833   4.933   7.585 -1.5347  0.9930  1.1528
   39ccc     H9 1046   4.819   5.460   7.940  0.0481  2.2024 -0.1997
   39ccc    H10 1047   4.646   5.463   7.940 -0.6566 -0.7179 -1.1124
   39ccc     O5 1048   4.727   5.596   7.805 -0.3547 -0.5131 -0.0550
   39ccc    H11 1049   4.789   5.578   7.733 -1.6387 -1.5189 -0.9597
   39ccc     O6 1050   4.867   5.352   7.730 -0.4469 -0.2016  0.1715
   40ccc     C1 1051   5.822   4.715   7.398 -0.7798  0.0940  0.1500
   40ccc     C2 1052   5.972   4.742   7.415  0.0043 -0.3035 -0.0811
   40ccc     H1 1053   5.797   4.717   7.291 -1.2041  2.5845  0.2206
   40ccc     H2 1054   6.040   4.680   7.356  0.9894  1.2990 -0.7022
   40ccc     C3 1055   6.012   4.888   7.372 -0.1561  0.4781 -0.2988
   40ccc     C4 1056   5.919   4.994   7.420  0.2350 -0.2512  0.4175
   40ccc     C5 1057   5.767   4.951   7.409  0.0476  0.0734 -0.8941
   40ccc     H3 1058   5.943   5.015   7.525  0.0094  0.3586  0.3539
   40ccc     H4 1059   6.004   4.894   7.262  0.8658  0.1572 -0.4029
   40ccc     H5 1060   5.738   4.950   7.303  1.3797  1.1278 -1.2961
   40ccc     O1 1061   5.688   5.049   7.484  0.3858 -0.2022 -0.0118
   40ccc     O2 1062   5.938   5.112   7.337  0.6556 -0.4234 -0.0060
   40ccc     O3 1063   6.151   4.909   7.405  0.5676  0.3412 -0.2367
   40ccc     O4 1064   6.004   4.728   7.553 -0.4190 -0.2925 -0.3391
   40ccc     C6 1065   5.787   4.581   7.464  0.6842 -0.1495  0.3731
   40ccc     H6 1066   6.201   4.853   7.344  1.7846 -0.5616  1.5048
   40ccc     H7 1067   6.101   4.728   7.563 -0.5171  0.1860  0.7583
   40ccc     H8 1068   5.886   5.175   7.390 -0.0551 -1.0976  0.1188
   40ccc     H9 1069   5.785   4.580   7.574 -0.4667 -1.5992  0.3834
   40ccc    H10 1070   5.860   4.504   7.438  0.9536  0.6088 -1.1993
   40ccc     O5 1071   5.648   4.554   7.417 -0.3612 -0.7441 -0.2909
   40ccc    H11 1072   5.623   4.485   7.481 -0.9679  0.5550  0.9391
   40ccc     O6 1073   5.754   4.818   7.468  0.7471 -0.3489 -0.1367
   41ccc     C1 1074   5.129   5.359   7.940 -0.1552 -0.0573  0.3398
   41ccc     C2 1075   5.159   5.490   7.863  0.2712  0.4092 -0.4613
   41ccc     H1 1076   5.021   5.369   7.954 -0.2134  0.1523 -0.2625
   41ccc     H2 1077   5.101   5.493   7.770  1.1186 -1.2921 -1.0821
   41ccc     C3 1078   5.121   5.618   7.946  0.6836  0.1405  0.0760
   41ccc     C4 1079   5.183   5.605   8.089  0.4375 -0.1195  0.0542
   41ccc     C5 1080   5.156   5.473   8.159 -0.4794  0.2974 -0.2596
   41ccc     H3 1081   5.291   5.616   8.071  0.2658  1.3444 -0.1725
   41ccc     H4 1082   5.012   5.619   7.947  0.5915 -0.6560 -2.3806
   41ccc     H5 1083   5.051   5.476   8.190  0.2934  2.4328  2.6146
   41ccc     O1 1084   5.249   5.472   8.270  0.3022  0.3264  0.2705
   41ccc     O2 1085   5.142   5.713   8.172 -0.1869  0.4042 -0.1342
   41ccc     O3 1086   5.171   5.740   7.878  0.6128  0.6452  0.2868
   41ccc     O4 1087   5.293   5.489   7.835 -0.0682  0.1503  0.0836
   41ccc     C6 1088   5.169   5.223   7.871  0.2097 -0.5142 -0.6537
   41ccc     H6 1089   5.269   5.740   7.879  0.6512  2.9841  0.6124
   41ccc     H7 1090   5.302   5.392   7.840 -1.7591 -0.0380 -0.0384
   41ccc     H8 1091   5.124   5.785   8.110  0.0824  0.0595 -0.6188
   41ccc     H9 1092   5.097   5.201   7.792 -1.7036  0.7714  0.6474
   41ccc    H10 1093   5.153   5.147   7.948  0.9964 -1.2557 -1.2027
   41ccc     O5 1094   5.303   5.234   7.828 -0.0482 -0.0201 -0.1508
   41ccc    H11 1095   5.326   5.141   7.812  0.6682 -0.0444  0.9211
   41ccc     O6 1096   5.190   5.365   8.077  0.2373  0.1278  0.1868
   42ccc     C1 1097   6.060   4.778   8.464 -0.4678 -0.0310  0.0556
   42ccc     C2 1098   6.174   4.844   8.546  0.0184  0.3273  0.0034
   42ccc     H1 1099   6.100   4.757   8.364 -1.1160  1.2798 -0.5047
   42ccc     H2 1100   6.264   4.783   8.540  0.3385  0.8113 -0.1485
   42ccc     C3 1101   6.222   4.979   8.490 -0.0435  0.2904 -0.8520
   42ccc     C4 1102   6.107   5.074   8.453 -0.4938  0.1976 -0.2188
   42ccc     C5 1103   5.999   4.997   8.376 -0.6818 -0.2929  0.4842
   42ccc     H3 1104   6.051   5.096   8.545 -2.1011 -2.8137 -0.3520
   42ccc     H4 1105   6.275   4.961   8.395  1.3892 -0.6229  0.0802
   42ccc     H5 1106   6.028   4.971   8.273 -2.3499  2.8356 -0.8989
   42ccc     O1 1107   5.892   5.087   8.376 -0.2909 -0.5962 -0.2320
   42ccc     O2 1108   6.156   5.190   8.386 -0.1270  0.0695 -0.2616
   42ccc     O3 1109   6.311   5.045   8.580  0.2322 -0.3311  0.1128
   42ccc     O4 1110   6.127   4.853   8.683  0.5805 -0.3974 -0.4478
   42ccc     C6 1111   6.031   4.638   8.522 -0.0779 -0.4633  0.7602
   42ccc     H6 1112   6.399   5.005   8.570  1.2252  1.9213 -0.7685
   42ccc     H7 1113   6.205   4.879   8.736 -0.6830  0.1167  1.2409
   42ccc     H8 1114   6.237   5.215   8.433 -0.2273  0.2676 -0.1891
   42ccc     H9 1115   6.007   4.642   8.629 -1.3803 -1.3268  0.5143
   42ccc    H10 1116   6.120   4.575   8.506 -0.4570 -0.9257  0.4579
   42ccc     O5 1117   5.913   4.594   8.450  0.4817  0.7853  0.6017
   42ccc    H11 1118   5.863   4.667   8.409 -1.3980 -1.6113 -1.7172
   42ccc     O6 1119   5.956   4.878   8.451 -0.5578 -0.1422 -0.2865
   43ccc     C1 1120   6.931   6.319   7.138  0.0538  0.4273 -0.4340
   43ccc     C2 1121   6.978   6.354   7.002  0.4392  0.5870 -0.1067
   43ccc     H1 1122   6.964   6.390   7.215 -1.8798  1.8443 -0.8466
   43ccc     H2 1123   6.932   6.452   6.984  0.4947  0.6611  0.1510
   43ccc     C3 1124   7.131   6.369   6.984  0.5211  0.1947  0.1884
   43ccc     C4 1125   7.205   6.242   7.037 -0.2959  0.8276  0.0763
   43ccc     C5 1126   7.144   6.193   7.174  0.0151  0.3070 -0.0424
   43ccc     H3 1127   7.174   6.156   6.976 -1.8446  0.4306  1.3456
   43ccc     H4 1128   7.182   6.445   7.044  1.8019 -0.3221 -0.2091
   43ccc     H5 1129   7.181   6.262   7.251  0.2350  1.7814 -1.4252
   43ccc     O1 1130   7.191   6.059   7.207 -0.2685 -0.2663  0.4854
   43ccc     O2 1131   7.359   6.259   7.041  0.5071 -0.5706 -0.2967
   43ccc     O3 1132   7.149   6.395   6.838  0.5603 -0.2618 -0.1576
   43ccc     O4 1133   6.939   6.252   6.915  0.1144 -0.0453 -0.5916
   43ccc     C6 1134   6.778   6.301   7.144  0.4494  0.1367  0.0549
   43ccc     H6 1135   7.229   6.450   6.831  1.5864 -1.7063 -0.1329
   43ccc     H7 1136   6.990   6.276   6.836 -0.5547  0.0412 -1.0027
   43ccc     H8 1137   7.384   6.328   6.978 -1.1570  1.5665  1.2364
   43ccc     H9 1138   6.753   6.194   7.141 -2.6496  0.7627  0.4559
   43ccc    H10 1139   6.719   6.345   7.062  1.5258 -0.9345 -1.3684
   43ccc     O5 1140   6.744   6.350   7.275 -0.2608  0.1605 -0.0139
   43ccc    H11 1141   6.649   6.335   7.262 -0.1128 -0.7231 -0.1426
   43ccc     O6 1142   6.999   6.190   7.171 -0.1955 -0.1712  0.1759
   44ccc     C1 1143   7.702   5.397   7.983 -0.7951  0.2906  0.0429
   44ccc     C2 1144   7.600   5.369   8.099  0.3774 -0.2017 -0.0193
   44ccc     H1 1145   7.771   5.468   8.031 -0.7550 -0.9192  1.8558
   44ccc     H2 1146   7.656   5.342   8.190  1.3476  1.6581 -0.0128
   44ccc     C3 1147   7.517   5.500   8.129  0.1083  0.3553 -0.3019
   44ccc     C4 1148   7.458   5.559   7.995  0.1755  0.5731 -0.3207
   44ccc     C5 1149   7.571   5.581   7.894  0.2044 -0.3090 -0.3220
   44ccc     H3 1150   7.388   5.489   7.947 -1.0058  1.7957 -0.4361
   44ccc     H4 1151   7.590   5.570   8.171  1.6936 -1.5671  0.3158
   44ccc     H5 1152   7.643   5.649   7.941 -2.8367  2.6470  0.3572
   44ccc     O1 1153   7.510   5.622   7.768  0.0352  0.4301  0.0154
   44ccc     O2 1154   7.393   5.679   8.026  0.2273  0.7068  0.1113
   44ccc     O3 1155   7.414   5.479   8.230  0.1077  0.2097  0.9410
   44ccc     O4 1156   7.516   5.263   8.055  0.3311 -0.1384  0.1001
   44ccc     C6 1157   7.772   5.269   7.943 -0.2484 -0.2298 -0.0413
   44ccc     H6 1158   7.338   5.444   8.181 -0.1036 -2.0511  2.7379
   44ccc     H7 1159   7.565   5.232   7.977 -1.4706 -0.6307 -0.8912
   44ccc     H8 1160   7.468   5.738   8.045  0.6614 -0.2769  1.6374
   44ccc     H9 1161   7.829   5.234   8.030  1.9825 -3.6367 -2.6029
   44ccc    H10 1162   7.849   5.289   7.867  1.2139 -1.2272  1.1084
   44ccc     O5 1163   7.684   5.166   7.891 -0.1415  0.4811 -0.3860
   44ccc    H11 1164   7.709   5.084   7.936 -0.9657  0.8607  0.8280
   44ccc     O6 1165   7.642   5.456   7.868  0.5583 -0.2074  0.4894
   45ccc     C1 1166   6.537   6.380   6.439  0.5216 -0.0981 -0.6715
   45ccc     C2 1167   6.654   6.448   6.515 -0.4626  0.6507  0.7156
   45ccc     H1 1168   6.446   6.409   6.494  0.8043 -0.8985  0.2519
   45ccc     H2 1169   6.636   6.556   6.514 -0.4114  0.6987 -1.5524
   45ccc     C3 1170   6.662   6.408   6.663  0.7306 -0.7152  0.7882
   45ccc     C4 1171   6.674   6.255   6.677 -0.1851  0.2521 -0.3853
   45ccc     C5 1172   6.561   6.189   6.596 -0.5787 -0.8221  0.6677
   45ccc     H3 1173   6.768   6.216   6.637 -0.3782 -0.5488 -0.0682
   45ccc     H4 1174   6.567   6.445   6.705  0.0507  0.7530 -1.8098
   45ccc     H5 1175   6.469   6.211   6.651 -1.1827 -0.0675 -0.6237
   45ccc     O1 1176   6.597   6.054   6.599  0.5580  0.0675  0.1075
   45ccc     O2 1177   6.663   6.225   6.823 -0.1426 -0.2405  0.8339
   45ccc     O3 1178   6.776   6.470   6.716  0.2930 -0.4059 -0.0050
   45ccc     O4 1179   6.773   6.430   6.437 -0.1330  0.3538  0.0307
   45ccc     C6 1180   6.521   6.407   6.293  0.3255  0.6015 -0.2090
   45ccc     H6 1181   6.748   6.542   6.776 -2.2168 -0.2373 -1.2439
   45ccc     H7 1182   6.835   6.462   6.505 -1.6065  0.5196  1.3405
   45ccc     H8 1183   6.752   6.247   6.856  0.2254  1.1601 -0.9673
   45ccc     H9 1184   6.583   6.327   6.251 -0.2732 -0.9423  1.6921
   45ccc    H10 1185   6.553   6.507   6.261 -0.1896  1.1072  0.7968
   45ccc     O5 1186   6.380   6.394   6.272 -0.1392  0.4761  0.3696
   45ccc    H11 1187   6.359   6.416   6.180 -2.0782 -0.4643  0.5331
   45ccc     O6 1188   6.552   6.231   6.456  0.0403 -0.2862 -0.1680
   46ccc     C1 1189   6.382   5.835   5.672 -0.0203 -0.7891  0.2286
   46ccc     C2 1190   6.510   5.874   5.598 -0.3336 -0.4036  0.4330
   46ccc     H1 1191   6.324   5.927   5.686  2.6979  1.1564 -0.4019
   46ccc     H2 1192   6.501   5.925   5.501  4.8955 -0.2812 -0.2428
   46ccc     C3 1193   6.595   5.963   5.697 -0.1210 -0.3325  0.4074
   46ccc     C4 1194   6.607   5.907   5.840  0.0528 -0.6154  0.4892
   46ccc     C5 1195   6.469   5.861   5.893  0.1335  0.6562  0.0467
   46ccc     H3 1196   6.674   5.820   5.843  0.2694 -0.5266 -1.0391
   46ccc     H4 1197   6.533   6.053   5.709  0.0371  0.1622 -2.0580
   46ccc     H5 1198   6.398   5.943   5.909  1.8563  2.1331  0.3517
   46ccc     O1 1199   6.483   5.777   6.007 -0.2723  0.0674 -0.2862
   46ccc     O2 1200   6.668   6.018   5.911 -0.0509  0.6811 -0.1783
   46ccc     O3 1201   6.724   6.005   5.637  0.1224  0.3879 -0.4212
   46ccc     O4 1202   6.579   5.756   5.574 -0.0376 -0.1253 -0.1906
   46ccc     C6 1203   6.296   5.741   5.587 -0.2466  0.2069  0.1888
   46ccc     H6 1204   6.709   6.074   5.570 -1.2208  0.5040 -0.0311
   46ccc     H7 1205   6.506   5.692   5.581  0.5853 -1.0287 -1.4806
   46ccc     H8 1206   6.761   6.015   5.883 -0.2899  0.9102 -1.0086
   46ccc     H9 1207   6.280   5.764   5.481 -1.7148 -3.6322 -0.5830
   46ccc    H10 1208   6.200   5.730   5.640 -0.1445 -0.8351  0.1645
   46ccc     O5 1209   6.367   5.614   5.583 -0.1768  0.6751  0.2437
   46ccc    H11 1210   6.372   5.583   5.491 -1.1211  1.5067 -0.1124
   46ccc     O6 1211   6.404   5.770   5.795  0.0608 -0.2020  0.2720
   47SOL     OW 1212   5.583   3.170   1.879 -0.4203  0.3513  0.1171
   47SOL    HW1 1213   5.565   3.078   1.898 -1.3392  0.2708 -1.0034
   47SOL    HW2 1214   5.644   3.198   1.947 -1.5905 -0.5675  1.6048
   48SOL     OW 1215   6.198   2.570   2.837  0.0754  0.5112  0.2816
   48SOL    HW1 1216   6.201   2.631   2.764  1.8809  0.8869  0.6269
   48SOL    HW2 1217   6.111   2.583   2.877 -1.1047  0.0221 -1.9720
   49SOL     OW 1218   4.342   7.884   1.800 -0.0245 -0.0713  0.2403
   49SOL    HW1 1219   4.263   7.939   1.801 -1.2675 -1.7724 -0.3283
   49SOL    HW2 1220   4.321   7.812   1.741  1.5040 -1.2452  1.0459
   50SOL     OW 1221   7.456   1.611   3.567 -0.2558  0.3209  0.1444
   50SOL    HW1 1222   7.378   1.566   3.535 -0.4480 -0.0473  1.0853
   50SOL    HW2 1223   7.473   1.679   3.502 -1.1230  0.1518 -0.2792
   51SOL     OW 1224   5.668   4.640   3.159  0.4911  0.5916  0.2391
   51SOL    HW1 1225   5.603   4.635   3.089  0.8945  0.4780 -0.1332
   51SOL    HW2 1226   5.618   4.665   3.237 -0.3274 -1.3745  0.4054
   52SOL     OW 1227   3.646   0.577   0.967 -0.2514 -0.1352  0.2766
   52SOL    HW1 1228   3.677   0.656   0.922  1.4084 -0.1191  1.3676
   52SOL    HW2 1229   3.650   0.600   1.060 -0.8356 -1.1285  0.5511
   53SOL     OW 1230   0.697   5.248   2.358 -0.5153 -0.3778  0.1176
   53SOL    HW1 1231   0.685   5.317   2.293 -2.3096  0.0044  0.7872
   53SOL    HW2 1232   0.764   5.282   2.417 -0.1932  0.0635 -0.4886
   54SOL     OW 1233   0.515   2.323   0.381  0.0159 -0.3558  0.2253
   54SOL    HW1 1234   0.525   2.417   0.392  0.3174 -0.4253  0.5604
   54SOL    HW2 1235   0.604   2.291   0.364 -0.0808 -0.5791  0.1349
   55SOL     OW 1236   1.505   0.933   1.140  0.5340 -0.0914 -0.2097
   55SOL    HW1 1237   1.423   0.931   1.091 -0.4957  1.3846  1.3352
   55SOL    HW2 1238   1.573   0.937   1.073 -0.7795  0.9850 -1.5429
   56SOL     OW 1239   4.504   2.250   6.429 -0.1926  0.0817  0.1660
   56SOL    HW1 1240   4.505   2.207   6.514  0.9214  0.0141  0.1360
   56SOL    HW2 1241   4.431   2.209   6.382 -0.6455 -0.0693  0.9852
   57SOL     OW 1242   6.825   0.293   6.437 -0.1027 -0.2650  0.4189
   57SOL    HW1 1243   6.746   0.344   6.415 -0.0634 -0.2661  0.2734
   57SOL    HW2 1244   6.791   0.210   6.469 -0.1965 -1.8301 -3.2177
   58SOL     OW 1245   2.769   1.450   4.064  0.4112  0.1224 -0.1779
   58SOL    HW1 1246   2.785   1.365   4.024  0.0450  0.5757 -1.3390
   58SOL    HW2 1247   2.855   1.490   4.073  0.5716 -0.3257  0.2624
   59SOL     OW 1248   1.536   2.735   7.176 -0.0878  0.3661 -0.2324
   59SOL    HW1 1249   1.514   2.790   7.101 -0.5521  0.9204  0.3046
   59SOL    HW2 1250   1.514   2.788   7.252  0.8753  0.0213  0.3108
   60SOL     OW 1251   4.545   7.760   2.627  0.1703 -0.0180  0.2020
   60SOL    HW1 1252   4.601   7.813   2.570 -0.4456 -1.1527 -1.5825
   60SOL    HW2 1253   4.590   7.757   2.711  0.8203  2.2602 -0.0094
   61SOL     OW 1254   0.859   5.437   3.914 -0.0278  0.7997 -0.0093
   61SOL    HW1 1255   0.946   5.445   3.875 -0.4533  0.9892 -0.9501
   61SOL    HW2 1256   0.835   5.345   3.901  0.0418  0.7382  0.2857
   62SOL     OW 1257   3.691   1.334   6.248  0.1254  0.3999  0.3610
   62SOL    HW1 1258   3.770   1.384   6.228 -0.3130  1.7190  1.6976
   62SOL    HW2 1259   3.699   1.313   6.341 -1.0460  0.5108  0.5115
   63SOL     OW 1260   0.534   4.592   0.313 -0.4592 -0.6185 -0.4298
   63SOL    HW1 1261   0.507   4.681   0.337  0.0823 -0.9247  1.4609
   63SOL    HW2 1262   0.629   4.595   0.310 -0.2231 -1.6991  2.4567
   64SOL     OW 1263   0.612   4.394   3.342 -0.5250 -0.1313 -0.0277
   64SOL    HW1 1264   0.566   4.474   3.367  0.1481  0.4163 -0.5326
   64SOL    HW2 1265   0.605   4.338   3.420  1.0551  1.3180  1.2258
   65SOL     OW 1266   0.498   6.594   0.773 -0.1972 -0.1739 -0.3433
   65SOL    HW1 1267   0.507   6.685   0.744  0.3708 -0.8808 -2.5331
   65SOL    HW2 1268   0.575   6.549   0.737  0.4857 -1.2157  2.1902
   66SOL     OW 1269   1.212   0.120   6.280 -0.3512 -0.5637  0.2200
   66SOL    HW1 1270   1.250   0.172   6.350 -0.6776  0.6623 -0.4810
   66SOL    HW2 1271   1.122   0.150   6.273 -0.5174 -1.1444 -0.2866
   67SOL     OW 1272   4.794   4.566   3.230 -0.1056 -0.4636  0.1297
   67SOL    HW1 1273   4.841   4.624   3.169 -2.8041 -1.1922 -2.9037
   67SOL    HW2 1274   4.706   4.602   3.234 -0.7036 -1.9959  1.5717
   68SOL     OW 1275   7.384   2.929   4.351  0.1876 -0.2205  0.0112
   68SOL    HW1 1276   7.470   2.967   4.368 -0.2015  1.0965 -0.7977
   68SOL    HW2 1277   7.383   2.917   4.256 -1.0374  1.1323 -0.1757
   69SOL     OW 1278   0.498   0.065   6.584 -0.4030 -0.5642 -0.3838
   69SOL    HW1 1279   0.520   0.125   6.512 -2.9224  0.3284 -0.4857
   69SOL    HW2 1280   0.434   0.112   6.637 -0.3599 -2.1127  1.1607
   70SOL     OW 1281   0.747   2.275   0.177  0.3504 -0.1883 -0.0180
   70SOL    HW1 1282   0.795   2.206   0.222  0.5372 -0.1691 -0.1882
   70SOL    HW2 1283   0.678   2.229   0.128  0.8711 -0.3161 -0.6454
   71SOL     OW 1284   3.237   6.637   3.144  0.0881  0.2931 -0.0413
   71SOL    HW1 1285   3.303   6.706   3.149  1.6989 -1.1401 -0.4880
   71SOL    HW2 1286   3.198   6.633   3.231 -0.0373  1.7385 -0.0149
   72SOL     OW 1287   3.044   1.988   7.066  0.0353  0.2272  0.7960
   72SOL    HW1 1288   3.046   2.079   7.034  2.7307  0.3399  1.0702
   72SOL    HW2 1289   2.955   1.958   7.045 -0.0821  2.0160 -1.8931
   73SOL     OW 1290   4.832   1.300   3.329  0.9097 -0.5622  0.0810
   73SOL    HW1 1291   4.785   1.255   3.259 -0.5988  0.0690  0.6521
   73SOL    HW2 1292   4.814   1.393   3.316  1.0572 -0.3925  0.9876
   74SOL     OW 1293   2.740   6.656   3.519 -0.3410  0.2424  0.1338
   74SOL    HW1 1294   2.681   6.675   3.447 -1.1510  2.1667  1.2255
   74SOL    HW2 1295   2.686   6.667   3.598  0.8908 -0.2875  1.0909
   75SOL     OW 1296   4.737   6.545   6.866 -0.0372 -0.2799 -0.1204
   75SOL    HW1 1297   4.759   6.469   6.921  0.3852  0.2983  0.5246
   75SOL    HW2 1298   4.643   6.558   6.881  0.5323  1.5035  2.6350
   76SOL     OW 1299   1.250   7.467   4.556 -0.3634 -0.1679 -0.1405
   76SOL    HW1 1300   1.326   7.440   4.607 -1.3470  0.1943  1.5685
   76SOL    HW2 1301   1.231   7.556   4.585 -0.4149  0.4145 -1.8247
   77SOL     OW 1302   4.390   5.264   6.753  0.2208  0.1390  0.1907
   77SOL    HW1 1303   4.483   5.243   6.745  0.0243 -1.0532  0.8279
   77SOL    HW2 1304   4.360   5.211   6.826 -0.4431  2.3491  1.6106
   78SOL     OW 1305   7.828   1.832   6.033 -0.1162 -0.7506  0.3460
   78SOL    HW1 1306   7.840   1.738   6.022 -0.6488 -0.6765 -1.1445
   78SOL    HW2 1307   7.873   1.871   5.958  0.0554  0.1846  0.9133
   79SOL     OW 1308   3.856   7.073   7.687  0.0948 -0.2191 -0.0204
   79SOL    HW1 1309   3.800   7.108   7.618 -0.0817 -1.0804 -0.3241
   79SOL    HW2 1310   3.819   6.987   7.706  0.0720  0.0536  1.2351
   80SOL     OW 1311   0.069   6.911   0.122 -0.2762 -0.1002  0.4067
   80SOL    HW1 1312   0.004   6.850   0.157 -0.6587 -0.0254 -0.1503
   80SOL    HW2 1313   0.046   6.995   0.162 -1.3869  0.2133 -0.8040
   81SOL     OW 1314   4.583   5.020   2.687  0.5903  1.0141 -0.5862
   81SOL    HW1 1315   4.577   4.959   2.613 -0.3349  1.3736 -0.8280
   81SOL    HW2 1316   4.559   5.105   2.649  0.3185  1.2394  0.0832
   82SOL     OW 1317   7.904   1.772   1.753 -0.2923  0.5888 -0.3618
   82SOL    HW1 1318   7.941   1.792   1.667  1.2443 -0.9830 -0.1227
   82SOL    HW2 1319   7.866   1.684   1.743 -0.4045  0.5316  0.4735
   83SOL     OW 1320   2.476   5.886   1.583  0.3467 -0.1945 -0.1701
   83SOL    HW1 1321   2.571   5.892   1.577  0.1891  1.4109 -1.8727
   83SOL    HW2 1322   2.452   5.814   1.525  0.4338  0.5441 -1.1500
   84SOL     OW 1323   4.914   1.195   1.222  0.1535 -0.2702  0.0082
   84SOL    HW1 1324   4.946   1.150   1.300  2.7204  0.4879 -0.5222
   84SOL    HW2 1325   4.834   1.148   1.199  0.1929 -1.5349  2.1326
   85SOL     OW 1326   0.724   1.731   5.112 -0.1819  0.1103  0.6370
   85SOL    HW1 1327   0.810   1.697   5.087 -0.3962 -0.0796  0.1355
   85SOL    HW2 1328   0.671   1.722   5.033 -1.3893 -2.1245  1.6048
   86SOL     OW 1329   2.641   8.018   1.788 -0.0844 -0.5106 -0.0875
   86SOL    HW1 1330   2.588   8.068   1.726 -0.2201 -1.3208 -0.6331
   86SOL    HW2 1331   2.580   7.960   1.832  0.1131 -0.3750  0.3795
   87SOL     OW 1332   7.735   1.696   6.320 -0.4062  0.2825 -0.1473
   87SOL    HW1 1333   7.753   1.776   6.370 -1.5725  1.5796 -1.6781
   87SOL    HW2 1334   7.640   1.689   6.319 -0.3309 -0.8509 -0.4808
   88SOL     OW 1335   2.028   1.786   4.759  0.2817  0.6370 -0.0728
   88SOL    HW1 1336   2.051   1.859   4.701 -0.7452  1.6866  0.7896
   88SOL    HW2 1337   2.080   1.800   4.838  0.5621  0.0618 -0.1521
   89SOL     OW 1338   1.998   3.437   1.978  0.5042 -0.1499  0.1229
   89SOL    HW1 1339   2.008   3.513   2.035 -0.1661  0.0913 -0.0747
   89SOL    HW2 1340   2.088   3.409   1.960  0.7308 -0.5065  1.6475
   90SOL     OW 1341   1.912   6.150   4.904  0.4627 -0.0370 -0.6450
   90SOL    HW1 1342   1.953   6.221   4.855 -0.5734  1.0354  0.0043
   90SOL    HW2 1343   1.869   6.096   4.837 -2.0677  2.1415 -0.9222
   91SOL     OW 1344   7.194   4.405   5.737  0.1587 -0.0138  0.3319
   91SOL    HW1 1345   7.269   4.433   5.790  1.1746  0.4169 -1.2483
   91SOL    HW2 1346   7.225   4.327   5.691 -0.7257 -0.4398  0.4538
   92SOL     OW 1347   4.889   1.182   6.610  0.2979 -0.1835 -0.3013
   92SOL    HW1 1348   4.923   1.175   6.521  2.5737 -0.4059  0.5007
   92SOL    HW2 1349   4.844   1.266   6.612 -1.3223 -0.9427 -2.0921
   93SOL     OW 1350   5.593   6.831   5.206  0.5691 -0.1592  0.1042
   93SOL    HW1 1351   5.544   6.806   5.127  0.8109 -1.7860  0.4499
   93SOL    HW2 1352   5.527   6.834   5.275  0.5858 -0.0922  0.1174
   94SOL     OW 1353   3.546   0.442   1.292 -0.1348  0.1373 -0.0401
   94SOL    HW1 1354   3.575   0.533   1.288 -0.7533  0.3815  0.8073
   94SOL    HW2 1355   3.627   0.391   1.292  0.2071  0.6559 -0.9687
   95SOL     OW 1356   4.649   1.502   4.188  0.0729 -0.2343  0.4036
   95SOL    HW1 1357   4.563   1.485   4.227 -0.2860 -0.9080 -0.6319
   95SOL    HW2 1358   4.645   1.458   4.102  1.3124  0.0544  0.1859
   96SOL     OW 1359   6.980   2.133   0.543  0.3703 -0.7149 -0.3647
   96SOL    HW1 1360   6.954   2.075   0.615 -0.9372  0.1848 -0.0676
   96SOL    HW2 1361   7.045   2.192   0.582 -0.6169  0.0190  0.2153
   97SOL     OW 1362   5.029   6.600   4.213 -0.2008 -0.0904 -0.2316
   97SOL    HW1 1363   5.084   6.670   4.249 -0.6720  1.5165 -2.4104
   97SOL    HW2 1364   5.088   6.550   4.156 -0.0950 -0.9006  0.5697
   98SOL     OW 1365   7.440   3.277   5.540  0.3924 -0.0317  0.1753
   98SOL    HW1 1366   7.448   3.195   5.588 -0.8799 -0.4145 -0.2297
   98SOL    HW2 1367   7.499   3.267   5.465 -0.9529 -1.2721 -0.7698
   99SOL     OW 1368   3.361   3.950   0.296  0.0849  0.9220  0.2090
   99SOL    HW1 1369   3.453   3.955   0.319  0.4050 -0.5849 -0.6116
   99SOL    HW2 1370   3.315   3.940   0.379  0.8017  0.1883  0.5223
  100SOL     OW 1371   5.822   7.373   0.954 -0.1936 -0.4821 -0.2865
  100SOL    HW1 1372   5.737   7.398   0.917  0.5447  1.1614 -0.9580
  100SOL    HW2 1373   5.834   7.434   1.027  0.7861 -0.1384 -0.7295
  101SOL     OW 1374   7.050   1.754   0.518  0.0477  0.8160 -0.5188
  101SOL    HW1 1375   7.026   1.798   0.436  0.7242  0.2367 -1.0400
  101SOL    HW2 1376   6.992   1.679   0.524  0.0275  0.8340 -0.4877
  102SOL     OW 1377   3.804   7.769   3.157 -0.1819  0.5027  0.0894
  102SOL    HW1 1378   3.863   7.783   3.231 -0.7043  1.5153  0.3206
  102SOL    HW2 1379   3.850   7.806   3.082  1.1716 -2.1218 -0.5088
  103SOL     OW 1380   1.527   0.387   2.368  0.1299 -0.0170 -0.5181
  103SOL    HW1 1381   1.489   0.475   2.365  3.5847  1.6525 -0.5760
  103SOL    HW2 1382   1.548   0.368   2.277 -2.0252 -1.7222 -0.7391
  104SOL     OW 1383   4.329   8.151   1.585 -0.1433  0.1754  0.3958
  104SOL    HW1 1384   4.307   8.195   1.502  1.5448 -1.2247 -0.8805
  104SOL    HW2 1385   4.284   8.067   1.579 -0.1133  0.1133  0.9907
  105SOL     OW 1386   6.451   1.833   2.344  0.1833 -0.1069 -0.0768
  105SOL    HW1 1387   6.385   1.800   2.405 -2.1350 -1.4496 -3.0164
  105SOL    HW2 1388   6.453   1.928   2.360  0.5339 -0.5062  2.7271
  106SOL     OW 1389   1.590   5.988   6.418 -0.0412  0.2818 -0.0607
  106SOL    HW1 1390   1.544   5.995   6.502  0.2058  2.0391 -0.0304
  106SOL    HW2 1391   1.682   5.977   6.441 -0.1934 -1.3525 -0.1272
  107SOL     OW 1392   2.490   3.284   0.543  0.0261  0.1012  0.1964
  107SOL    HW1 1393   2.500   3.306   0.636  0.6302 -1.8347  0.6312
  107SOL    HW2 1394   2.526   3.359   0.497 -0.0975  1.0115  1.5229
  108SOL     OW 1395   1.384   1.305   3.674 -0.0898  0.2928 -0.1488
  108SOL    HW1 1396   1.318   1.361   3.635 -2.2523 -0.7195  1.8276
  108SOL    HW2 1397   1.464   1.325   3.626 -1.8692  1.2777 -2.9501
  109SOL     OW 1398   0.171   3.857   3.357 -0.0664 -0.2225 -0.4462
  109SOL    HW1 1399   0.091   3.808   3.375  0.6619 -1.1778  0.2763
  109SOL    HW2 1400   0.152   3.946   3.386 -1.7501  0.2447 -2.6527
  110SOL     OW 1401   1.098   2.623   2.984 -0.0583  0.1213 -0.2265
  110SOL    HW1 1402   1.054   2.691   3.034 -0.5823 -0.7223  0.4902
  110SOL    HW2 1403   1.184   2.615   3.026  0.7995  1.6962 -1.5617
  111SOL     OW 1404   4.911   3.222   2.564 -0.1885 -0.1284  0.2347
  111SOL    HW1 1405   4.833   3.188   2.520 -1.0350  0.9278  0.8408
  111SOL    HW2 1406   4.968   3.251   2.493 -0.2917 -1.0093 -0.2233
  112SOL     OW 1407   5.584   2.584   0.265 -0.3531 -0.2800  0.0278
  112SOL    HW1 1408   5.529   2.631   0.202  0.5448  2.4273  1.0862
  112SOL    HW2 1409   5.529   2.575   0.343  0.2944  1.6050  0.7677
  113SOL     OW 1410   2.770   1.980   5.372  0.0646  0.0061  0.0136
  113SOL    HW1 1411   2.821   1.914   5.326 -1.7478 -0.5953 -1.2404
  113SOL    HW2 1412   2.682   1.942   5.379 -0.5478  1.4977  1.0055
  114SOL     OW 1413   1.671   3.957   5.744  0.3934 -0.0078  0.3557
  114SOL    HW1 1414   1.662   3.912   5.828  1.5187  0.4721  0.7410
  114SOL    HW2 1415   1.729   3.901   5.693  1.9068  1.0060  0.8830
  115SOL     OW 1416   0.527   1.903   4.892  0.8012 -0.2098 -0.4553
  115SOL    HW1 1417   0.544   1.928   4.801 -0.3253  2.0360 -0.1129
  115SOL    HW2 1418   0.581   1.962   4.944  0.3383 -0.4787  0.3538
  116SOL     OW 1419   0.868   6.581   7.959 -0.1691 -0.2700 -0.0888
  116SOL    HW1 1420   0.773   6.568   7.957 -0.3263  0.5047  1.1256
  116SOL    HW2 1421   0.880   6.675   7.965  0.6211 -0.4087  0.9720
  117SOL     OW 1422   0.377   8.124   1.667  0.0555  0.5118  0.4242
  117SOL    HW1 1423   0.302   8.069   1.688  0.6481 -0.1671  0.8199
  117SOL    HW2 1424   0.439   8.065   1.625  0.1391  1.1911 -0.4356
  118SOL     OW 1425   7.321   2.455   6.861 -0.4208 -0.0889 -0.2588
  118SOL    HW1 1426   7.374   2.449   6.782 -0.2613 -0.2027 -0.1435
  118SOL    HW2 1427   7.370   2.513   6.919 -0.2280 -0.5025 -0.0004
  119SOL     OW 1428   0.381   5.779   1.320  0.6413  0.1754 -0.0215
  119SOL    HW1 1429   0.301   5.741   1.284  1.4958  0.1714 -2.0084
  119SOL    HW2 1430   0.447   5.711   1.309  1.2046  0.6279  0.4897
  120SOL     OW 1431   1.281   3.538   7.678  0.2658  0.2569  0.3104
  120SOL    HW1 1432   1.347   3.583   7.731 -0.6677  1.3113  0.6199
  120SOL    HW2 1433   1.221   3.499   7.741  0.8443 -1.1535  0.0374
  121SOL     OW 1434   8.038   2.656   4.776  0.0589 -0.2961 -0.1081
  121SOL    HW1 1435   8.100   2.665   4.704 -0.2328 -0.7670 -0.4321
  121SOL    HW2 1436   7.993   2.740   4.780  1.3831  0.3892  0.7729
  122SOL     OW 1437   0.023   1.745   5.452 -0.2727 -0.2492  0.2386
  122SOL    HW1 1438  -0.036   1.809   5.492 -0.2593 -0.9889  1.5313
  122SOL    HW2 1439  -0.035   1.675   5.422 -0.1073 -0.8625  1.2882
  123SOL     OW 1440   5.734   5.566   2.521  0.3521 -0.2030  0.3573
  123SOL    HW1 1441   5.787   5.522   2.455  1.5874  3.0925 -1.0527
  123SOL    HW2 1442   5.794   5.628   2.562 -1.8186  2.0049  0.3793
  124SOL     OW 1443   6.505   6.048   4.346 -0.0864 -0.5529 -0.1578
  124SOL    HW1 1444   6.469   6.026   4.432 -1.6990 -0.0695 -0.6640
  124SOL    HW2 1445   6.428   6.060   4.290  0.8700  0.6324 -1.3024
  125SOL     OW 1446   7.558   0.226   2.468 -0.0147 -0.2063 -0.1876
  125SOL    HW1 1447   7.617   0.279   2.414 -0.1402 -2.0397 -2.3232
  125SOL    HW2 1448   7.507   0.175   2.404 -0.5624 -2.1626  1.6854
  126SOL     OW 1449   2.581   1.278   3.777 -0.1887  0.3842 -0.9803
  126SOL    HW1 1450   2.524   1.313   3.845  0.7792 -0.6089  0.4011
  126SOL    HW2 1451   2.579   1.344   3.707 -2.7376  0.5073 -0.8580
  127SOL     OW 1452   5.686   3.103   6.628  0.1637  0.2360  0.3273
  127SOL    HW1 1453   5.781   3.101   6.634  0.1127 -0.1311  1.2577
  127SOL    HW2 1454   5.656   3.091   6.718 -0.7567  0.9552  0.1346
  128SOL     OW 1455   4.024   2.053   1.994  0.1870  0.1986 -0.5113
  128SOL    HW1 1456   3.982   1.967   2.003  0.7833 -0.0299  0.1742
  128SOL    HW2 1457   4.086   2.041   1.922  1.9771 -0.6713  1.0881
  129SOL     OW 1458   3.473   1.510   3.784 -0.2485 -0.4467 -0.1976
  129SOL    HW1 1459   3.382   1.526   3.808 -0.5650 -0.0567 -1.5817
  129SOL    HW2 1460   3.490   1.419   3.810 -1.0237 -0.5163  0.0761
  130SOL     OW 1461   5.600   5.309   2.549 -0.0883  0.3044 -0.1948
  130SOL    HW1 1462   5.676   5.261   2.516 -0.8682 -0.0508 -1.5637
  130SOL    HW2 1463   5.627   5.400   2.546  0.9846  0.0622  1.2738
  131SOL     OW 1464   5.645   0.765   1.720  0.0652  0.0768  0.6385
  131SOL    HW1 1465   5.584   0.787   1.649  0.3258  0.3177  0.4888
  131SOL    HW2 1466   5.653   0.670   1.715  0.3388  0.1238  0.1304
  132SOL     OW 1467   2.179   2.606   1.894 -0.1352 -0.0397  0.4097
  132SOL    HW1 1468   2.163   2.697   1.920 -1.6684  0.0060 -0.5447
  132SOL    HW2 1469   2.235   2.614   1.817 -0.7418  0.1523 -0.0247
  133SOL     OW 1470   6.870   3.197   1.048  0.0107  0.1534 -0.1679
  133SOL    HW1 1471   6.814   3.264   1.008 -1.1941 -0.6459  0.1477
  133SOL    HW2 1472   6.947   3.246   1.078  0.2793  1.0188 -2.0878
  134SOL     OW 1473   7.877   7.825   3.826 -0.1732 -0.3718 -0.0978
  134SOL    HW1 1474   7.927   7.874   3.760 -1.3473  1.0276 -0.0062
  134SOL    HW2 1475   7.937   7.816   3.900 -0.1552  1.6904  0.1930
  135SOL     OW 1476   2.875   7.979   1.048 -0.2136 -0.5517 -0.4600
  135SOL    HW1 1477   2.942   8.036   1.086 -0.2120  0.0329 -1.3010
  135SOL    HW2 1478   2.923   7.901   1.022 -0.4760 -1.6652  2.1227
  136SOL     OW 1479   3.669   6.294   4.568  0.3534  0.0613  0.1197
  136SOL    HW1 1480   3.678   6.372   4.514 -0.7736  0.4039  0.4131
  136SOL    HW2 1481   3.638   6.226   4.508  1.3012 -0.1737 -0.1284
  137SOL     OW 1482   5.044   6.507   3.104 -0.3725 -0.4138  0.8869
  137SOL    HW1 1483   5.063   6.427   3.152  0.9960 -0.3090  0.5404
  137SOL    HW2 1484   5.119   6.564   3.121 -1.0979  0.6209  0.7408
  138SOL     OW 1485   0.596   7.522   7.423  0.2016 -0.1402 -0.2933
  138SOL    HW1 1486   0.672   7.558   7.379  1.6625 -1.3561  1.1267
  138SOL    HW2 1487   0.555   7.464   7.359  1.1404 -0.3514 -0.7070
  139SOL     OW 1488   4.397   0.730   3.462  0.3194 -0.2337 -0.1231
  139SOL    HW1 1489   4.440   0.650   3.433  1.4198 -0.0232  0.8463
  139SOL    HW2 1490   4.467   0.796   3.463 -0.2195  0.3469  0.6281
  140SOL     OW 1491   3.090   6.669   7.347  0.0089  0.0966  0.1566
  140SOL    HW1 1492   3.109   6.762   7.349  0.8542 -0.0838  1.4493
  140SOL    HW2 1493   3.145   6.631   7.416 -0.4728 -1.3273 -0.1979
  141SOL     OW 1494   6.564   6.509   3.197 -0.1739  0.6702  0.0979
  141SOL    HW1 1495   6.600   6.586   3.151  2.3374 -0.9217 -0.8067
  141SOL    HW2 1496   6.613   6.435   3.161 -3.1931 -1.5528  0.1880
  142SOL     OW 1497   4.576   7.195   6.024  0.2270 -0.0431  0.6899
  142SOL    HW1 1498   4.540   7.106   6.027  0.0394  0.0346  0.7644
  142SOL    HW2 1499   4.667   7.183   5.997  0.2010 -0.2574  0.6931
  143SOL     OW 1500   2.534   4.817   7.092 -0.4890  0.3032 -0.2854
  143SOL    HW1 1501   2.567   4.901   7.125 -0.7623 -0.2605  1.5353
  143SOL    HW2 1502   2.528   4.829   6.997 -0.8698  2.4651 -0.0401
  144SOL     OW 1503   7.874   2.844   3.500  0.2061 -0.5725  0.1732
  144SOL    HW1 1504   7.841   2.754   3.493  2.4683 -1.6023  1.5148
  144SOL    HW2 1505   7.798   2.899   3.482 -1.5450 -2.7575  0.4377
  145SOL     OW 1506   7.927   0.347   3.570 -0.1225  0.4398 -0.6289
  145SOL    HW1 1507   7.927   0.382   3.481 -0.4823 -0.1607 -0.8706
  145SOL    HW2 1508   7.909   0.253   3.560 -1.0352  0.5088  0.1284
  146SOL     OW 1509   2.847   5.335   7.367  0.1574 -0.7679 -0.3320
  146SOL    HW1 1510   2.900   5.388   7.427  0.7603 -3.3431  1.5591
  146SOL    HW2 1511   2.771   5.309   7.419  0.1668 -2.2046 -1.0076
  147SOL     OW 1512   1.589   5.986   3.229  0.1195 -0.0669 -0.2047
  147SOL    HW1 1513   1.511   5.935   3.250  0.3750  0.4082  2.1709
  147SOL    HW2 1514   1.648   5.924   3.186 -0.8114 -0.9139 -0.2966
  148SOL     OW 1515   1.224   6.318   5.179 -0.2385  0.2242  0.0419
  148SOL    HW1 1516   1.302   6.263   5.173 -0.5856 -0.3894  0.8993
  148SOL    HW2 1517   1.157   6.261   5.216 -1.1082  0.7430 -0.6874
  149SOL     OW 1518   0.583   3.071   7.915  0.3394  1.1764  0.5221
  149SOL    HW1 1519   0.594   3.161   7.948  0.0266  0.9042  1.4044
  149SOL    HW2 1520   0.654   3.060   7.851  1.5442  1.4440  1.7562
  150SOL     OW 1521   6.986   2.423   3.265 -0.3458 -0.3359 -0.2141
  150SOL    HW1 1522   6.947   2.502   3.226 -1.3680 -0.9997 -0.5776
  150SOL    HW2 1523   7.016   2.451   3.352 -2.3681  0.0465  0.4155
  151SOL     OW 1524   5.994   2.002   6.544 -0.9355  0.0313 -0.0726
  151SOL    HW1 1525   5.916   2.055   6.528 -2.5075 -2.3691 -0.9530
  151SOL    HW2 1526   5.990   1.982   6.638 -0.7987  0.7456  0.0888
  152SOL     OW 1527   4.929   2.759   7.732  0.1424  0.3849  0.6609
  152SOL    HW1 1528   4.964   2.848   7.729 -0.3934  0.7074  2.4546
  152SOL    HW2 1529   4.835   2.769   7.719  0.3034 -0.1846 -1.2848
  153SOL     OW 1530   0.703   7.005   6.151  0.0120 -0.0441 -0.2877
  153SOL    HW1 1531   0.650   6.980   6.227  0.3059 -1.0730 -0.4134
  153SOL    HW2 1532   0.641   7.010   6.079 -0.1578  0.2908 -0.1238
  154SOL     OW 1533   0.265   0.134   1.063 -0.7470  0.0653  0.8920
  154SOL    HW1 1534   0.357   0.111   1.077 -0.3116  1.2432  0.1484
  154SOL    HW2 1535   0.235   0.072   0.996 -0.2726  0.1285  0.6136
  155SOL     OW 1536   5.691   5.552   5.768 -0.6953 -0.0721  0.4684
  155SOL    HW1 1537   5.673   5.467   5.728 -0.7484 -0.6113  1.6035
  155SOL    HW2 1538   5.607   5.579   5.805 -0.4791  0.0631  0.8657
  156SOL     OW 1539   3.429   0.828   5.918  0.0192 -0.3272 -0.2600
  156SOL    HW1 1540   3.423   0.766   5.990 -0.1174 -1.2386 -1.0467
  156SOL    HW2 1541   3.523   0.834   5.899  0.0101 -0.5110 -0.3663
  157SOL     OW 1542   7.569   4.350   4.503  0.6889 -0.0928 -0.5222
  157SOL    HW1 1543   7.616   4.392   4.575  2.4958 -1.5647 -0.7381
  157SOL    HW2 1544   7.522   4.421   4.460 -1.3902  0.6864  2.6837
  158SOL     OW 1545   5.013   2.530   4.871 -0.1135  0.2430  0.0032
  158SOL    HW1 1546   5.066   2.559   4.797  0.3282 -1.2512 -0.2894
  158SOL    HW2 1547   4.926   2.514   4.834 -0.1530  0.4467  0.0076
  159SOL     OW 1548   6.049   2.943   1.771  0.5782  0.5174  0.7227
  159SOL    HW1 1549   5.988   2.935   1.698  1.1678 -1.8818  0.3965
  159SOL    HW2 1550   6.135   2.930   1.732  0.8867 -1.0435  1.8320
  160SOL     OW 1551   3.224   0.210   4.968 -0.0739 -0.1510  0.3421
  160SOL    HW1 1552   3.292   0.268   4.935 -0.0111  0.4854  1.5371
  160SOL    HW2 1553   3.271   0.135   5.004 -0.0785 -0.3414 -0.0525
  161SOL     OW 1554   1.071   7.429   0.313  0.1523 -0.0310 -0.1348
  161SOL    HW1 1555   1.089   7.434   0.219 -2.4795  0.1227 -0.7253
  161SOL    HW2 1556   1.120   7.353   0.343  1.5674  0.3098 -1.4861
  162SOL     OW 1557   3.922   3.060   1.785 -0.2676 -0.8373 -0.5772
  162SOL    HW1 1558   3.828   3.048   1.801 -0.9028  1.7703 -1.7892
  162SOL    HW2 1559   3.955   3.103   1.864 -0.3465 -0.7326 -0.6008
  163SOL     OW 1560   8.072   0.783   3.223 -0.2239 -0.1321 -0.2203
  163SOL    HW1 1561   7.986   0.766   3.262  0.2225 -0.0483  0.8472
  163SOL    HW2 1562   8.059   0.771   3.129 -1.5167  0.3684 -0.1269
  164SOL     OW 1563   2.211   0.162   3.397  0.2982 -0.0699 -0.3450
  164SOL    HW1 1564   2.177   0.100   3.333  0.8416  0.4570 -1.1556
  164SOL    HW2 1565   2.290   0.121   3.431 -0.8310 -1.0858  1.2049
  165SOL     OW 1566   5.375   5.706   5.713  0.2818  0.3365  0.1788
  165SOL    HW1 1567   5.366   5.657   5.795  1.9170 -0.7138 -0.2243
  165SOL    HW2 1568   5.460   5.750   5.721  0.6031 -0.0155 -1.0528
  166SOL     OW 1569   6.588   7.460   1.118  0.6136  0.3693  0.0904
  166SOL    HW1 1570   6.507   7.444   1.167  0.5385 -1.4640 -0.5617
  166SOL    HW2 1571   6.630   7.532   1.165 -1.1547  1.0310  0.7254
  167SOL     OW 1572   5.399   4.982   6.756  0.2550 -0.0053 -0.3273
  167SOL    HW1 1573   5.468   4.919   6.777  0.8751  0.7699 -0.0057
  167SOL    HW2 1574   5.377   4.963   6.664  0.5267 -0.5969 -0.2782
  168SOL     OW 1575   4.613   7.552   6.995  0.2179  0.2208  0.4676
  168SOL    HW1 1576   4.621   7.477   7.054 -0.5231  1.3261  2.0584
  168SOL    HW2 1577   4.589   7.625   7.053  1.0212  1.7105 -1.0017
  169SOL     OW 1578   6.989   7.168   8.114  0.4829 -0.5739  0.1044
  169SOL    HW1 1579   7.053   7.102   8.087  1.7819  0.4559  0.5691
  169SOL    HW2 1580   7.034   7.252   8.099 -0.3619  0.1369  1.4276
  170SOL     OW 1581   2.806   7.238   7.944  0.1766  0.3868 -0.2753
  170SOL    HW1 1582   2.798   7.151   7.982  0.0548  1.2177  1.6871
  170SOL    HW2 1583   2.881   7.231   7.884  0.1577 -1.0500 -0.1649
  171SOL     OW 1584   6.866   4.876   7.952 -0.4179  0.6202  0.1870
  171SOL    HW1 1585   6.837   4.929   7.877 -0.5175 -1.8907 -1.6779
  171SOL    HW2 1586   6.801   4.806   7.958  0.4884 -0.1383  1.6140
  172SOL     OW 1587   4.948   2.520   1.900 -0.0009  0.4804  0.4913
  172SOL    HW1 1588   4.997   2.439   1.886 -1.3932 -0.1526 -1.2447
  172SOL    HW2 1589   4.969   2.546   1.989  3.6082  0.4232 -0.1897
  173SOL     OW 1590   1.906   4.920   6.803  0.0078  0.8273  0.4313
  173SOL    HW1 1591   1.890   4.895   6.712  1.9317 -1.8842  0.7286
  173SOL    HW2 1592   1.996   4.954   6.802  0.9279 -1.3983  1.6148
  174SOL     OW 1593   6.082   1.487   5.056 -0.1019  0.2931 -0.6192
  174SOL    HW1 1594   6.120   1.546   5.120 -0.0233 -0.3137 -0.0996
  174SOL    HW2 1595   6.019   1.435   5.105  1.1909 -1.3638 -0.6321
  175SOL     OW 1596   5.601   4.460   6.654 -0.4924  0.0719  0.2239
  175SOL    HW1 1597   5.678   4.457   6.599 -0.5675  1.6812 -0.0343
  175SOL    HW2 1598   5.627   4.416   6.735  0.5494  0.2128 -0.0247
  176SOL     OW 1599   2.857   0.580   3.319  0.1873 -0.1151  0.1570
  176SOL    HW1 1600   2.765   0.608   3.318  0.2476  0.1134  0.7358
  176SOL    HW2 1601   2.862   0.512   3.252 -0.5560 -0.5766  0.5492
  177SOL     OW 1602   5.482   7.073   5.572  0.2614 -0.1626  0.1356
  177SOL    HW1 1603   5.494   6.981   5.550  0.6863  0.0259 -0.4127
  177SOL    HW2 1604   5.391   7.078   5.603  0.3806 -0.8481  0.6232
  178SOL     OW 1605   1.414   2.514   6.599  0.1193 -0.0443  0.1929
  178SOL    HW1 1606   1.370   2.598   6.612 -0.3682 -0.4047  0.8888
  178SOL    HW2 1607   1.453   2.521   6.512 -0.1784  0.7856  0.1183
  179SOL     OW 1608   5.501   4.027   2.114  0.3228 -0.2744 -0.0945
  179SOL    HW1 1609   5.536   3.959   2.171 -0.1435  0.2605  0.8533
  179SOL    HW2 1610   5.412   4.042   2.147  0.0918  0.1415 -0.8786
  180SOL     OW 1611   7.179   5.080   0.610  0.0221 -0.1187  0.2553
  180SOL    HW1 1612   7.185   5.027   0.530 -1.6219 -0.4550  0.3201
  180SOL    HW2 1613   7.255   5.138   0.605  1.2859 -1.7200 -0.3676
  181SOL     OW 1614   2.242   3.410   1.709  0.0369  0.4386  0.2648
  181SOL    HW1 1615   2.239   3.505   1.719  1.3938  0.7868 -1.8886
  181SOL    HW2 1616   2.334   3.391   1.688 -0.3813 -1.2400 -0.2134
  182SOL     OW 1617   1.304   2.519   0.652 -0.2037 -0.4739 -0.4761
  182SOL    HW1 1618   1.395   2.492   0.645 -0.1253 -0.3995  0.1929
  182SOL    HW2 1619   1.304   2.610   0.622  0.4366  0.4219  2.0239
  183SOL     OW 1620   7.752   3.683   7.516  0.1925 -0.3277  0.1054
  183SOL    HW1 1621   7.835   3.651   7.550  0.4654 -1.3248 -1.4317
  183SOL    HW2 1622   7.767   3.695   7.422 -1.6909 -1.5813 -0.4064
  184SOL     OW 1623   3.687   2.878   0.761 -0.6475  0.0881  0.2758
  184SOL    HW1 1624   3.688   2.829   0.679  0.2528 -0.7330  0.7437
  184SOL    HW2 1625   3.632   2.954   0.744  0.2597  0.4225 -1.3763
  185SOL     OW 1626   0.240   4.267   7.447  0.1842 -0.2957  0.2128
  185SOL    HW1 1627   0.276   4.267   7.358 -1.8215  0.8081 -0.6852
  185SOL    HW2 1628   0.191   4.185   7.453  0.2609 -0.3373  0.2697
  186SOL     OW 1629   6.837   7.691   0.919  0.1166 -0.1248 -0.2318
  186SOL    HW1 1630   6.901   7.630   0.956  2.7487  0.4778 -3.3663
  186SOL    HW2 1631   6.786   7.637   0.858  0.6726  0.2237 -1.0252
  187SOL     OW 1632   1.518   7.328   4.210 -1.0569  0.1223  0.4633
  187SOL    HW1 1633   1.473   7.303   4.290 -1.3870  0.1451  0.2906
  187SOL    HW2 1634   1.467   7.402   4.176 -0.6373  0.4212  0.4847
  188SOL     OW 1635   6.363   1.095   2.459  0.0567 -0.0280  0.2046
  188SOL    HW1 1636   6.274   1.106   2.493 -0.0309 -1.2808  0.4190
  188SOL    HW2 1637   6.363   1.142   2.376 -0.1512  1.8374  1.1875
  189SOL     OW 1638   2.755   6.660   4.109  0.6068 -0.1469 -0.0783
  189SOL    HW1 1639   2.787   6.594   4.048 -1.0020 -1.1812  0.1160
  189SOL    HW2 1640   2.709   6.724   4.054  0.2359 -0.4097 -0.0804
  190SOL     OW 1641   3.697   7.795   5.511  0.6528  0.0984 -0.0491
  190SOL    HW1 1642   3.759   7.808   5.583 -0.0716  0.5797  0.5092
  190SOL    HW2 1643   3.634   7.867   5.520 -0.0805 -0.4659 -0.4917
  191SOL     OW 1644   1.853   5.106   0.132  0.1669 -0.1724  0.0934
  191SOL    HW1 1645   1.774   5.137   0.088 -0.0336 -0.5792  0.1580
  191SOL    HW2 1646   1.833   5.015   0.155  0.5795 -0.2160  0.2874
  192SOL     OW 1647   0.349   0.707   3.411  1.0821 -0.0102  0.0476
  192SOL    HW1 1648   0.363   0.615   3.392  1.0845  0.1845 -0.9477
  192SOL    HW2 1649   0.435   0.739   3.439  0.8204 -0.5589  1.5751
  193SOL     OW 1650   4.905   0.811   5.437  0.2078  0.3500  0.7127
  193SOL    HW1 1651   4.958   0.853   5.368 -1.3162  2.4351  0.7054
  193SOL    HW2 1652   4.899   0.877   5.505 -2.3281  0.1862  0.7145
  194SOL     OW 1653   4.377   4.433   6.052 -0.0366 -0.0863  0.3394
  194SOL    HW1 1654   4.360   4.527   6.043  0.2163  0.0471  1.1382
  194SOL    HW2 1655   4.345   4.394   5.971 -0.5669  0.6349  0.1990
  195SOL     OW 1656   7.174   3.867   6.369  0.3161  0.3302 -0.3973
  195SOL    HW1 1657   7.089   3.846   6.330  0.3284  1.1242 -0.8681
  195SOL    HW2 1658   7.165   3.958   6.400  0.3074 -0.2540  1.4621
  196SOL     OW 1659   4.779   0.736   1.877 -0.1107  0.3529 -0.5644
  196SOL    HW1 1660   4.767   0.831   1.886 -0.0032  0.2821  0.5271
  196SOL    HW2 1661   4.831   0.712   1.953 -1.9278 -0.8954  0.3665
  197SOL     OW 1662   0.818   3.048   3.784  0.2232 -0.1698 -0.0246
  197SOL    HW1 1663   0.809   3.129   3.833  1.7372 -0.2991  0.4827
  197SOL    HW2 1664   0.783   2.980   3.842 -4.0696  0.3468 -1.5853
  198SOL     OW 1665   3.432   3.335   6.679 -0.0147 -0.0594  0.0282
  198SOL    HW1 1666   3.527   3.344   6.672 -0.0654  0.9190  0.4765
  198SOL    HW2 1667   3.400   3.424   6.694 -0.8317 -0.5875  1.7005
  199SOL     OW 1668   6.447   5.447   2.251  0.4543 -0.0345  0.0149
  199SOL    HW1 1669   6.386   5.449   2.324  1.1966  0.1434  0.6373
  199SOL    HW2 1670   6.425   5.366   2.204 -1.0436  0.6117 -0.4713
  200SOL     OW 1671   1.759   2.482   5.339  0.2353  0.1169  0.0915
  200SOL    HW1 1672   1.798   2.569   5.348  0.5104 -0.0602  0.7033
  200SOL    HW2 1673   1.679   2.486   5.392 -1.0058  0.7039 -1.7316
  201SOL     OW 1674   5.690   1.914   7.037 -0.5024  0.6978  0.5714
  201SOL    HW1 1675   5.658   1.834   6.995 -1.8061  1.6078 -0.2203
  201SOL    HW2 1676   5.679   1.982   6.971 -0.4218  1.7331  1.5960
  202SOL     OW 1677   3.345   7.354   1.232  0.7334  0.2468  0.7455
  202SOL    HW1 1678   3.273   7.409   1.261 -0.6162  0.0902 -1.9435
  202SOL    HW2 1679   3.313   7.264   1.246 -0.7019  0.1149 -2.4200
  203SOL     OW 1680   7.358   5.861   0.197 -0.6583  0.2206  0.0909
  203SOL    HW1 1681   7.316   5.848   0.112 -1.8703 -0.5219  0.7750
  203SOL    HW2 1682   7.307   5.808   0.258  0.7256  0.0247  1.1431
  204SOL     OW 1683   3.823   7.876   8.134 -0.3259 -0.1401  0.3902
  204SOL    HW1 1684   3.795   7.786   8.121 -2.3708  0.2371  1.6848
  204SOL    HW2 1685   3.787   7.924   8.060  0.4951 -0.3175 -0.1332
  205SOL     OW 1686   5.459   4.500   5.068 -0.3770 -0.0779 -0.4812
  205SOL    HW1 1687   5.434   4.413   5.099  1.1878 -1.8691 -3.6788
  205SOL    HW2 1688   5.477   4.487   4.974  2.1131  3.2041 -0.6289
  206SOL     OW 1689   0.071   6.117   5.312 -0.2925  0.3011  0.0501
  206SOL    HW1 1690   0.115   6.116   5.397 -0.0135  0.7297 -0.0864
  206SOL    HW2 1691  -0.017   6.151   5.331  0.2849  1.9675 -0.0621
  207SOL     OW 1692   3.684   2.423   7.921  0.2647  0.3619  0.2617
  207SOL    HW1 1693   3.712   2.440   7.830  0.8494  0.2316  0.4126
  207SOL    HW2 1694   3.704   2.331   7.935  1.2019  0.6363  0.8695
  208SOL     OW 1695   6.697   0.230   7.572 -0.0373 -0.1726 -0.1552
  208SOL    HW1 1696   6.677   0.161   7.510  2.0938  0.3855 -1.5857
  208SOL    HW2 1697   6.689   0.311   7.521 -1.5446  0.6210  1.2356
  209SOL     OW 1698   6.122   6.151   5.812  0.2017  0.3184  0.0877
  209SOL    HW1 1699   6.081   6.071   5.842 -0.3664  0.6930  0.3266
  209SOL    HW2 1700   6.085   6.220   5.867  2.3206  0.5071  1.4086
  210SOL     OW 1701   5.029   2.787   5.837 -0.3516 -0.1090 -0.3810
  210SOL    HW1 1702   5.089   2.860   5.821 -1.1076  0.6532  0.1803
  210SOL    HW2 1703   5.077   2.710   5.807  0.9534  0.4642  0.1554
  211SOL     OW 1704   2.536   1.641   1.330 -0.0078  0.2654 -0.2334
  211SOL    HW1 1705   2.483   1.596   1.264  1.1869 -0.2106 -0.8926
  211SOL    HW2 1706   2.531   1.733   1.306 -0.4606  0.2148 -0.3394
  212SOL     OW 1707   5.959   7.114   4.344  0.5104 -0.1949 -0.3215
  212SOL    HW1 1708   6.010   7.103   4.264 -0.9939 -0.7817 -1.2498
  212SOL    HW2 1709   5.914   7.197   4.333  1.3007  0.3656  0.5295
  213SOL     OW 1710   1.130   0.658   5.298  0.0625  0.8537 -0.4857
  213SOL    HW1 1711   1.155   0.571   5.267  1.7904  1.5719 -1.2715
  213SOL    HW2 1712   1.068   0.690   5.232 -0.3838  0.3221 -0.3272
  214SOL     OW 1713   0.010   4.436   2.217  0.1525 -0.4536 -0.6349
  214SOL    HW1 1714   0.037   4.496   2.147 -0.4380  0.1508 -0.3613
  214SOL    HW2 1715  -0.085   4.442   2.217  0.1215 -0.9546 -0.2111
  215SOL     OW 1716   3.274   6.399   6.238  0.1781  0.3635  0.4885
  215SOL    HW1 1717   3.225   6.347   6.174  0.4020  2.1239 -1.1869
  215SOL    HW2 1718   3.336   6.337   6.277  0.1156 -0.7445 -1.0833
  216SOL     OW 1719   7.946   0.510   0.954 -0.8776 -0.4111  0.1847
  216SOL    HW1 1720   7.894   0.430   0.953 -0.5735 -0.6721  1.8669
  216SOL    HW2 1721   8.004   0.500   1.030 -0.1736  0.9900 -0.1312
  217SOL     OW 1722   0.178   4.675   7.341  0.2106 -0.4732 -0.0973
  217SOL    HW1 1723   0.120   4.600   7.351  2.0257 -1.9060  0.1497
  217SOL    HW2 1724   0.183   4.713   7.429  0.8761 -1.3096  0.2349
  218SOL     OW 1725   3.740   1.595   7.792  0.1113 -0.3665 -0.1384
  218SOL    HW1 1726   3.665   1.563   7.742 -0.3073  2.1160 -1.2317
  218SOL    HW2 1727   3.740   1.690   7.778  2.8523 -0.1565  0.6815
  219SOL     OW 1728   3.360   2.818   7.093 -0.3282 -0.1058 -0.0022
  219SOL    HW1 1729   3.355   2.811   7.189 -2.3769 -1.1014 -0.1426
  219SOL    HW2 1730   3.452   2.841   7.076 -0.2157  1.4336  2.2605
  220SOL     OW 1731   7.524   2.420   0.547 -0.2924 -0.3573  0.0881
  220SOL    HW1 1732   7.551   2.512   0.555  0.9292 -0.6755 -0.1853
  220SOL    HW2 1733   7.429   2.423   0.545 -0.2545  0.9958 -0.8873
  221SOL     OW 1734   0.728   5.099   4.152 -0.5054 -0.0963  0.3040
  221SOL    HW1 1735   0.807   5.048   4.131 -0.0862  1.0648 -1.0922
  221SOL    HW2 1736   0.656   5.038   4.139 -0.0099 -0.4120 -1.1724
  222SOL     OW 1737   3.339   1.210   0.027  0.4984  0.0279 -0.3900
  222SOL    HW1 1738   3.403   1.209   0.098  1.8581  0.3068 -1.5586
  222SOL    HW2 1739   3.268   1.153   0.058  0.0934  1.6587  1.9924
  223SOL     OW 1740   2.899   3.627   0.555 -0.0685 -0.0881 -0.3776
  223SOL    HW1 1741   2.913   3.551   0.612  4.1303  0.9570  0.3650
  223SOL    HW2 1742   2.888   3.701   0.616  0.2009  0.4555 -0.9712
  224SOL     OW 1743   6.690   4.641   5.870 -0.9006  0.1473 -0.3072
  224SOL    HW1 1744   6.761   4.583   5.897 -0.4169  1.0687  0.4741
  224SOL    HW2 1745   6.722   4.681   5.788 -1.3089 -0.7845 -0.9419
  225SOL     OW 1746   5.258   0.720   2.558 -0.4158 -0.4986  0.1228
  225SOL    HW1 1747   5.348   0.715   2.526 -0.0020 -1.5965  1.3399
  225SOL    HW2 1748   5.252   0.805   2.602 -0.5741  0.4003 -1.5606
  226SOL     OW 1749   5.919   5.601   4.207 -0.7239 -0.4383  0.4680
  226SOL    HW1 1750   5.975   5.656   4.261 -2.3926 -0.0118  1.8206
  226SOL    HW2 1751   5.976   5.574   4.134  0.7182  1.3735  0.8454
  227SOL     OW 1752   6.386   3.970   4.965 -0.1891 -0.1789  0.3883
  227SOL    HW1 1753   6.306   4.005   5.003 -0.1857  1.4310 -0.9314
  227SOL    HW2 1754   6.456   4.009   5.017 -0.1687  2.3351 -1.3041
  228SOL     OW 1755   0.533   6.398   6.497 -0.7981  0.0408  0.2891
  228SOL    HW1 1756   0.542   6.319   6.444 -0.7637 -0.0601  0.4450
  228SOL    HW2 1757   0.613   6.402   6.549  0.2089  1.3526 -1.2803
  229SOL     OW 1758   1.281   6.600   6.015  0.0593 -0.5999  0.1213
  229SOL    HW1 1759   1.336   6.570   5.943  1.1493  0.5277  0.4398
  229SOL    HW2 1760   1.261   6.521   6.065 -0.0431 -1.2726 -0.9551
  230SOL     OW 1761   0.992   3.665   0.927  0.1180  0.0940 -0.0471
  230SOL    HW1 1762   0.932   3.714   0.983 -0.0933  1.0970 -1.1064
  230SOL    HW2 1763   0.973   3.697   0.839  0.6386 -1.2285 -0.6688
  231SOL     OW 1764   7.433   1.871   6.810  0.3560  0.0947  0.2025
  231SOL    HW1 1765   7.368   1.844   6.875 -1.3772  0.3584 -1.3156
  231SOL    HW2 1766   7.450   1.963   6.831 -1.0634  0.5151 -0.3365
  232SOL     OW 1767   1.084   4.499   2.122 -0.2429  0.2765 -0.8867
  232SOL    HW1 1768   1.147   4.482   2.192 -0.9435 -0.0262 -0.3138
  232SOL    HW2 1769   1.110   4.441   2.051  0.0245  0.0328 -0.5898
  233SOL     OW 1770   0.308   6.643   6.332  0.5263  0.3885  0.1183
  233SOL    HW1 1771   0.327   6.619   6.423  2.4939 -1.7183 -0.7367
  233SOL    HW2 1772   0.252   6.573   6.300 -0.7063  1.4648 -0.1549
  234SOL     OW 1773   3.375   7.275   3.676 -0.2883 -0.4363  0.4186
  234SOL    HW1 1774   3.361   7.215   3.750  0.9807 -1.5116 -0.1794
  234SOL    HW2 1775   3.334   7.232   3.602  2.0120 -1.4259 -0.3676
  235SOL     OW 1776   7.934   0.776   7.283 -0.1215 -0.5595  0.1320
  235SOL    HW1 1777   7.859   0.733   7.323  0.9735 -0.8998  1.9324
  235SOL    HW2 1778   7.901   0.862   7.256 -0.7669  0.0096  2.5181
  236SOL     OW 1779   7.942   2.211   4.916 -0.4074  0.3688  0.0013
  236SOL    HW1 1780   7.958   2.252   4.831  1.6059  0.9236  0.5755
  236SOL    HW2 1781   7.972   2.277   4.979 -0.9158 -0.4343  1.0993
  237SOL     OW 1782   4.862   5.658   7.586 -0.0330  0.1194 -0.0982
  237SOL    HW1 1783   4.948   5.698   7.578 -0.2648  1.0819  1.6950
  237SOL    HW2 1784   4.801   5.732   7.581 -0.5985 -0.2326  1.1201
  238SOL     OW 1785   2.874   5.649   1.488 -0.5033 -0.5981  0.1251
  238SOL    HW1 1786   2.908   5.568   1.450  1.0432  0.0303  0.0852
  238SOL    HW2 1787   2.950   5.707   1.493 -1.9814  1.8305 -2.3579
  239SOL     OW 1788   2.465   4.003   3.094  0.4851 -0.1041  0.0158
  239SOL    HW1 1789   2.482   4.019   3.187  1.1798  0.9717 -0.2804
  239SOL    HW2 1790   2.551   3.979   3.057  0.4294  0.5335 -0.5480
  240SOL     OW 1791   1.928   3.190   5.882 -0.5536 -1.0912 -0.0684
  240SOL    HW1 1792   1.898   3.189   5.791  0.1786  0.8060 -0.3756
  240SOL    HW2 1793   1.908   3.278   5.913 -0.6801 -1.6548  1.6063
  241SOL     OW 1794   7.366   3.746   4.228 -0.3935  0.1430 -0.0207
  241SOL    HW1 1795   7.318   3.705   4.300 -1.5768  0.3257 -0.6785
  241SOL    HW2 1796   7.348   3.839   4.237 -0.7945  0.1376 -0.7169
  242SOL     OW 1797   7.580   1.675   4.853  0.6565  0.0982  0.3719
  242SOL    HW1 1798   7.509   1.724   4.811  0.5165  0.4422  1.0002
  242SOL    HW2 1799   7.554   1.670   4.945  1.2875 -0.0629  0.5445
  243SOL     OW 1800   5.444   5.417   7.197 -0.3053 -0.5594  0.0800
  243SOL    HW1 1801   5.518   5.409   7.138 -1.0426 -1.4169 -0.7705
  243SOL    HW2 1802   5.406   5.329   7.200  0.6716 -1.0091  3.1477
  244SOL     OW 1803   1.929   4.687   5.132  0.3053 -0.2270  0.5622
  244SOL    HW1 1804   1.963   4.623   5.194  1.1912 -1.3111 -0.9478
  244SOL    HW2 1805   1.834   4.684   5.143  0.5021  0.8954  3.0309
  245SOL     OW 1806   4.459   2.578   2.937  0.2644  0.0742  0.1108
  245SOL    HW1 1807   4.476   2.491   2.900  0.5259  0.2170 -0.1041
  245SOL    HW2 1808   4.531   2.592   2.999 -1.7105 -1.4372  2.9823
  246SOL     OW 1809   2.583   7.872   0.162  0.1171  0.3376 -0.0383
  246SOL    HW1 1810   2.540   7.892   0.245  0.3659  0.9605 -0.0536
  246SOL    HW2 1811   2.674   7.901   0.175  0.2944 -0.0783 -0.3350
  247SOL     OW 1812   1.802   5.625   7.399  0.1779  0.4769 -0.0749
  247SOL    HW1 1813   1.816   5.656   7.489 -0.0016  1.0091 -0.2280
  247SOL    HW2 1814   1.718   5.664   7.373 -0.7686 -1.2736  0.2230
  248SOL     OW 1815   1.906   2.312   5.187  0.0257  0.0185 -0.4655
  248SOL    HW1 1816   1.862   2.363   5.255 -2.7560  0.4803 -2.4473
  248SOL    HW2 1817   1.846   2.240   5.168  1.8265 -1.4726 -0.8448
  249SOL     OW 1818   0.110   3.306   4.513 -0.2315  0.3958  0.6070
  249SOL    HW1 1819   0.201   3.300   4.483 -0.5066  2.8112 -1.0264
  249SOL    HW2 1820   0.089   3.399   4.503 -2.5563  0.0767  2.0064
  250SOL     OW 1821   3.253   3.334   1.155  0.3866 -0.5238 -0.7272
  250SOL    HW1 1822   3.238   3.343   1.061 -1.6537  0.6217 -0.3604
  250SOL    HW2 1823   3.169   3.357   1.195  1.4808  0.0197  1.4310
  251SOL     OW 1824   2.483   4.538   0.293 -0.0312 -0.4788  0.3141
  251SOL    HW1 1825   2.410   4.481   0.317 -0.3230 -0.5233 -0.6351
  251SOL    HW2 1826   2.444   4.605   0.237  1.0577 -2.1911 -2.7441
  252SOL     OW 1827   0.611   4.511   2.637 -0.0155  0.0751 -0.2657
  252SOL    HW1 1828   0.578   4.601   2.631 -1.2630 -0.2239  1.3406
  252SOL    HW2 1829   0.689   4.518   2.693  0.6268  0.3023 -1.1664
  253SOL     OW 1830   0.541   4.582   8.010  0.0696 -0.0321 -0.0551
  253SOL    HW1 1831   0.615   4.521   8.014  1.1104  1.2355  1.2682
  253SOL    HW2 1832   0.562   4.648   8.075 -2.3178  0.3199  0.4321
  254SOL     OW 1833   3.755   6.731   2.618 -0.6778 -0.4318  0.0929
  254SOL    HW1 1834   3.662   6.741   2.599 -0.3219  1.2715 -0.9829
  254SOL    HW2 1835   3.770   6.787   2.695 -0.5133 -0.5746  0.1649
  255SOL     OW 1836   4.543   3.746   5.283  0.0991  0.2859 -0.3813
  255SOL    HW1 1837   4.582   3.831   5.303  2.9714 -1.4394  2.3027
  255SOL    HW2 1838   4.611   3.697   5.237 -0.8572 -1.1247 -0.3834
  256SOL     OW 1839   2.822   0.645   1.225 -0.8170  0.1142  0.2041
  256SOL    HW1 1840   2.913   0.615   1.227 -0.4627  0.7679 -2.1930
  256SOL    HW2 1841   2.792   0.639   1.315  1.3237 -0.9710  0.9022
  257SOL     OW 1842   4.771   7.854   7.983  0.1125  0.3559  0.6748
  257SOL    HW1 1843   4.824   7.884   7.909 -0.6997 -2.8973 -1.4383
  257SOL    HW2 1844   4.705   7.922   7.994 -0.3036  0.5678 -2.2624
  258SOL     OW 1845   3.331   7.404   3.333  0.0154 -0.0177 -0.9386
  258SOL    HW1 1846   3.411   7.418   3.283  0.6045 -0.7293 -0.2295
  258SOL    HW2 1847   3.342   7.458   3.411  0.3055 -0.9377 -0.3235
  259SOL     OW 1848   2.699   6.865   5.475  0.1263 -0.3750 -0.1111
  259SOL    HW1 1849   2.682   6.809   5.400 -0.1375  0.6934 -0.8684
  259SOL    HW2 1850   2.786   6.902   5.458  0.5291 -0.9278  0.6444
  260SOL     OW 1851   2.300   4.335   3.891  0.3084 -0.5487 -0.8228
  260SOL    HW1 1852   2.275   4.426   3.906 -0.5993 -0.6271 -1.7365
  260SOL    HW2 1853   2.234   4.285   3.940  0.5238 -0.7277 -0.7136
  261SOL     OW 1854   4.938   6.689   6.305 -0.3427  0.4420  0.1587
  261SOL    HW1 1855   4.902   6.609   6.344 -1.1644  1.4475  1.5633
  261SOL    HW2 1856   4.990   6.729   6.375  2.6425 -0.3525 -1.4586
  262SOL     OW 1857   2.950   2.927   1.855 -0.4449 -0.4906  0.6406
  262SOL    HW1 1858   2.980   3.007   1.899 -0.2488 -0.2761  0.1212
  262SOL    HW2 1859   2.958   2.947   1.762  1.3511 -1.7510  0.4664
  263SOL     OW 1860   1.097   2.339   1.801  0.0447  0.6238 -0.3224
  263SOL    HW1 1861   1.012   2.369   1.834  0.4052  0.0667  1.2191
  263SOL    HW2 1862   1.094   2.356   1.707 -1.8106  0.5430 -0.3155
  264SOL     OW 1863   6.000   5.273   5.851  0.5223  0.5442  0.6859
  264SOL    HW1 1864   6.087   5.290   5.814  0.4704  0.2347  0.4202
  264SOL    HW2 1865   5.952   5.230   5.781  0.1232  0.7948  0.8056
  265SOL     OW 1866   5.224   0.073   0.120 -0.0639  0.7359  0.2851
  265SOL    HW1 1867   5.190  -0.015   0.103 -1.1680  1.5147 -2.0847
  265SOL    HW2 1868   5.162   0.131   0.075  1.2551  2.6456  0.8295
  266SOL     OW 1869   4.835   8.037   6.296  0.0434 -0.3009 -0.1644
  266SOL    HW1 1870   4.873   8.034   6.384  1.2763 -1.3554 -0.6991
  266SOL    HW2 1871   4.828   8.130   6.276  0.7845 -0.0651  0.6158
  267SOL     OW 1872   7.586   1.683   0.462 -0.0140  0.1597 -0.6772
  267SOL    HW1 1873   7.491   1.684   0.448  0.1634  1.4767 -1.9301
  267SOL    HW2 1874   7.598   1.734   0.543 -0.4295 -0.9545  0.1197
  268SOL     OW 1875   0.524   7.349   7.228 -0.5648  0.1542 -0.1657
  268SOL    HW1 1876   0.485   7.275   7.275  1.2187 -0.1003  1.0221
  268SOL    HW2 1877   0.520   7.323   7.136 -0.9557 -0.9324  0.1357
  269SOL     OW 1878   2.785   4.833   5.288 -0.0413  0.4486  0.2890
  269SOL    HW1 1879   2.804   4.909   5.343 -0.9825  1.4228 -0.6779
  269SOL    HW2 1880   2.860   4.827   5.228 -0.9428  1.9662 -1.0454
  270SOL     OW 1881   2.149   2.862   2.032 -0.0785  0.0297 -0.2100
  270SOL    HW1 1882   2.105   2.830   2.111 -0.5996 -1.0992 -0.9242
  270SOL    HW2 1883   2.089   2.927   1.996  0.3173  0.7956  0.4897
  271SOL     OW 1884   6.668   7.217   2.792  0.4122  0.1866  0.0681
  271SOL    HW1 1885   6.669   7.300   2.744  0.2361 -0.2756 -0.7586
  271SOL    HW2 1886   6.582   7.179   2.773  1.6032 -1.6469 -2.1681
  272SOL     OW 1887   6.585   2.251   1.658 -0.4737  0.9873  0.0925
  272SOL    HW1 1888   6.652   2.314   1.683 -0.2027  0.4643  0.7266
  272SOL    HW2 1889   6.523   2.250   1.732 -1.2221  1.5106 -0.5100
  273SOL     OW 1890   3.690   6.358   4.106  0.0936 -0.5150 -0.9845
  273SOL    HW1 1891   3.685   6.397   4.193  0.8842 -0.6545 -0.8744
  273SOL    HW2 1892   3.729   6.425   4.051 -1.3581 -0.0372 -1.4802
  274SOL     OW 1893   6.644   1.141   5.553  0.0578  0.2771 -0.4355
  274SOL    HW1 1894   6.622   1.125   5.461  1.7144  0.4658 -0.8964
  274SOL    HW2 1895   6.700   1.068   5.577  0.4570  0.7530  0.1120
  275SOL     OW 1896   5.398   4.468   1.704 -0.0081  0.1641  0.1321
  275SOL    HW1 1897   5.314   4.514   1.701 -0.3056 -0.4392 -1.0786
  275SOL    HW2 1898   5.457   4.529   1.748 -0.9040  0.8718  0.3767
  276SOL     OW 1899   5.951   4.357   3.606 -0.1887  0.2427  0.3996
  276SOL    HW1 1900   5.925   4.266   3.592 -1.1582  0.5479  0.1714
  276SOL    HW2 1901   6.047   4.353   3.614 -0.3212 -0.9894  1.9127
  277SOL     OW 1902   3.302   2.279   7.750 -0.2679 -0.2244 -0.2604
  277SOL    HW1 1903   3.389   2.239   7.750  0.0073  0.3545  0.2025
  277SOL    HW2 1904   3.269   2.264   7.839 -0.3904  0.0839 -0.2517
  278SOL     OW 1905   2.727   3.744   4.013 -0.1265  0.1428  0.2656
  278SOL    HW1 1906   2.802   3.797   4.040  0.7341 -0.5309 -0.7558
  278SOL    HW2 1907   2.725   3.672   4.076  0.0511  0.1835  0.3191
  279SOL     OW 1908   7.694   1.394   1.288 -0.6820  0.1047 -0.4985
  279SOL    HW1 1909   7.721   1.302   1.293  3.7067  1.0674 -1.6343
  279SOL    HW2 1910   7.689   1.423   1.379  1.9985 -0.3977 -0.1202
  280SOL     OW 1911   6.888   1.550   0.480  0.0071  0.1371 -0.5586
  280SOL    HW1 1912   6.821   1.577   0.417  0.0121  1.5053 -0.0272
  280SOL    HW2 1913   6.950   1.498   0.429 -1.0702 -0.5210 -1.2109
  281SOL     OW 1914   2.869   0.664   6.236  0.2777 -0.2071 -0.2505
  281SOL    HW1 1915   2.818   0.606   6.292  0.0240  0.6376  0.4037
  281SOL    HW2 1916   2.916   0.605   6.177  1.4157 -1.1929  1.5588
  282SOL     OW 1917   0.814   5.821   7.559  0.4521 -0.0049 -0.1923
  282SOL    HW1 1918   0.856   5.746   7.517  3.0756  0.1041  1.9705
  282SOL    HW2 1919   0.796   5.791   7.648  1.3195  1.8211  0.6412
  283SOL     OW 1920   5.483   0.638   0.718 -0.3584 -0.4838  0.1675
  283SOL    HW1 1921   5.553   0.634   0.652 -1.0330 -0.7464 -0.5427
  283SOL    HW2 1922   5.454   0.547   0.727 -1.1468 -0.2693 -0.1332
  284SOL     OW 1923   4.971   1.795   0.881 -0.4293  0.1191  0.4521
  284SOL    HW1 1924   4.959   1.842   0.798 -2.2126 -2.1474 -0.6692
  284SOL    HW2 1925   4.882   1.774   0.909  0.1658  0.4924  2.7904
  285SOL     OW 1926   7.853   7.190   7.399  0.3174 -0.5224  0.1848
  285SOL    HW1 1927   7.944   7.219   7.396  0.5871 -1.2786  0.7057
  285SOL    HW2 1928   7.858   7.097   7.421 -0.5775 -0.6211  0.0303
  286SOL     OW 1929   3.053   2.664   1.814 -0.5895  0.3792  0.5830
  286SOL    HW1 1930   2.984   2.718   1.852  2.5046  3.4879  2.3189
  286SOL    HW2 1931   3.081   2.712   1.737 -0.3076 -0.8398 -0.0934
  287SOL     OW 1932   6.181   5.486   3.286 -0.0409 -0.4587 -0.1865
  287SOL    HW1 1933   6.169   5.506   3.194  1.0957  1.0084 -0.0590
  287SOL    HW2 1934   6.210   5.394   3.287 -0.8103 -0.7248 -1.2069
  288SOL     OW 1935   6.727   4.364   0.962 -0.2746  0.1036 -0.0279
  288SOL    HW1 1936   6.636   4.363   0.991 -0.2973 -0.9165 -0.1237
  288SOL    HW2 1937   6.766   4.285   1.000  0.5078  0.3886 -0.2105
  289SOL     OW 1938   1.922   5.407   6.220  0.0382  0.0427  0.2138
  289SOL    HW1 1939   1.842   5.366   6.189 -0.4412  0.0141  1.4191
  289SOL    HW2 1940   1.911   5.500   6.202  1.0130 -0.2652 -2.2839
  290SOL     OW 1941   6.371   3.190   3.427 -0.0337 -0.8790  0.0979
  290SOL    HW1 1942   6.384   3.267   3.371  1.7278 -2.6153 -2.0954
  290SOL    HW2 1943   6.280   3.165   3.412 -0.5593  0.5664  0.6467
  291SOL     OW 1944   0.698   3.978   4.432  0.5466 -0.6943  0.4056
  291SOL    HW1 1945   0.732   3.903   4.383 -1.8081 -0.8321 -1.1528
  291SOL    HW2 1946   0.604   3.965   4.435  0.2151  1.4356  1.4567
  292SOL     OW 1947   6.677   1.335   4.498 -0.3876 -0.1256 -0.7733
  292SOL    HW1 1948   6.660   1.295   4.413 -1.5511 -0.6064 -0.3217
  292SOL    HW2 1949   6.592   1.340   4.541  0.2407 -0.3473  0.5722
  293SOL     OW 1950   7.086   1.229   1.487  0.2473  0.5503  0.0829
  293SOL    HW1 1951   7.159   1.174   1.459  0.3655  0.3948  0.6698
  293SOL    HW2 1952   7.098   1.237   1.582  0.2229  1.5687  0.0060
  294SOL     OW 1953   4.158   5.008   7.696  0.3489 -0.4215  0.5763
  294SOL    HW1 1954   4.118   4.940   7.642  3.0939  0.7809 -3.3810
  294SOL    HW2 1955   4.085   5.065   7.720 -1.5318 -2.9448  1.3796
  295SOL     OW 1956   1.305   8.008   6.602 -0.1896 -0.4180 -0.3016
  295SOL    HW1 1957   1.220   8.051   6.586  0.3521  1.3301  1.1414
  295SOL    HW2 1958   1.368   8.080   6.606  0.6937 -1.1891  2.7944
  296SOL     OW 1959   6.258   2.382   4.952  0.0553 -0.4105 -0.1080
  296SOL    HW1 1960   6.347   2.378   4.989  0.8884 -3.4024 -2.1267
  296SOL    HW2 1961   6.261   2.457   4.892  0.6083  0.6059  1.1355
  297SOL     OW 1962   5.151   0.897   7.964 -0.1585 -0.1002  0.1475
  297SOL    HW1 1963   5.132   0.852   7.881 -0.0216  0.4285 -0.1714
  297SOL    HW2 1964   5.191   0.980   7.938  1.7534 -0.7646  0.7562
  298SOL     OW 1965   5.686   2.535   3.314  0.4975  0.4219 -0.0804
  298SOL    HW1 1966   5.592   2.517   3.319  0.4735  0.2141 -1.0751
  298SOL    HW2 1967   5.696   2.621   3.355  0.2056 -0.5258  2.1103
  299SOL     OW 1968   7.865   6.726   4.675  0.5378 -0.3190  0.6553
  299SOL    HW1 1969   7.958   6.718   4.654  0.3846  1.2162 -0.9004
  299SOL    HW2 1970   7.862   6.794   4.743  0.5403 -0.1435  0.4820
  300SOL     OW 1971   0.450   7.045   3.010  0.2020  0.2811 -0.2499
  300SOL    HW1 1972   0.460   7.013   2.921  0.5739  1.5248 -0.6617
  300SOL    HW2 1973   0.537   7.077   3.035  0.2250 -0.4677  0.7427
  301SOL     OW 1974   4.646   5.573   3.655 -0.6691  0.4139 -0.4685
  301SOL    HW1 1975   4.714   5.641   3.661 -0.6495  0.6278 -2.2990
  301SOL    HW2 1976   4.566   5.621   3.636 -0.6882 -0.0216 -1.5950
  302SOL     OW 1977   6.929   0.880   2.736 -0.8522 -0.1341 -0.0829
  302SOL    HW1 1978   6.963   0.939   2.668 -2.4158 -0.4221 -1.1836
  302SOL    HW2 1979   6.838   0.862   2.709 -1.2404 -0.9724  1.6281
  303SOL     OW 1980   3.360   7.540   1.509  0.2975 -0.0849 -0.2606
  303SOL    HW1 1981   3.373   7.505   1.596 -0.2958 -0.1923 -0.2070
  303SOL    HW2 1982   3.445   7.532   1.466  0.9293  1.0996  0.6953
  304SOL     OW 1983   5.103   2.000   2.224  0.6748  0.0931 -0.3246
  304SOL    HW1 1984   5.184   2.017   2.273 -0.2644 -1.5616  1.9934
  304SOL    HW2 1985   5.063   1.925   2.269 -0.5233 -1.3142 -3.4233
  305SOL     OW 1986   1.853   4.892   7.301  0.0460  0.4454 -0.5285
  305SOL    HW1 1987   1.772   4.842   7.292  0.2549  0.2720 -1.5966
  305SOL    HW2 1988   1.824   4.981   7.322 -0.3218 -0.1180  1.6126
  306SOL     OW 1989   6.909   0.087   2.891  0.3968 -0.0368 -0.6504
  306SOL    HW1 1990   6.868   0.012   2.933 -0.4375  0.6458 -0.2011
  306SOL    HW2 1991   6.854   0.105   2.815 -0.3884  1.1025  0.1531
  307SOL     OW 1992   6.320   5.334   2.661 -0.1887  0.6093 -0.2241
  307SOL    HW1 1993   6.338   5.408   2.719  0.7941  0.1518  0.0842
  307SOL    HW2 1994   6.407   5.308   2.627 -0.4130 -0.8462  0.2335
  308SOL     OW 1995   7.985   3.271   2.179 -0.0637 -0.1402  0.0814
  308SOL    HW1 1996   8.062   3.273   2.121  0.3284 -2.7956  0.4091
  308SOL    HW2 1997   8.022   3.284   2.267  0.0131 -1.3133  0.2283
  309SOL     OW 1998   6.875   2.398   6.238 -0.2096 -0.8465  0.0833
  309SOL    HW1 1999   6.880   2.440   6.324  2.9750  0.5153 -0.6232
  309SOL    HW2 2000   6.836   2.464   6.181  1.7375  0.0071 -0.3410
  310SOL     OW 2001   0.462   4.585   7.751  0.1595  0.6615 -0.4375
  310SOL    HW1 2002   0.410   4.507   7.735  0.5369  0.6541 -1.7086
  310SOL    HW2 2003   0.491   4.576   7.842 -0.7125 -0.1192 -0.2224
  311SOL     OW 2004   2.152   0.439   0.738  0.4499  0.5159 -0.0353
  311SOL    HW1 2005   2.199   0.491   0.672  2.4290  0.5847  1.3476
  311SOL    HW2 2006   2.221   0.401   0.792 -1.0799  1.6819  2.9619
  312SOL     OW 2007   6.522   4.338   1.667  0.5289 -0.0694 -0.3984
  312SOL    HW1 2008   6.566   4.421   1.686  0.5444 -0.0691 -0.4376
  312SOL    HW2 2009   6.442   4.363   1.621 -0.9206  0.1581  2.0328
  313SOL     OW 2010   2.130   0.913   3.429 -0.0022  0.0847  0.2765
  313SOL    HW1 2011   2.216   0.952   3.413  0.0902 -0.3757 -0.4016
  313SOL    HW2 2012   2.080   0.932   3.349 -0.9141  1.3372  1.1046
  314SOL     OW 2013   4.384   4.872   1.635  0.3155 -0.1447 -0.0039
  314SOL    HW1 2014   4.439   4.875   1.713 -0.4374 -0.7124  0.5706
  314SOL    HW2 2015   4.385   4.780   1.610  0.3041 -0.0140 -0.4813
  315SOL     OW 2016   2.787   3.368   0.114 -0.0118  0.6241  0.3206
  315SOL    HW1 2017   2.835   3.291   0.144 -0.7420 -0.2204 -0.5938
  315SOL    HW2 2018   2.697   3.336   0.100 -0.7832  2.0895  1.6886
  316SOL     OW 2019   7.088   7.310   3.142  0.1981  0.2059 -0.2832
  316SOL    HW1 2020   7.048   7.386   3.098 -0.2844 -0.0905 -0.3622
  316SOL    HW2 2021   7.151   7.277   3.080 -1.9281 -1.4832 -1.6890
  317SOL     OW 2022   6.301   6.433   4.686 -0.5106 -0.4543  0.3735
  317SOL    HW1 2023   6.396   6.434   4.698 -0.5742 -1.0307  0.9735
  317SOL    HW2 2024   6.289   6.396   4.598 -0.2020 -1.2408  0.6519
  318SOL     OW 2025   6.789   0.611   4.937  0.0696 -0.1404  0.2645
  318SOL    HW1 2026   6.885   0.601   4.938 -0.0060 -1.7143  3.1904
  318SOL    HW2 2027   6.764   0.592   4.847  2.4165 -1.0293 -0.2759
  319SOL     OW 2028   2.842   2.751   7.107 -0.5694  0.3269 -0.3242
  319SOL    HW1 2029   2.932   2.782   7.114 -0.7231  0.6378  0.3565
  319SOL    HW2 2030   2.831   2.730   7.014  0.6881 -1.1983 -0.1757
  320SOL     OW 2031   3.029   0.755   5.135  0.6703  0.5286  0.8254
  320SOL    HW1 2032   3.024   0.827   5.071  0.1681 -0.2426 -0.0226
  320SOL    HW2 2033   3.001   0.678   5.086  0.9101 -0.1954  1.8147
  321SOL     OW 2034   4.183   5.273   3.615  0.2745  0.5369  0.5462
  321SOL    HW1 2035   4.173   5.366   3.633  1.6499  0.5048  1.7342
  321SOL    HW2 2036   4.262   5.267   3.561  0.4047  0.0338  0.7831
  322SOL     OW 2037   5.275   5.353   2.776 -0.1798  0.7707  0.0350
  322SOL    HW1 2038   5.256   5.339   2.683 -0.5015 -1.7432  0.4201
  322SOL    HW2 2039   5.370   5.356   2.781 -0.1725  1.6970 -0.4487
  323SOL     OW 2040   5.153   0.205   5.284 -1.0051  0.4493 -0.4466
  323SOL    HW1 2041   5.080   0.224   5.225 -1.7540  2.1949  0.9456
  323SOL    HW2 2042   5.132   0.120   5.322 -0.1290 -1.0817 -3.1560
  324SOL     OW 2043   2.649   4.411   6.678  0.0999 -0.2345 -0.1313
  324SOL    HW1 2044   2.564   4.366   6.681  0.0900 -0.2674 -0.7627
  324SOL    HW2 2045   2.709   4.346   6.643 -0.0004  0.3519 -1.4615
  325SOL     OW 2046   4.961   5.652   4.872 -0.3402  0.2650  0.0965
  325SOL    HW1 2047   4.936   5.611   4.955  1.5522  0.3683  0.7490
  325SOL    HW2 2048   5.045   5.613   4.849 -0.6167  0.5592 -1.5781
  326SOL     OW 2049   6.397   6.869   1.649  0.0691 -0.3984  0.2979
  326SOL    HW1 2050   6.461   6.907   1.710  0.9181  0.5183 -1.1062
  326SOL    HW2 2051   6.383   6.937   1.584 -1.5556 -0.9970 -0.0223
  327SOL     OW 2052   0.897   7.329   2.903  0.6507  0.2424  0.3994
  327SOL    HW1 2053   0.857   7.411   2.874  1.8194  0.8674  0.4785
  327SOL    HW2 2054   0.876   7.266   2.835 -0.7576  0.4449  0.6153
  328SOL     OW 2055   4.680   2.260   7.805 -0.0241 -0.0896  0.5543
  328SOL    HW1 2056   4.716   2.270   7.717  0.1024 -0.0399  0.6112
  328SOL    HW2 2057   4.667   2.166   7.816  1.1407 -0.2109  0.9487
  329SOL     OW 2058   3.756   1.069   4.838 -0.1695 -0.2368 -0.0147
  329SOL    HW1 2059   3.730   0.994   4.892 -2.6293  1.0928  0.8322
  329SOL    HW2 2060   3.674   1.118   4.826  1.4968  2.8228  0.2962
  330SOL     OW 2061   2.914   0.054   5.991 -0.0620  0.1994 -0.5022
  330SOL    HW1 2062   2.895   0.140   5.953 -1.4531 -0.2168 -0.8272
  330SOL    HW2 2063   3.005   0.059   6.018 -0.1097  1.7819 -0.5198
  331SOL     OW 2064   4.411   3.040   2.776  0.4978  0.3226  0.3449
  331SOL    HW1 2065   4.393   2.953   2.812  2.9766 -0.3248  0.1859
  331SOL    HW2 2066   4.389   3.100   2.847 -0.4101 -0.4842  0.7695
  332SOL     OW 2067   5.612   4.800   5.805 -0.3227 -0.3577  0.4255
  332SOL    HW1 2068   5.555   4.877   5.807  0.5816  0.3170  1.5167
  332SOL    HW2 2069   5.699   4.835   5.788 -0.2896 -1.4593 -2.1246
  333SOL     OW 2070   6.043   0.174   3.383 -0.5449 -0.1235 -0.0623
  333SOL    HW1 2071   6.056   0.265   3.412 -0.0292 -0.7288  1.7334
  333SOL    HW2 2072   5.948   0.164   3.378 -0.6029  0.6062 -0.6298
  334SOL     OW 2073   6.786   6.624   6.246  0.8361 -0.0753 -0.1760
  334SOL    HW1 2074   6.785   6.573   6.326  0.5404 -0.2139 -0.2647
  334SOL    HW2 2075   6.785   6.559   6.176  3.3629 -0.0149 -0.3328
  335SOL     OW 2076   3.744   0.588   6.551  0.2787  0.1343  0.3234
  335SOL    HW1 2077   3.792   0.670   6.541  1.1189 -0.4197 -0.2647
  335SOL    HW2 2078   3.790   0.540   6.620  0.4314 -0.2969 -0.0721
  336SOL     OW 2079   7.274   4.090   3.915  0.0156 -0.4602 -0.4743
  336SOL    HW1 2080   7.326   4.021   3.874  0.0517 -1.0038  0.4558
  336SOL    HW2 2081   7.321   4.171   3.895  0.5177 -0.8110 -0.7332
  337SOL     OW 2082   0.958   1.768   7.782  0.1495  0.3670 -0.1616
  337SOL    HW1 2083   0.961   1.680   7.820  0.1863 -0.0186 -1.0492
  337SOL    HW2 2084   0.952   1.826   7.858 -2.3025 -0.4897  0.4012
  338SOL     OW 2085   7.204   7.937   4.815 -0.4766  0.2918 -0.0886
  338SOL    HW1 2086   7.243   7.864   4.768 -0.4403  0.1953  0.0889
  338SOL    HW2 2087   7.204   7.909   4.907 -0.5553  0.4727 -0.0328
  339SOL     OW 2088   4.692   1.220   3.100 -0.4524 -0.2087  0.5774
  339SOL    HW1 2089   4.667   1.157   3.032 -2.2640  0.9496  0.1000
  339SOL    HW2 2090   4.633   1.201   3.173 -1.2068  1.0382  0.3313
  340SOL     OW 2091   7.685   0.766   0.647  0.3084 -0.4889 -0.5083
  340SOL    HW1 2092   7.729   0.696   0.695 -0.8753 -1.1197 -0.3022
  340SOL    HW2 2093   7.606   0.724   0.612 -1.2399  1.0981  0.9109
  341SOL     OW 2094   0.162   7.557   1.819  0.7715 -0.1305  0.7523
  341SOL    HW1 2095   0.210   7.475   1.828  0.0319 -0.4686  1.8110
  341SOL    HW2 2096   0.175   7.602   1.902  0.1829  0.2641  0.6403
  342SOL     OW 2097   4.129   5.562   4.370  0.1887 -0.2186  0.4356
  342SOL    HW1 2098   4.099   5.480   4.331  0.3910 -0.8552  1.5651
  342SOL    HW2 2099   4.215   5.541   4.407  1.3546  1.1446 -1.3343
  343SOL     OW 2100   0.289   6.984   6.552 -0.3575 -0.2277  0.5377
  343SOL    HW1 2101   0.377   7.020   6.543 -0.1328 -0.8279  0.2980
  343SOL    HW2 2102   0.252   7.030   6.628  0.4209 -0.5066  1.0974
  344SOL     OW 2103   0.663   0.101   5.702 -0.0489  0.1019  0.3311
  344SOL    HW1 2104   0.700   0.070   5.619 -0.4330  0.1732  0.1300
  344SOL    HW2 2105   0.587   0.044   5.717 -0.9726  1.1474 -0.2194
  345SOL     OW 2106   4.874   6.183   2.288 -0.7192 -0.0498  0.3975
  345SOL    HW1 2107   4.875   6.091   2.317  1.5875  0.3023  1.6959
  345SOL    HW2 2108   4.852   6.232   2.367 -0.7910  0.5881 -0.0162
  346SOL     OW 2109   3.318   6.387   5.007  0.3271 -0.2391 -0.1277
  346SOL    HW1 2110   3.284   6.361   4.921  2.0627 -1.3342 -0.5259
  346SOL    HW2 2111   3.241   6.387   5.064 -0.5105 -1.7058 -1.1846
  347SOL     OW 2112   6.578   0.329   2.619  0.1857  0.1363 -0.5329
  347SOL    HW1 2113   6.659   0.380   2.618 -1.2624  2.6485  0.4448
  347SOL    HW2 2114   6.508   0.395   2.627 -1.8763 -1.9859  0.0843
  348SOL     OW 2115   1.629   3.534   1.724  0.6931 -0.3665  0.1061
  348SOL    HW1 2116   1.724   3.542   1.717  0.7024  2.2500  1.6558
  348SOL    HW2 2117   1.615   3.471   1.794  1.3211 -0.3645  0.2400
  349SOL     OW 2118   1.166   2.705   3.563  0.4258 -0.4047 -0.1076
  349SOL    HW1 2119   1.215   2.623   3.559 -0.0477 -0.6610 -3.1856
  349SOL    HW2 2120   1.074   2.679   3.555  0.0967  0.3541  0.8931
  350SOL     OW 2121   2.634   7.274   0.627  0.0726 -0.4484  0.7960
  350SOL    HW1 2122   2.585   7.223   0.691  0.3675 -0.5272  0.9633
  350SOL    HW2 2123   2.695   7.326   0.679 -0.4688  0.3556  0.6517
  351SOL     OW 2124   6.587   0.175   7.813  0.1387 -0.3167  0.2079
  351SOL    HW1 2125   6.628   0.194   7.728 -2.7300  2.4217 -0.7765
  351SOL    HW2 2126   6.596   0.256   7.863 -0.0978 -1.1684  1.6855
  352SOL     OW 2127   4.492   6.268   7.616 -0.0463 -0.1331 -0.3577
  352SOL    HW1 2128   4.501   6.288   7.709 -0.0480 -2.5659  0.2338
  352SOL    HW2 2129   4.574   6.225   7.593 -1.1553 -2.1557 -0.7031
  353SOL     OW 2130   5.986   4.628   0.005  0.1913  0.2984  0.0825
  353SOL    HW1 2131   5.891   4.638   0.002  0.2245  1.6750  1.8707
  353SOL    HW2 2132   6.005   4.600   0.095  1.3490 -2.1071 -0.8296
  354SOL     OW 2133   5.656   5.556   6.653  0.3531 -0.0357 -0.3057
  354SOL    HW1 2134   5.606   5.624   6.607 -1.3567 -0.1785  1.2284
  354SOL    HW2 2135   5.594   5.484   6.665  1.5397 -1.0651 -0.1161
  355SOL     OW 2136   0.365   7.869   0.123  0.0804 -0.4360 -0.2455
  355SOL    HW1 2137   0.412   7.873   0.039  0.4363  1.2634 -0.0005
  355SOL    HW2 2138   0.273   7.858   0.098  0.3641 -1.8167 -0.7853
  356SOL     OW 2139   0.797   7.180   1.884 -0.0716 -0.0634  0.4409
  356SOL    HW1 2140   0.857   7.239   1.929  1.4194 -0.3305 -1.1143
  356SOL    HW2 2141   0.795   7.102   1.939  2.7609 -0.9175 -0.5061
  357SOL     OW 2142   1.174   4.761   1.347  0.7745  0.7240 -0.3352
  357SOL    HW1 2143   1.260   4.750   1.307  0.6882  1.3111 -0.6936
  357SOL    HW2 2144   1.136   4.837   1.302 -1.5302 -1.7656 -3.0524
  358SOL     OW 2145   7.481   1.379   2.718 -0.0355  0.6024 -0.7970
  358SOL    HW1 2146   7.462   1.417   2.804  2.2590  1.2971 -0.5117
  358SOL    HW2 2147   7.448   1.443   2.656 -2.7422 -0.4208 -0.5428
  359SOL     OW 2148   0.421   3.961   3.518  0.0604 -0.2423 -0.0022
  359SOL    HW1 2149   0.331   3.927   3.520  0.1717 -0.5805 -0.6153
  359SOL    HW2 2150   0.423   4.027   3.588 -0.8870  0.3010 -0.4604
  360SOL     OW 2151   6.539   6.539   2.165  0.0617 -0.2137 -0.5072
  360SOL    HW1 2152   6.452   6.539   2.205  0.0475 -0.5494 -0.5340
  360SOL    HW2 2153   6.522   6.536   2.071  0.0978  0.2499 -0.5286
  361SOL     OW 2154   7.101   1.936   6.842  0.2382 -0.0551  0.3421
  361SOL    HW1 2155   7.109   1.989   6.763  1.1381  0.5719  0.8257
  361SOL    HW2 2156   7.129   1.994   6.912  0.0896 -0.8054  1.0376
  362SOL     OW 2157   6.466   0.900   7.600 -0.0080 -0.0220 -0.1586
  362SOL    HW1 2158   6.546   0.946   7.627  0.8116 -1.1864 -0.4995
  362SOL    HW2 2159   6.439   0.850   7.677  0.6304 -1.0094 -0.5469
  363SOL     OW 2160   6.650   7.710   2.686  0.1623  0.5331 -0.1966
  363SOL    HW1 2161   6.556   7.726   2.674 -0.3603 -1.8830  0.1826
  363SOL    HW2 2162   6.664   7.623   2.650  1.9555  0.2157  1.1656
  364SOL     OW 2163   2.318   4.235   2.161 -0.6415  0.1619  0.5889
  364SOL    HW1 2164   2.264   4.276   2.093 -1.1833  0.6718  1.3146
  364SOL    HW2 2165   2.287   4.145   2.166 -0.8183  0.2128  0.3926
  365SOL     OW 2166   1.768   7.194   6.976  0.5360  0.3082 -0.3627
  365SOL    HW1 2167   1.730   7.130   6.916  1.6332 -1.4199  0.6968
  365SOL    HW2 2168   1.703   7.204   7.045 -0.6527  2.1696 -1.6512
  366SOL     OW 2169   7.268   2.420   6.413  0.0303  0.4347 -0.2462
  366SOL    HW1 2170   7.196   2.376   6.458  0.0752  0.0717 -0.5265
  366SOL    HW2 2171   7.235   2.508   6.393  0.0537  0.6410  0.6019
  367SOL     OW 2172   6.466   3.868   2.516  0.8045 -0.4217 -0.4660
  367SOL    HW1 2173   6.547   3.851   2.564  1.3322  0.4195 -1.0217
  367SOL    HW2 2174   6.408   3.910   2.579  1.4165  0.4915 -0.4944
  368SOL     OW 2175   5.226   0.027   4.159 -0.1965 -0.3128 -0.6377
  368SOL    HW1 2176   5.229  -0.049   4.101 -0.1890 -1.8572  1.2805
  368SOL    HW2 2177   5.318   0.048   4.175 -0.1845 -0.5144 -0.4297
  369SOL     OW 2178   2.555   2.666   1.072  0.2614 -0.1835  0.2857
  369SOL    HW1 2179   2.483   2.728   1.088 -0.9499 -1.0143 -1.5786
  369SOL    HW2 2180   2.634   2.716   1.091 -0.7304  1.5152  0.1648
  370SOL     OW 2181   6.142   7.869   2.860 -0.4067 -0.0899  0.2902
  370SOL    HW1 2182   6.124   7.930   2.931  0.4653 -0.6798  1.0478
  370SOL    HW2 2183   6.145   7.924   2.781 -0.0720  0.7754  0.8894
  371SOL     OW 2184   7.229   3.318   1.432 -0.5007 -0.2330 -0.4156
  371SOL    HW1 2185   7.306   3.282   1.387 -0.1135  2.6915 -2.3551
  371SOL    HW2 2186   7.155   3.276   1.389 -0.0368  0.1019 -1.5954
  372SOL     OW 2187   3.960   1.425   7.690 -0.1125  0.2675 -0.3623
  372SOL    HW1 2188   3.887   1.475   7.728 -0.1405  0.6602 -0.9338
  372SOL    HW2 2189   3.924   1.388   7.610  0.1070 -0.1382 -0.2774
  373SOL     OW 2190   2.062   5.617   0.176 -0.0970  0.3354 -0.3665
  373SOL    HW1 2191   2.112   5.645   0.252  0.1893 -0.1909 -0.3549
  373SOL    HW2 2192   2.053   5.522   0.187 -1.2759  0.4371 -0.2584
  374SOL     OW 2193   1.725   2.679   3.922  0.0916 -0.0104  0.0566
  374SOL    HW1 2194   1.678   2.672   3.839 -0.6752 -0.3718  0.5174
  374SOL    HW2 2195   1.815   2.656   3.900 -0.2434 -0.8157 -0.5402
  375SOL     OW 2196   6.614   5.929   3.754  0.2869 -0.0210 -0.1251
  375SOL    HW1 2197   6.654   5.931   3.667  0.0400 -0.7439 -0.2569
  375SOL    HW2 2198   6.684   5.956   3.814  0.9695 -1.2197 -0.3572
  376SOL     OW 2199   4.557   2.342   2.841 -0.1340 -0.6474 -0.0450
  376SOL    HW1 2200   4.651   2.323   2.842  0.1669  0.4252 -2.1018
  376SOL    HW2 2201   4.522   2.283   2.775 -1.0250 -1.3566  1.0266
  377SOL     OW 2202   5.624   6.960   1.324 -0.4771  0.1034  0.0980
  377SOL    HW1 2203   5.581   6.875   1.316  1.3277 -0.8958  0.6137
  377SOL    HW2 2204   5.647   6.967   1.416  1.2938  0.1644 -0.3155
  378SOL     OW 2205   1.629   1.698   8.053  0.5927  0.0216 -0.1351
  378SOL    HW1 2206   1.677   1.617   8.034  0.3362  0.2120 -1.6821
  378SOL    HW2 2207   1.660   1.761   7.989 -1.1452  0.3732 -0.6986
  379SOL     OW 2208   8.150   3.510   3.557  0.2473 -0.2086 -0.2407
  379SOL    HW1 2209   8.201   3.431   3.539 -1.4648 -1.4312  0.0747
  379SOL    HW2 2210   8.142   3.513   3.653 -1.7222 -1.0469 -0.3335
  380SOL     OW 2211   3.844   1.999   7.078  0.1137  0.6670 -0.5484
  380SOL    HW1 2212   3.899   2.065   7.035  1.8808 -0.4305 -0.0776
  380SOL    HW2 2213   3.895   1.973   7.155 -1.1247 -0.3460 -0.0486
  381SOL     OW 2214   0.866   7.268   6.474  0.1122 -0.6114 -0.5188
  381SOL    HW1 2215   0.936   7.322   6.511  0.6547 -0.9192 -1.0539
  381SOL    HW2 2216   0.788   7.290   6.524  1.0325 -1.9048  1.6521
  382SOL     OW 2217   6.913   8.030   1.391  0.0969  0.0362 -0.5311
  382SOL    HW1 2218   6.821   8.057   1.395  0.2568  0.7875 -1.4849
  382SOL    HW2 2219   6.922   7.964   1.459 -0.7573  1.1150  0.6618
  383SOL     OW 2220   3.114   6.298   2.149 -0.4796 -0.2251  0.2502
  383SOL    HW1 2221   3.128   6.259   2.063  0.2545  1.3680 -0.3826
  383SOL    HW2 2222   3.019   6.309   2.156 -0.4561  0.8193 -0.9067
  384SOL     OW 2223   2.403   1.793   7.623 -0.4523  0.1840  0.2383
  384SOL    HW1 2224   2.455   1.846   7.562 -0.9911  0.1195 -0.2788
  384SOL    HW2 2225   2.469   1.743   7.672  0.0498  1.1463  0.5698
  385SOL     OW 2226   1.795   1.616   0.942  0.2041 -0.2047  0.6531
  385SOL    HW1 2227   1.764   1.546   1.000 -0.1102 -1.7537 -1.2592
  385SOL    HW2 2228   1.721   1.632   0.883  1.6374 -1.2353 -1.5562
  386SOL     OW 2229   7.392   7.545   8.076  0.1630 -0.3035  0.7980
  386SOL    HW1 2230   7.371   7.476   8.139  1.3904  0.1042  1.6812
  386SOL    HW2 2231   7.413   7.498   7.995  0.2169 -0.9179  1.1624
  387SOL     OW 2232   2.415   0.646   8.075  0.0366 -0.2849  0.2412
  387SOL    HW1 2233   2.335   0.653   8.128  0.2592 -0.1108  0.5555
  387SOL    HW2 2234   2.385   0.659   7.985 -0.2728 -0.1050  0.3687
  388SOL     OW 2235   3.414   7.875   0.588  0.4428  0.6247 -0.0880
  388SOL    HW1 2236   3.469   7.869   0.509  0.0943 -1.5713 -0.2304
  388SOL    HW2 2237   3.456   7.816   0.651  0.0823  1.4861  0.9935
  389SOL     OW 2238   2.715   1.174   7.127 -0.1428 -0.4662  0.3700
  389SOL    HW1 2239   2.727   1.241   7.060  3.6086 -0.9731  0.2948
  389SOL    HW2 2240   2.637   1.126   7.100 -1.3434  2.0823 -1.0741
  390SOL     OW 2241   1.567   3.966   4.330  0.5120  0.0648  0.8458
  390SOL    HW1 2242   1.594   4.034   4.391 -0.3888 -0.7416  2.1967
  390SOL    HW2 2243   1.473   3.977   4.321  0.5102 -0.3552  0.2409
  391SOL     OW 2244   3.823   7.439   3.164 -0.0590  0.3166 -0.7580
  391SOL    HW1 2245   3.871   7.501   3.109  1.3591 -0.1184 -0.0681
  391SOL    HW2 2246   3.892   7.394   3.214 -1.1154 -1.1973 -0.6188
  392SOL     OW 2247   6.581   2.530   3.423  0.2040  0.0996 -0.0039
  392SOL    HW1 2248   6.497   2.566   3.451  0.5048  1.8978 -1.2768
  392SOL    HW2 2249   6.643   2.603   3.432  0.8883 -0.0951 -2.4288
  393SOL     OW 2250   4.675   7.149   4.168  0.4920  0.0843 -0.1458
  393SOL    HW1 2251   4.640   7.225   4.120  1.3606  0.7476  0.2344
  393SOL    HW2 2252   4.769   7.166   4.173  0.5793 -0.5967  0.7119
  394SOL     OW 2253   4.411   7.126   8.147 -0.1345 -0.0361 -0.4114
  394SOL    HW1 2254   4.362   7.043   8.145 -1.4575  0.7255 -0.8622
  394SOL    HW2 2255   4.501   7.101   8.125 -0.2800 -1.4935  0.4922
  395SOL     OW 2256   7.331   4.455   7.038 -0.5759 -0.3704  0.8722
  395SOL    HW1 2257   7.391   4.381   7.031  0.2570  0.4410 -2.6358
  395SOL    HW2 2258   7.245   4.418   7.017 -0.7187 -0.8481  2.2056
  396SOL     OW 2259   1.133   3.936   7.143 -0.3308 -0.0837  0.0278
  396SOL    HW1 2260   1.080   3.939   7.223 -0.6795  0.4987 -0.2240
  396SOL    HW2 2261   1.086   3.875   7.085  0.3087 -1.0901  0.5270
  397SOL     OW 2262   1.077   1.523   4.191 -0.7097  0.0286 -0.3874
  397SOL    HW1 2263   1.013   1.517   4.119  0.1134  0.8626 -1.2176
  397SOL    HW2 2264   1.119   1.608   4.178 -0.1660 -0.0565  0.7742
  398SOL     OW 2265   2.592   5.567   2.285  0.1647 -0.0367 -0.3407
  398SOL    HW1 2266   2.675   5.537   2.248 -0.0734 -0.3834 -0.6029
  398SOL    HW2 2267   2.596   5.662   2.282  0.4086 -0.0583 -0.6769
  399SOL     OW 2268   2.890   7.184   2.242 -0.6627 -0.0684  0.0685
  399SOL    HW1 2269   2.954   7.193   2.313  0.2143  0.2272 -0.7431
  399SOL    HW2 2270   2.914   7.252   2.179 -0.6797 -1.0794 -1.0688
  400SOL     OW 2271   3.415   3.626   6.867 -0.1318 -0.9130 -0.3788
  400SOL    HW1 2272   3.461   3.556   6.913  0.1574 -0.0646  0.6543
  400SOL    HW2 2273   3.455   3.627   6.780  3.7289  1.4020  1.1610
  401SOL     OW 2274   1.498   0.591   4.046  0.2838  0.3675 -0.0128
  401SOL    HW1 2275   1.459   0.550   3.969  1.2464  0.6803 -0.6892
  401SOL    HW2 2276   1.580   0.545   4.059  0.6642  1.0695  0.1319
  402SOL     OW 2277   5.347   0.395   0.706 -0.6262 -0.3170 -0.3539
  402SOL    HW1 2278   5.343   0.317   0.651 -0.2328 -0.0316 -0.8000
  402SOL    HW2 2279   5.292   0.375   0.781 -0.2770 -1.1387 -0.3112
  403SOL     OW 2280   0.573   0.388   0.337 -0.2941 -0.1464 -0.4194
  403SOL    HW1 2281   0.545   0.479   0.344 -0.4012 -0.0706 -1.5540
  403SOL    HW2 2282   0.655   0.384   0.387 -0.8997  0.2755  0.6399
  404SOL     OW 2283   0.106   6.994   1.429  0.1740 -0.0596 -0.5301
  404SOL    HW1 2284   0.066   7.067   1.476 -1.6721 -0.9222 -0.6790
  404SOL    HW2 2285   0.134   7.032   1.345 -0.5428  0.5499 -0.5061
  405SOL     OW 2286   3.545   7.492   1.843  0.1018 -0.2817 -0.3891
  405SOL    HW1 2287   3.515   7.421   1.786  2.3122 -0.9066 -0.8671
  405SOL    HW2 2288   3.467   7.544   1.861 -1.2269 -1.8381 -1.4706
  406SOL     OW 2289   0.998   0.277   3.820 -0.3816 -0.1312 -0.1573
  406SOL    HW1 2290   0.971   0.366   3.797 -0.7484  0.3983  2.1515
  406SOL    HW2 2291   0.917   0.225   3.812 -0.0764 -0.4110 -1.9386
  407SOL     OW 2292   4.130   4.838   5.408  0.1666 -0.4011  0.1211
  407SOL    HW1 2293   4.093   4.897   5.342  0.5154 -0.4731 -0.1443
  407SOL    HW2 2294   4.080   4.856   5.488  0.5940  0.6068  0.1781
  408SOL     OW 2295   4.223   6.627   1.397 -0.6351  0.4048 -0.0745
  408SOL    HW1 2296   4.169   6.692   1.442 -0.5401  0.5398 -0.1583
  408SOL    HW2 2297   4.309   6.668   1.390 -0.7049  0.4714 -0.5765
  409SOL     OW 2298   7.608   2.001   1.995  0.4406 -0.0017  0.2082
  409SOL    HW1 2299   7.635   1.936   2.060 -1.0153  0.3971  1.2490
  409SOL    HW2 2300   7.533   1.962   1.950  0.0482  0.6246  0.3045
  410SOL     OW 2301   4.821   4.300   3.643 -0.3019  0.4418 -0.4587
  410SOL    HW1 2302   4.824   4.377   3.585  0.1737  0.9826  0.2673
  410SOL    HW2 2303   4.899   4.308   3.697  0.5638 -1.3689 -1.3642
  411SOL     OW 2304   1.877   0.987   3.714 -0.5512 -0.2144  0.5733
  411SOL    HW1 2305   1.793   1.031   3.730 -0.4486  1.1125 -1.9763
  411SOL    HW2 2306   1.852   0.900   3.682 -0.8927 -0.4124  1.3578
  412SOL     OW 2307   1.582   6.852   4.621 -0.0879  0.0099  0.1641
  412SOL    HW1 2308   1.601   6.765   4.586 -0.6471 -0.3671  0.7782
  412SOL    HW2 2309   1.531   6.896   4.552 -0.9809 -0.6438  0.3882
  413SOL     OW 2310   7.141   3.594   4.703  0.2504 -0.0794  0.0202
  413SOL    HW1 2311   7.230   3.560   4.694  1.0456  1.2072  2.0493
  413SOL    HW2 2312   7.091   3.521   4.739  1.0506 -0.2239  0.9109
  414SOL     OW 2313   6.427   5.716   0.996  0.3905 -0.2472 -0.0090
  414SOL    HW1 2314   6.393   5.666   1.070  1.3684 -0.8620  0.0522
  414SOL    HW2 2315   6.522   5.719   1.010  0.4139  1.1543 -0.3188
  415SOL     OW 2316   3.445   0.028   7.825 -0.6602  0.6560  0.2261
  415SOL    HW1 2317   3.358   0.061   7.802 -0.8469 -0.5015 -0.8146
  415SOL    HW2 2318   3.488   0.013   7.740  0.7718  1.7319  0.7206
  416SOL     OW 2319   7.309   4.902   4.704  0.5577  0.0074 -0.0563
  416SOL    HW1 2320   7.282   4.899   4.796 -0.4911  0.5263 -0.3271
  416SOL    HW2 2321   7.326   4.995   4.688  2.8580 -0.3151  0.1674
  417SOL     OW 2322   8.121   2.618   2.423 -0.3061  0.3914 -0.1761
  417SOL    HW1 2323   8.069   2.698   2.427 -0.9238 -0.0359  0.5225
  417SOL    HW2 2324   8.090   2.572   2.345 -1.4380 -0.1525  0.5646
  418SOL     OW 2325   2.150   6.241   6.645  0.2731  0.3980  0.1601
  418SOL    HW1 2326   2.175   6.324   6.605  0.4974  0.3929  0.2886
  418SOL    HW2 2327   2.055   6.238   6.636  0.3134  0.4296 -0.3041
  419SOL     OW 2328   3.474   5.190   2.659  0.4941 -0.4965  0.2077
  419SOL    HW1 2329   3.461   5.257   2.726 -2.5051  0.6310 -1.3125
  419SOL    HW2 2330   3.561   5.208   2.623 -0.4842  3.2146 -0.7075
  420SOL     OW 2331   4.314   5.164   2.563 -0.0631 -0.8797 -0.5947
  420SOL    HW1 2332   4.302   5.072   2.590 -0.7252 -0.0238  2.4300
  420SOL    HW2 2333   4.246   5.178   2.497  0.4716 -2.7119 -1.5984
  421SOL     OW 2334   5.258   7.355   7.128  0.8016 -0.4664  0.4818
  421SOL    HW1 2335   5.199   7.283   7.106  0.4028  0.2014 -0.7066
  421SOL    HW2 2336   5.282   7.393   7.043  2.5371 -0.3970  0.9610
  422SOL     OW 2337   2.953   2.891   6.748 -0.6327 -0.0601  0.3320
  422SOL    HW1 2338   2.935   2.824   6.682  1.2348  1.8799 -2.3464
  422SOL    HW2 2339   3.048   2.891   6.756 -0.7950 -0.7910  3.8000
  423SOL     OW 2340   6.353   1.493   0.757  0.1999 -0.3692  0.5578
  423SOL    HW1 2341   6.334   1.418   0.813  0.9763 -0.6082  0.5146
  423SOL    HW2 2342   6.356   1.457   0.668  2.2837 -0.6463  0.6919
  424SOL     OW 2343   4.431   3.978   4.826 -0.2605 -0.1629  0.2129
  424SOL    HW1 2344   4.469   3.898   4.791  0.1240  0.2886 -0.4279
  424SOL    HW2 2345   4.406   3.956   4.916  2.1195 -0.3334  0.9063
  425SOL     OW 2346   7.935   1.924   6.303 -0.2405 -1.0125  0.3069
  425SOL    HW1 2347   7.856   1.886   6.265  0.5324 -1.3272 -1.0841
  425SOL    HW2 2348   8.004   1.902   6.239  1.0183 -1.0171  1.6279
  426SOL     OW 2349   7.463   4.742   7.303 -0.1464  0.6192 -0.0281
  426SOL    HW1 2350   7.529   4.691   7.349 -1.3092 -0.8306  0.0917
  426SOL    HW2 2351   7.414   4.787   7.373  0.5120  1.4678 -0.1004
  427SOL     OW 2352   6.342   1.316   0.535 -0.4081  0.4261 -0.2583
  427SOL    HW1 2353   6.282   1.369   0.483  0.1122  1.4134  0.1248
  427SOL    HW2 2354   6.404   1.280   0.471 -1.0059 -0.0668 -0.5702
  428SOL     OW 2355   2.660   4.796   1.585 -0.0899  0.0817  0.5316
  428SOL    HW1 2356   2.693   4.821   1.672  1.0779 -2.0078  0.7569
  428SOL    HW2 2357   2.600   4.723   1.603 -0.0368 -0.1934 -0.4055
  429SOL     OW 2358   3.856   0.373   3.248  0.4768  0.5514  0.8729
  429SOL    HW1 2359   3.867   0.437   3.178  1.6141 -1.0834 -0.5315
  429SOL    HW2 2360   3.939   0.375   3.295  0.3439  0.4451  1.1148
  430SOL     OW 2361   6.460   2.784   5.146  0.2895 -0.0206  0.2423
  430SOL    HW1 2362   6.522   2.773   5.073  1.4693  1.4728  0.9702
  430SOL    HW2 2363   6.490   2.721   5.212 -0.2834 -0.7936 -0.2186
  431SOL     OW 2364   4.488   6.482   5.319  0.3380 -0.6269 -0.3769
  431SOL    HW1 2365   4.451   6.461   5.233 -1.2090  0.0876  0.0928
  431SOL    HW2 2366   4.451   6.567   5.341  0.0576 -1.1677  1.3678
  432SOL     OW 2367   6.479   3.344   8.103  0.0562  0.2572 -0.4389
  432SOL    HW1 2368   6.573   3.343   8.124  0.0124  0.2075 -0.2378
  432SOL    HW2 2369   6.452   3.253   8.112 -0.5799  0.6175  2.2222
  433SOL     OW 2370   2.210   4.353   0.122  0.1043  0.4644 -0.2879
  433SOL    HW1 2371   2.196   4.354   0.027  0.0815  0.0738 -0.2903
  433SOL    HW2 2372   2.304   4.340   0.133 -0.0723 -0.8552 -0.2544
  434SOL     OW 2373   5.682   0.479   2.133  0.5805 -0.6672 -0.4274
  434SOL    HW1 2374   5.714   0.398   2.093  1.0800 -1.1201  0.8332
  434SOL    HW2 2375   5.744   0.546   2.102 -0.2378 -0.5906 -2.0391
  435SOL     OW 2376   0.623   2.194   1.408 -0.0666 -0.6174 -0.4622
  435SOL    HW1 2377   0.684   2.158   1.344  0.9006  0.8435 -0.3919
  435SOL    HW2 2378   0.678   2.224   1.480 -0.9334 -0.0294 -0.0273
  436SOL     OW 2379   1.928   3.786   7.693  0.7107 -0.4213 -0.1155
  436SOL    HW1 2380   2.011   3.822   7.723 -0.0244 -0.8678  2.7964
  436SOL    HW2 2381   1.945   3.756   7.604  3.2619  0.7067 -0.0949
  437SOL     OW 2382   3.723   3.834   5.687 -0.1193  0.0316  1.2131
  437SOL    HW1 2383   3.636   3.866   5.712 -0.1094 -0.0843  1.4009
  437SOL    HW2 2384   3.748   3.887   5.611 -0.1965  0.3115  1.3858
  438SOL     OW 2385   7.061   0.942   2.295 -0.2971 -0.0447  0.0338
  438SOL    HW1 2386   7.095   0.852   2.296  0.5094  0.2605  0.9350
  438SOL    HW2 2387   6.985   0.939   2.353 -1.2407 -0.4930 -1.1841
  439SOL     OW 2388   7.883   0.603   2.699  0.2093 -0.0726  0.0885
  439SOL    HW1 2389   7.849   0.644   2.779  0.0457 -2.5731  1.4104
  439SOL    HW2 2390   7.965   0.648   2.682  0.1487  0.6582  1.5588
  440SOL     OW 2391   4.239   3.874   6.890  0.3241  0.2332 -0.6969
  440SOL    HW1 2392   4.189   3.953   6.872 -1.9903 -1.3873 -1.8795
  440SOL    HW2 2393   4.186   3.803   6.854  1.2778 -2.1066  2.0991
  441SOL     OW 2394   5.192   2.270   0.158  0.5139 -0.3031 -0.4939
  441SOL    HW1 2395   5.105   2.256   0.119 -0.3543 -0.1055  1.2513
  441SOL    HW2 2396   5.227   2.346   0.113 -1.0031  0.7247 -0.0128
  442SOL     OW 2397   4.489   1.890   3.930 -0.1795  0.0821 -0.2437
  442SOL    HW1 2398   4.576   1.894   3.890 -0.0310  0.7454  0.1393
  442SOL    HW2 2399   4.452   1.977   3.916 -0.9068 -0.2894 -0.6744
  443SOL     OW 2400   1.576   4.027   3.279  0.5723  0.4572  0.7850
  443SOL    HW1 2401   1.481   4.015   3.283  0.6594 -0.2757  0.6175
  443SOL    HW2 2402   1.609   3.984   3.358  0.8429 -0.0473  0.3992
  444SOL     OW 2403   6.257   4.568   2.129  0.3664  0.2095 -0.2805
  444SOL    HW1 2404   6.169   4.540   2.101  0.4364 -0.1771 -0.1139
  444SOL    HW2 2405   6.314   4.543   2.057  0.2974  0.7305 -0.5190
  445SOL     OW 2406   4.150   4.835   1.255 -0.0914 -0.2172 -0.2935
  445SOL    HW1 2407   4.161   4.793   1.170  1.0878  0.8349 -0.6938
  445SOL    HW2 2408   4.120   4.924   1.234  0.3558  0.1021  0.3835
  446SOL     OW 2409   2.612   6.150   5.248  0.3293  0.1132 -0.5190
  446SOL    HW1 2410   2.638   6.124   5.160 -0.9683 -0.7040 -0.6732
  446SOL    HW2 2411   2.521   6.121   5.257  0.4173  0.2233  1.0686
  447SOL     OW 2412   4.401   6.241   5.435  0.1040  0.6702  0.0498
  447SOL    HW1 2413   4.434   6.162   5.392  0.5408  0.8198  0.0997
  447SOL    HW2 2414   4.414   6.310   5.370 -0.1562  0.7215  0.0543
  448SOL     OW 2415   5.958   2.874   2.427 -0.2686  0.0718  0.5479
  448SOL    HW1 2416   5.938   2.965   2.407 -2.0477 -0.3883  0.0155
  448SOL    HW2 2417   5.961   2.831   2.342 -1.0365 -0.6491  0.8721
  449SOL     OW 2418   1.644   2.355   8.075  0.0444 -0.5987 -0.2332
  449SOL    HW1 2419   1.711   2.313   8.021  1.1434 -0.7570  1.1995
  449SOL    HW2 2420   1.631   2.441   8.035  0.0307 -1.1189 -1.3704
  450SOL     OW 2421   0.593   5.091   6.486 -0.4701  0.4707 -0.2939
  450SOL    HW1 2422   0.639   5.168   6.519 -0.8758  0.9621 -0.8524
  450SOL    HW2 2423   0.509   5.091   6.532 -0.2661  0.0642  0.0867
  451SOL     OW 2424   6.428   5.823   6.860 -0.3808  0.3472 -0.4858
  451SOL    HW1 2425   6.343   5.860   6.837 -1.2228 -0.3235  1.3542
  451SOL    HW2 2426   6.422   5.731   6.834 -0.6897  0.0078  0.7484
  452SOL     OW 2427   1.298   4.169   1.471 -0.0171 -0.1104  0.1477
  452SOL    HW1 2428   1.386   4.141   1.444 -0.2920 -0.8071 -0.0446
  452SOL    HW2 2429   1.314   4.236   1.537  0.6600  0.0924 -0.2103
  453SOL     OW 2430   2.768   2.913   3.277 -0.2475 -0.0951 -0.5344
  453SOL    HW1 2431   2.823   2.976   3.231 -1.0459 -0.2221 -1.7011
  453SOL    HW2 2432   2.757   2.841   3.215 -1.5965 -0.1371 -0.2692
  454SOL     OW 2433   4.707   7.407   2.409 -0.1420  0.1742  0.1408
  454SOL    HW1 2434   4.800   7.425   2.399 -0.4423  0.8997 -1.9685
  454SOL    HW2 2435   4.700   7.312   2.405  0.4989  0.1272  0.0769
  455SOL     OW 2436   7.169   3.504   5.364  0.6151 -0.1172  0.1026
  455SOL    HW1 2437   7.200   3.515   5.453  2.5075 -0.1763 -0.5019
  455SOL    HW2 2438   7.148   3.592   5.334  0.7300 -0.0087  0.3427
  456SOL     OW 2439   8.064   3.732   0.030 -0.8543  0.3591 -0.6845
  456SOL    HW1 2440   8.067   3.821  -0.004  0.2042  0.2929 -0.7950
  456SOL    HW2 2441   8.080   3.742   0.124 -1.8424  0.3692 -0.5036
  457SOL     OW 2442   3.226   7.872   6.479  0.0083  0.6109 -0.3267
  457SOL    HW1 2443   3.168   7.943   6.451 -1.0747 -0.4051 -0.7665
  457SOL    HW2 2444   3.174   7.823   6.542  0.7668  0.2461  0.0213
  458SOL     OW 2445   3.194   8.125   2.320  0.1237  0.1598 -0.1064
  458SOL    HW1 2446   3.170   8.204   2.271 -1.7236 -1.5914 -2.2863
  458SOL    HW2 2447   3.132   8.059   2.290  1.5820 -2.1560  1.6206
  459SOL     OW 2448   7.940   2.544   2.658 -0.4965  0.0038 -0.4145
  459SOL    HW1 2449   7.925   2.519   2.567  2.3770 -1.1128 -0.6672
  459SOL    HW2 2450   7.984   2.470   2.698  1.1386  1.6347  1.0205
  460SOL     OW 2451   5.447   0.033   6.590 -0.0097  0.8169 -0.0233
  460SOL    HW1 2452   5.366  -0.018   6.601 -1.3084  2.4790 -1.3993
  460SOL    HW2 2453   5.506  -0.002   6.658 -1.6202 -0.8942  0.6021
  461SOL     OW 2454   0.059   8.103   1.428 -0.2537 -0.0430  0.0275
  461SOL    HW1 2455   0.050   8.120   1.522  1.0463 -1.4410  0.4521
  461SOL    HW2 2456   0.028   8.013   1.417  0.9218 -0.3973 -0.6091
  462SOL     OW 2457   1.418   4.252   3.052  1.0233  0.0149  0.6600
  462SOL    HW1 2458   1.405   4.184   3.118 -2.2708 -1.1836 -1.0372
  462SOL    HW2 2459   1.346   4.314   3.066 -1.0441 -1.2984 -2.8271
  463SOL     OW 2460   0.183   4.428   4.616 -0.5107  0.4545 -0.1338
  463SOL    HW1 2461   0.247   4.453   4.683  1.8073 -0.4530 -1.8784
  463SOL    HW2 2462   0.209   4.478   4.539 -2.3323  0.4969 -0.7588
  464SOL     OW 2463   0.295   4.375   3.504  0.5748 -0.3130 -0.3778
  464SOL    HW1 2464   0.240   4.310   3.459  1.2058 -1.1032 -0.0255
  464SOL    HW2 2465   0.264   4.459   3.470  0.0646 -0.8155 -1.2049
  465SOL     OW 2466   7.830   1.870   3.246 -0.1830  0.2607  0.0715
  465SOL    HW1 2467   7.885   1.903   3.175  0.6576 -2.0194 -0.3973
  465SOL    HW2 2468   7.753   1.927   3.245 -0.9048 -0.5397 -3.6676
  466SOL     OW 2469   7.644   7.021   6.925  0.6266  0.2842 -0.0482
  466SOL    HW1 2470   7.729   7.023   6.969 -0.3940  1.0154  2.0433
  466SOL    HW2 2471   7.660   7.064   6.841  2.2043  0.9701  0.5543
  467SOL     OW 2472   2.158   6.895   2.731 -0.6368  0.2339 -0.2879
  467SOL    HW1 2473   2.124   6.980   2.756 -0.0050  0.0436  1.3636
  467SOL    HW2 2474   2.095   6.832   2.768  0.0343 -0.0547  0.3769
  468SOL     OW 2475   0.744   7.417   7.644 -0.2296  0.1240 -0.6822
  468SOL    HW1 2476   0.818   7.461   7.603 -1.2387  0.0629 -2.7168
  468SOL    HW2 2477   0.672   7.428   7.581 -2.1969  0.8786  1.5460
  469SOL     OW 2478   1.474   2.555   7.872  0.0991 -0.0828  0.2767
  469SOL    HW1 2479   1.468   2.497   7.796 -0.9746  2.2122 -1.5124
  469SOL    HW2 2480   1.384   2.567   7.900  0.4395 -0.3980  1.5604
  470SOL     OW 2481   7.963   0.573   7.584 -0.1767  0.2448 -0.2466
  470SOL    HW1 2482   7.976   0.533   7.670  1.1469  0.5755 -0.2649
  470SOL    HW2 2483   7.895   0.639   7.597  1.0165  1.3163  0.9266
  471SOL     OW 2484   1.855   0.969   1.347  0.1070 -0.4637 -0.1747
  471SOL    HW1 2485   1.880   0.891   1.396  0.6647 -0.2463 -0.1086
  471SOL    HW2 2486   1.938   1.011   1.324 -0.1427 -0.5155 -1.2326
  472SOL     OW 2487   2.600   7.778   1.473 -0.1689  0.9478  0.2656
  472SOL    HW1 2488   2.624   7.870   1.479  1.0261  0.5893  2.0805
  472SOL    HW2 2489   2.523   7.769   1.530 -1.2158  1.0565 -1.0808
  473SOL     OW 2490   0.774   0.152   0.473  0.1634  0.0090  0.4388
  473SOL    HW1 2491   0.799   0.176   0.383 -1.0874 -0.0065  0.0773
  473SOL    HW2 2492   0.681   0.172   0.478 -0.4755 -2.7540  0.7919
  474SOL     OW 2493   1.548   7.723   1.026  0.3099 -0.0240 -0.2553
  474SOL    HW1 2494   1.486   7.776   0.977  0.6052  0.2856 -0.2994
  474SOL    HW2 2495   1.528   7.742   1.118 -0.2105 -0.5663 -0.2540
  475SOL     OW 2496   4.194   6.087   0.246 -0.6283  0.0384  0.0948
  475SOL    HW1 2497   4.167   6.061   0.158 -2.6188 -0.6531  0.8459
  475SOL    HW2 2498   4.168   6.014   0.302 -0.1199  0.7906  1.3525
  476SOL     OW 2499   1.191   4.463   2.413 -0.3431  0.6254  0.5578
  476SOL    HW1 2500   1.259   4.508   2.463  0.4764  2.0051 -1.6404
  476SOL    HW2 2501   1.129   4.533   2.389 -0.5671  0.0740 -0.5252
  477SOL     OW 2502   3.675   4.008   2.440 -0.2016  0.0261 -0.5403
  477SOL    HW1 2503   3.765   4.003   2.408  0.4636 -0.0923  1.2393
  477SOL    HW2 2504   3.628   4.055   2.371  1.1919  0.0066 -1.5494
  478SOL     OW 2505   2.464   1.102   7.087  0.1111  0.7675 -0.3719
  478SOL    HW1 2506   2.429   1.013   7.090 -0.9737  1.1375 -1.2526
  478SOL    HW2 2507   2.428   1.144   7.165  1.0197  0.3179  0.3099
  479SOL     OW 2508   6.605   2.073   1.453  0.0480 -0.5841 -0.0380
  479SOL    HW1 2509   6.605   2.133   1.528 -0.3999 -0.3502 -0.2210
  479SOL    HW2 2510   6.610   1.986   1.492 -0.3937 -0.4750  0.2752
  480SOL     OW 2511   5.965   7.366   4.665 -0.2778 -0.3482 -0.2091
  480SOL    HW1 2512   5.962   7.271   4.653 -0.3451 -0.4209  0.3502
  480SOL    HW2 2513   6.053   7.382   4.700 -0.2915 -0.2084 -0.2391
  481SOL     OW 2514   6.902   2.524   7.772 -0.2310 -0.1597  0.3482
  481SOL    HW1 2515   6.923   2.432   7.757  0.7376  0.1315 -0.1461
  481SOL    HW2 2516   6.987   2.568   7.779 -0.6776  0.6520  0.9161
  482SOL     OW 2517   6.951   3.551   1.543  0.0014 -0.0841 -0.0257
  482SOL    HW1 2518   7.009   3.557   1.619  0.0618 -0.7351 -0.0132
  482SOL    HW2 2519   6.863   3.566   1.579  0.2061  1.5251 -0.1456
  483SOL     OW 2520   1.398   3.115   4.961  0.1831  0.8231  0.1956
  483SOL    HW1 2521   1.335   3.048   4.933  0.7270  0.5177 -0.3425
  483SOL    HW2 2522   1.393   3.115   5.056  0.5316 -0.3503  0.2266
  484SOL     OW 2523   7.571   1.414   0.891 -0.3046 -0.1443  0.2436
  484SOL    HW1 2524   7.536   1.351   0.827 -0.5621 -0.3087  0.5421
  484SOL    HW2 2525   7.495   1.468   0.914  0.1549  1.0438 -0.8797
  485SOL     OW 2526   3.149   5.860   7.153  0.2713  0.4006  0.6020
  485SOL    HW1 2527   3.095   5.841   7.076 -1.8119 -1.0468  2.3081
  485SOL    HW2 2528   3.231   5.815   7.137  0.7820  1.9272 -1.6840
  486SOL     OW 2529   7.996   6.942   5.223 -0.0298 -0.2731 -0.1390
  486SOL    HW1 2530   8.000   7.016   5.162  2.2991 -0.2272 -0.0026
  486SOL    HW2 2531   8.013   6.865   5.168  0.8085 -0.3600  0.2331
  487SOL     OW 2532   2.404   4.164   7.657 -0.4280 -0.6739 -0.0203
  487SOL    HW1 2533   2.424   4.248   7.698 -1.1582  0.5580 -2.0378
  487SOL    HW2 2534   2.360   4.114   7.725  1.3602 -0.0452  1.6985
  488SOL     OW 2535   5.285   4.517   5.684 -0.3935  0.4253  0.1525
  488SOL    HW1 2536   5.323   4.599   5.650  0.5128 -0.5934 -1.4473
  488SOL    HW2 2537   5.191   4.528   5.672 -0.3146  1.3729  0.2989
  489SOL     OW 2538   3.253   2.967   6.034 -0.1109 -0.1791  0.3197
  489SOL    HW1 2539   3.166   2.997   6.008 -0.3080  0.8773  2.0335
  489SOL    HW2 2540   3.237   2.904   6.103  0.4753 -0.7210 -0.0304
  490SOL     OW 2541   3.476   2.204   5.317 -0.3774  0.2892  0.1891
  490SOL    HW1 2542   3.483   2.271   5.385  1.3519 -1.4137  1.7984
  490SOL    HW2 2543   3.397   2.156   5.339 -0.4688  0.4771  0.2754
  491SOL     OW 2544   3.261   8.121   4.557 -0.0241 -0.3569 -0.1031
  491SOL    HW1 2545   3.226   8.203   4.523 -0.3610 -0.4001  0.1255
  491SOL    HW2 2546   3.201   8.099   4.629  1.1683  0.1962  1.1000
  492SOL     OW 2547   0.698   6.764   0.440  0.1127  0.2924  0.4030
  492SOL    HW1 2548   0.619   6.806   0.473  0.7690  4.0396 -2.1427
  492SOL    HW2 2549   0.708   6.797   0.351  3.6039 -1.3986 -0.0236
  493SOL     OW 2550   5.684   2.310   2.392 -0.2955  0.2114 -0.2862
  493SOL    HW1 2551   5.651   2.287   2.305  0.8117  0.6569 -0.8411
  493SOL    HW2 2552   5.712   2.226   2.430 -0.4542  0.0603 -0.5029
  494SOL     OW 2553   1.100   4.162   2.689 -0.1717  0.3488 -0.8201
  494SOL    HW1 2554   1.121   4.096   2.755 -2.8003 -2.0390 -2.1479
  494SOL    HW2 2555   1.170   4.154   2.624  0.5925  0.2816 -0.0037
  495SOL     OW 2556   3.056   7.102   8.138 -0.6960 -0.2549  0.5382
  495SOL    HW1 2557   2.982   7.162   8.127 -0.2120  0.2942  0.2118
  495SOL    HW2 2558   3.065   7.093   8.233 -0.5796  0.4470  0.6013
  496SOL     OW 2559   1.909   6.225   7.346 -0.1054  0.1225  0.5928
  496SOL    HW1 2560   1.954   6.204   7.428 -0.9254 -2.8123  0.3958
  496SOL    HW2 2561   1.816   6.224   7.368 -0.3518 -0.9506 -0.3496
  497SOL     OW 2562   4.386   2.753   6.638  0.0128 -0.1918 -0.7977
  497SOL    HW1 2563   4.381   2.702   6.720 -1.2353 -1.3035 -1.5214
  497SOL    HW2 2564   4.446   2.824   6.658  1.3143 -1.5651  0.4877
  498SOL     OW 2565   0.426   5.587   7.695 -0.3895  0.3537  0.0059
  498SOL    HW1 2566   0.344   5.616   7.735 -0.6860 -2.3847  1.6855
  498SOL    HW2 2567   0.483   5.567   7.770  0.7855 -0.4430 -1.0578
  499SOL     OW 2568   3.258   4.466   1.421 -0.4952  0.0050  0.2013
  499SOL    HW1 2569   3.301   4.406   1.481 -3.2865 -0.9395  1.4600
  499SOL    HW2 2570   3.310   4.464   1.341  2.2991 -0.1431  1.9233
  500SOL     OW 2571   1.291   6.290   3.621  0.0574  0.2063 -0.4372
  500SOL    HW1 2572   1.322   6.207   3.584  1.5567 -0.6198  2.3530
  500SOL    HW2 2573   1.269   6.344   3.545  0.8389 -2.0556 -2.3960
  501SOL     OW 2574   5.288   3.758   7.544  0.2676 -0.3214 -0.1724
  501SOL    HW1 2575   5.347   3.747   7.469  0.3290 -0.0824 -0.1591
  501SOL    HW2 2576   5.332   3.713   7.616  1.3679  1.4468  0.3316
  502SOL     OW 2577   5.123   2.155   4.603  0.4454  0.2943  0.2775
  502SOL    HW1 2578   5.068   2.130   4.529  1.3593 -3.7170  0.7381
  502SOL    HW2 2579   5.069   2.136   4.680  0.5741  1.6182  0.7286
  503SOL     OW 2580   3.665   7.408   7.030  0.6564  0.3110  0.1566
  503SOL    HW1 2581   3.697   7.319   7.017 -0.5378  0.0721 -1.5698
  503SOL    HW2 2582   3.585   7.398   7.081  0.9511  0.4742  0.6531
  504SOL     OW 2583   1.878   6.447   3.389  0.3347 -0.2061 -0.1204
  504SOL    HW1 2584   1.791   6.420   3.360 -1.7423  3.9797  1.4098
  504SOL    HW2 2585   1.901   6.521   3.333  3.1689 -1.3357 -0.6444
  505SOL     OW 2586   4.532   5.544   4.339  0.0432  0.4782  0.4062
  505SOL    HW1 2587   4.615   5.588   4.323  0.2990 -0.6245 -1.6091
  505SOL    HW2 2588   4.556   5.460   4.380 -0.1163  0.4159  0.3757
  506SOL     OW 2589   4.500   3.968   4.026 -0.8622  0.5456 -0.2559
  506SOL    HW1 2590   4.593   3.963   4.049 -0.8346  0.6390 -0.3433
  506SOL    HW2 2591   4.478   4.061   4.034 -1.2426  0.3750  0.8902
  507SOL     OW 2592   7.762   2.648   3.162 -0.4202 -0.1200 -0.1380
  507SOL    HW1 2593   7.683   2.702   3.168 -0.8602 -0.8779  1.7043
  507SOL    HW2 2594   7.825   2.702   3.114 -0.9330  1.9215  1.3638
  508SOL     OW 2595   8.046   7.646   1.967  0.1435  0.2110 -0.1478
  508SOL    HW1 2596   8.066   7.702   2.042 -0.7863  0.9332 -0.4058
  508SOL    HW2 2597   7.951   7.655   1.956  0.2610  0.1080 -1.3940
  509SOL     OW 2598   2.022   6.013   3.883 -0.3138  0.1668  0.3982
  509SOL    HW1 2599   2.108   6.001   3.843 -0.3196  1.3471  0.0103
  509SOL    HW2 2600   1.981   5.926   3.879 -0.5213  0.3128 -2.6649
  510SOL     OW 2601   6.897   7.648   3.662  0.2512 -0.1480  0.6512
  510SOL    HW1 2602   6.931   7.737   3.675  0.0452 -0.1860  1.5036
  510SOL    HW2 2603   6.829   7.638   3.729 -0.3184 -0.6520  0.0179
  511SOL     OW 2604   6.947   1.843   7.930  0.1226  0.2353 -0.0939
  511SOL    HW1 2605   6.961   1.827   8.023 -1.4658  0.6976  0.2530
  511SOL    HW2 2606   6.873   1.786   7.907  0.4390  0.1953 -1.0535
  512SOL     OW 2607   7.201   4.054   4.520 -0.4973  0.2643 -0.0104
  512SOL    HW1 2608   7.117   4.008   4.522  0.1076 -0.8788  1.9655
  512SOL    HW2 2609   7.179   4.145   4.540 -1.6304  0.8575 -3.2803
  513SOL     OW 2610   3.013   1.349   4.860  0.3911 -0.0837  0.0287
  513SOL    HW1 2611   2.986   1.266   4.822  1.4047 -0.4574  0.0889
  513SOL    HW2 2612   3.042   1.401   4.784  0.5569 -0.1029  0.0786
  514SOL     OW 2613   3.495   5.692   3.657  0.4155  0.4836  0.4802
  514SOL    HW1 2614   3.560   5.642   3.608 -1.2817 -1.1819 -0.1861
  514SOL    HW2 2615   3.527   5.783   3.653  2.7548 -0.2657  0.3606
  515SOL     OW 2616   1.690   3.803   1.405  0.0031  0.4061  0.0883
  515SOL    HW1 2617   1.674   3.897   1.395 -0.7846  0.4785  1.6818
  515SOL    HW2 2618   1.604   3.762   1.392  0.7485 -0.3977 -3.1007
  516SOL     OW 2619   4.948   8.024   1.326 -0.0858  0.4892  0.1658
  516SOL    HW1 2620   4.912   8.080   1.258 -1.7456  0.1473  0.7339
  516SOL    HW2 2621   4.894   8.041   1.403  0.8843 -0.1536  1.0105
  517SOL     OW 2622   7.870   6.219   1.996  0.3877 -0.5861  0.2786
  517SOL    HW1 2623   7.936   6.287   2.010  1.6209 -1.7438  0.3266
  517SOL    HW2 2624   7.816   6.220   2.075  1.7094 -1.0554  1.2211
  518SOL     OW 2625   5.691   0.509   2.568 -0.4500  0.0583 -0.4563
  518SOL    HW1 2626   5.602   0.541   2.554 -0.5411  0.5918  1.0903
  518SOL    HW2 2627   5.714   0.539   2.656  1.4040  0.2374 -0.9525
  519SOL     OW 2628   3.046   7.026   4.217 -0.6343  0.0605 -0.1404
  519SOL    HW1 2629   3.099   7.000   4.142  0.7179 -0.2907  0.8749
  519SOL    HW2 2630   3.103   7.010   4.293 -1.9300  0.4281  0.9581
  520SOL     OW 2631   7.965   1.452   1.436 -0.7748 -0.2528  0.7208
  520SOL    HW1 2632   7.885   1.501   1.456 -0.7477  0.6719 -1.1747
  520SOL    HW2 2633   8.036   1.511   1.459 -0.7353  1.6459 -3.3795
  521SOL     OW 2634   1.495   3.144   8.050 -0.2022 -0.0051 -0.1198
  521SOL    HW1 2635   1.483   3.095   7.968  1.3473  1.8889 -1.5606
  521SOL    HW2 2636   1.571   3.102   8.091  0.2603  0.2952 -0.6581
  522SOL     OW 2637   5.040   6.348   5.052  0.2139 -0.3532 -0.3221
  522SOL    HW1 2638   4.972   6.299   5.099 -0.0970 -0.3233 -0.7257
  522SOL    HW2 2639   5.003   6.359   4.964  0.6323 -0.1015 -0.4652
  523SOL     OW 2640   3.899   8.023   7.167  0.0611  0.4282 -0.1828
  523SOL    HW1 2641   3.927   8.077   7.240  2.2112  0.0508 -0.6785
  523SOL    HW2 2642   3.940   7.938   7.183 -2.3904 -0.8176  0.0345
  524SOL     OW 2643   1.494   5.574   7.956 -0.0833  0.1604  0.0839
  524SOL    HW1 2644   1.577   5.620   7.944  0.8345 -1.1277  1.2771
  524SOL    HW2 2645   1.503   5.528   8.040 -2.5442  1.1288  0.9855
  525SOL     OW 2646   3.066   2.895   0.988  0.5622  0.0612 -0.4012
  525SOL    HW1 2647   3.070   2.818   0.931 -0.4894 -0.8536  0.6854
  525SOL    HW2 2648   3.152   2.899   1.029  0.5503 -0.7430 -0.2650
  526SOL     OW 2649   6.103   0.411   3.472 -0.2161  0.2169 -0.1308
  526SOL    HW1 2650   6.127   0.418   3.380  0.3131 -1.0493 -0.1093
  526SOL    HW2 2651   6.160   0.473   3.517 -1.2223  1.6526 -0.7413
  527SOL     OW 2652   5.333   2.044   1.975  0.3081  0.0411  0.6046
  527SOL    HW1 2653   5.327   1.983   2.048 -0.3996 -1.7976 -0.8947
  527SOL    HW2 2654   5.262   2.107   1.990  0.7246  0.2164  1.9159
  528SOL     OW 2655   4.731   5.482   7.415 -0.3688 -0.6876  0.0685
  528SOL    HW1 2656   4.747   5.540   7.489 -3.6100  1.8866 -1.0246
  528SOL    HW2 2657   4.785   5.517   7.344 -0.8143 -0.2529 -0.0539
  529SOL     OW 2658   7.909   4.606   2.449  0.3161 -0.3295 -0.4985
  529SOL    HW1 2659   7.815   4.624   2.449  0.3564 -0.0467  0.7518
  529SOL    HW2 2660   7.915   4.510   2.441 -0.2563 -0.8293  3.2128
  530SOL     OW 2661   4.329   6.505   8.139 -0.1442 -0.1049  0.0363
  530SOL    HW1 2662   4.249   6.499   8.086 -0.1911 -1.6577  0.2608
  530SOL    HW2 2663   4.389   6.555   8.084 -1.3550  1.3957 -0.0007
  531SOL     OW 2664   7.044   0.772   1.964  0.4040  0.2114  0.2706
  531SOL    HW1 2665   7.127   0.778   2.012  0.6468  0.3781 -0.1668
  531SOL    HW2 2666   7.062   0.714   1.891  0.6962  1.7300 -0.9305
  532SOL     OW 2667   2.131   6.445   1.122  0.4959 -0.9785 -0.3153
  532SOL    HW1 2668   2.058   6.453   1.183  0.1084 -0.3126 -0.8578
  532SOL    HW2 2669   2.206   6.422   1.177  0.1278 -0.4934  0.3951
  533SOL     OW 2670   3.852   0.642   2.819  0.1249  0.2606 -0.3692
  533SOL    HW1 2671   3.885   0.719   2.772 -1.1045  0.2453 -1.2774
  533SOL    HW2 2672   3.891   0.568   2.774  0.3034  0.3025 -0.2855
  534SOL     OW 2673   7.682   7.991   3.342 -0.3424  0.1919 -0.0779
  534SOL    HW1 2674   7.717   8.073   3.307  0.8159 -0.0411  0.4744
  534SOL    HW2 2675   7.687   7.929   3.270  3.1073 -0.5995  0.6797
  535SOL     OW 2676   2.467   0.425   6.299  0.3327 -0.3803  0.0140
  535SOL    HW1 2677   2.555   0.425   6.339  0.1572  0.0405  0.4129
  535SOL    HW2 2678   2.442   0.517   6.297 -0.8874 -0.6262  1.6746
  536SOL     OW 2679   0.925   6.311   2.147  0.0548  0.1225 -0.0469
  536SOL    HW1 2680   0.952   6.402   2.162  0.2016  0.1698 -0.5606
  536SOL    HW2 2681   0.910   6.306   2.052 -0.7049 -0.1905  0.0802
  537SOL     OW 2682   3.557   4.897   5.542  0.0547 -0.0033  0.0470
  537SOL    HW1 2683   3.585   4.980   5.504  1.3380 -0.4466 -0.0264
  537SOL    HW2 2684   3.586   4.901   5.633 -0.9907  0.1222  0.3894
  538SOL     OW 2685   3.717   2.754   4.020 -0.4314 -0.2719  0.0536
  538SOL    HW1 2686   3.658   2.689   4.059 -0.7126 -0.3270 -0.4532
  538SOL    HW2 2687   3.676   2.838   4.040 -0.0222 -0.2373  0.7857
  539SOL     OW 2688   6.687   2.904   0.780  0.5480 -0.2916  0.0507
  539SOL    HW1 2689   6.593   2.902   0.796  0.6542  0.0266  0.7525
  539SOL    HW2 2690   6.727   2.879   0.864  1.0890 -0.3163 -0.2072
  540SOL     OW 2691   4.042   4.064   7.474 -0.1767 -0.1184  0.5042
  540SOL    HW1 2692   4.093   3.985   7.492 -1.0588 -0.8542 -0.1237
  540SOL    HW2 2693   3.993   4.080   7.554  0.9873  0.5837  1.1083
  541SOL     OW 2694   0.106   6.142   1.636  0.1332 -0.3627 -0.4835
  541SOL    HW1 2695   0.102   6.086   1.559  2.3645  0.7222 -1.4926
  541SOL    HW2 2696   0.054   6.097   1.702  0.1503 -2.5400 -1.8724
  542SOL     OW 2697   2.446   4.574   5.897  0.5842 -0.1205 -0.1095
  542SOL    HW1 2698   2.531   4.597   5.860 -0.0307 -0.6085 -1.9702
  542SOL    HW2 2699   2.467   4.519   5.972  1.9220  1.5136  0.7930
  543SOL     OW 2700   8.122   5.350   7.811  0.2176  0.0501 -0.4117
  543SOL    HW1 2701   8.145   5.283   7.876  1.4663  0.4869 -0.3730
  543SOL    HW2 2702   8.198   5.353   7.752 -0.5629  0.2198 -1.4401
  544SOL     OW 2703   5.326   6.605   7.697 -0.5271  0.2954 -0.0113
  544SOL    HW1 2704   5.360   6.516   7.704 -0.3504  0.2187 -1.6338
  544SOL    HW2 2705   5.264   6.612   7.770 -0.2130 -0.9966  0.4026
  545SOL     OW 2706   4.298   1.608   4.206 -0.0151 -0.0335 -0.1427
  545SOL    HW1 2707   4.339   1.562   4.280 -0.6939  1.1528  1.0200
  545SOL    HW2 2708   4.252   1.540   4.158 -0.8004 -0.6590  1.3990
  546SOL     OW 2709   2.929   2.454   2.962  0.4339 -0.2882  0.1284
  546SOL    HW1 2710   2.994   2.422   3.025 -1.0561 -2.3029  0.7858
  546SOL    HW2 2711   2.976   2.459   2.879  1.7203 -0.4933  0.8206
  547SOL     OW 2712   6.741   6.903   5.892 -0.4486 -0.2931 -0.4850
  547SOL    HW1 2713   6.833   6.886   5.912 -0.4311  0.8996  0.5336
  547SOL    HW2 2714   6.742   6.979   5.835 -0.7864 -0.6000 -0.9075
  548SOL     OW 2715   7.041   7.566   1.123  0.1775  0.2931  0.4680
  548SOL    HW1 2716   7.122   7.570   1.072 -0.0819 -1.2847 -0.1236
  548SOL    HW2 2717   7.069   7.572   1.214  1.3275 -3.0707  0.4615
  549SOL     OW 2718   1.880   2.078   2.271  0.2548 -0.2601  0.5026
  549SOL    HW1 2719   1.871   1.990   2.236 -1.8808  0.7044 -1.6054
  549SOL    HW2 2720   1.853   2.071   2.362  0.1117 -1.7676  0.3624
  550SOL     OW 2721   0.226   2.805   2.204  0.0804  0.1416 -0.2378
  550SOL    HW1 2722   0.287   2.876   2.185 -0.2813  0.5289  0.0382
  550SOL    HW2 2723   0.145   2.848   2.229 -0.3747 -0.3770 -0.8019
  551SOL     OW 2724   4.117   2.373   2.321 -0.1393  0.6012  0.6662
  551SOL    HW1 2725   4.039   2.428   2.312  0.5364  1.8069  1.7647
  551SOL    HW2 2726   4.091   2.304   2.382 -0.3271  1.0435  1.0903
  552SOL     OW 2727   0.644   2.562   5.323  0.2619  0.1516 -0.7524
  552SOL    HW1 2728   0.586   2.501   5.278  1.1722 -0.1804 -1.5143
  552SOL    HW2 2729   0.637   2.538   5.416 -1.9423  1.1138 -0.6251
  553SOL     OW 2730   6.177   7.248   2.235  0.3667  0.4446  0.0864
  553SOL    HW1 2731   6.200   7.158   2.215  0.9583 -0.0178  2.5531
  553SOL    HW2 2732   6.261   7.289   2.258 -0.2662  0.7350  2.0399
  554SOL     OW 2733   1.280   6.213   7.037 -0.2220 -0.1049 -0.2317
  554SOL    HW1 2734   1.286   6.259   7.120  0.9627 -0.1762 -0.2609
  554SOL    HW2 2735   1.289   6.281   6.971 -2.8566  0.2057 -0.3832
  555SOL     OW 2736   1.883   1.744   2.946 -0.0409  0.4102 -0.1240
  555SOL    HW1 2737   1.793   1.719   2.965 -0.4333  2.1611  0.5160
  555SOL    HW2 2738   1.926   1.662   2.923 -1.8243 -0.4469 -0.6080
  556SOL     OW 2739   2.626   3.076   8.071  0.1945 -0.2357  0.1173
  556SOL    HW1 2740   2.612   2.999   8.016  0.2528 -0.6296  0.6451
  556SOL    HW2 2741   2.593   3.149   8.019 -1.5452 -0.8268  0.3107
  557SOL     OW 2742   1.914   0.339   3.176 -0.0167 -0.0592  0.7528
  557SOL    HW1 2743   2.004   0.337   3.209  0.3210 -3.9498  0.0125
  557SOL    HW2 2744   1.861   0.358   3.254  1.2343 -1.9174  2.1514
  558SOL     OW 2745   0.659   5.802   4.382  0.4028  0.1102 -0.0397
  558SOL    HW1 2746   0.747   5.818   4.347  0.6955  0.2274  0.7195
  558SOL    HW2 2747   0.600   5.823   4.310  0.9574  0.9033 -0.2791
  559SOL     OW 2748   7.080   0.121   6.137 -0.1595  0.1098  0.4336
  559SOL    HW1 2749   7.023   0.177   6.085 -1.8381 -1.0674  0.9501
  559SOL    HW2 2750   7.156   0.106   6.081 -1.0635  0.4253 -0.9191
  560SOL     OW 2751   3.631   2.880   7.033  0.2280 -0.1393  0.0776
  560SOL    HW1 2752   3.660   2.825   6.960  0.6607  0.8937 -0.5563
  560SOL    HW2 2753   3.704   2.940   7.049 -0.5602  0.8288  0.1565
  561SOL     OW 2754   6.807   4.545   4.057  0.3713 -0.0721 -0.2249
  561SOL    HW1 2755   6.888   4.527   4.104  0.3630 -0.7870 -0.4821
  561SOL    HW2 2756   6.800   4.475   3.992  0.1375  0.6264 -0.9785
  562SOL     OW 2757   4.618   6.461   4.473  0.2045  0.0295  0.2485
  562SOL    HW1 2758   4.658   6.451   4.387 -0.3308 -4.0926  0.2651
  562SOL    HW2 2759   4.528   6.488   4.454 -0.0386 -1.2703 -0.5590
  563SOL     OW 2760   3.878   7.624   6.299  0.2997 -0.4333  0.1255
  563SOL    HW1 2761   3.935   7.557   6.261  0.4870 -0.2277  0.0375
  563SOL    HW2 2762   3.899   7.625   6.392  0.4805 -0.3204  0.0842
  564SOL     OW 2763   3.715   4.790   6.178 -0.2764 -0.1701  0.4398
  564SOL    HW1 2764   3.795   4.792   6.229  0.5429 -1.4116 -0.7281
  564SOL    HW2 2765   3.738   4.830   6.094 -0.4627 -1.7087 -0.3919
  565SOL     OW 2766   6.302   6.999   7.844 -0.0433 -0.0166  0.5085
  565SOL    HW1 2767   6.392   7.012   7.815 -0.3872 -0.0229 -0.5935
  565SOL    HW2 2768   6.310   6.976   7.937  1.1017 -0.3460  0.3434
  566SOL     OW 2769   3.123   3.473   4.195 -0.5834 -0.2805  0.1960
  566SOL    HW1 2770   3.126   3.482   4.290  1.6879  0.6780  0.0869
  566SOL    HW2 2771   3.205   3.430   4.171 -0.6902  0.3147 -1.3924
  567SOL     OW 2772   7.341   2.430   1.331  0.9500 -0.6127  0.1296
  567SOL    HW1 2773   7.396   2.355   1.309  0.1215 -1.2209  0.0739
  567SOL    HW2 2774   7.343   2.434   1.427  2.9614  0.8238  0.0995
  568SOL     OW 2775   7.290   1.304   5.968  0.5054  0.2597 -0.0410
  568SOL    HW1 2776   7.311   1.388   6.007  1.7689 -0.1444  0.1791
  568SOL    HW2 2777   7.195   1.306   5.956  0.5695  1.8642 -0.4177
  569SOL     OW 2778   1.470   3.786   2.153  0.0565  0.4383  0.0271
  569SOL    HW1 2779   1.447   3.841   2.227  1.4344  0.4942  0.4400
  569SOL    HW2 2780   1.396   3.794   2.093 -1.0247  0.4815  1.3355
  570SOL     OW 2781   6.301   3.415   3.703 -0.4079  0.0440 -0.6391
  570SOL    HW1 2782   6.346   3.467   3.769 -1.0599 -1.2551  0.8922
  570SOL    HW2 2783   6.228   3.375   3.750  0.5401 -2.9280 -1.5020
  571SOL     OW 2784   3.717   6.230   7.075  0.1668 -0.1257  0.1443
  571SOL    HW1 2785   3.813   6.231   7.080  0.2074  1.7663 -0.1266
  571SOL    HW2 2786   3.690   6.307   7.125 -1.2997 -1.2595  1.1756
  572SOL     OW 2787   1.580   5.140   4.473 -0.1992  0.1798 -0.0973
  572SOL    HW1 2788   1.672   5.167   4.472 -0.3449  0.7433 -1.4117
  572SOL    HW2 2789   1.568   5.094   4.389 -0.8432 -0.8795  0.5593
  573SOL     OW 2790   8.012   2.915   7.248  0.1208  0.0733 -0.6609
  573SOL    HW1 2791   8.074   2.867   7.192  0.1150  1.5299 -1.9481
  573SOL    HW2 2792   7.931   2.918   7.198  0.1047  1.3733 -0.5853
  574SOL     OW 2793   7.536   7.227   4.531 -0.1902  0.0402 -0.2305
  574SOL    HW1 2794   7.626   7.258   4.538 -0.2213  0.1550 -0.3442
  574SOL    HW2 2795   7.487   7.302   4.500 -0.4107  0.1156  0.2847
  575SOL     OW 2796   0.355   1.313   2.385 -0.7078 -0.1169  0.0166
  575SOL    HW1 2797   0.438   1.315   2.432 -1.0191 -1.3690  0.6510
  575SOL    HW2 2798   0.379   1.329   2.294 -0.1336  2.6571  0.5632
  576SOL     OW 2799   1.457   3.374   2.178  0.0736  0.2349 -0.0857
  576SOL    HW1 2800   1.504   3.457   2.191 -2.7285  1.7786  1.2679
  576SOL    HW2 2801   1.416   3.384   2.092 -0.0869  0.1918 -0.0153
  577SOL     OW 2802   2.891   2.352   4.970  0.3813 -0.2973  0.3890
  577SOL    HW1 2803   2.797   2.334   4.969  0.3508 -0.1520 -0.5697
  577SOL    HW2 2804   2.932   2.266   4.982  0.1256 -0.3261  1.0735
  578SOL     OW 2805   8.060   6.494   3.984  0.0316  0.4349 -0.0109
  578SOL    HW1 2806   8.007   6.443   4.045  0.0724  2.0426  1.4329
  578SOL    HW2 2807   7.997   6.539   3.928 -0.0436  0.1365 -0.1672
  579SOL     OW 2808   6.555   3.186   1.220  0.1193  0.2423  0.5360
  579SOL    HW1 2809   6.545   3.273   1.260 -2.3058  0.6851 -0.7911
  579SOL    HW2 2810   6.648   3.167   1.227  0.3970  2.0166  2.7481
  580SOL     OW 2811   1.022   1.682   5.077 -0.2376 -0.4462  0.5439
  580SOL    HW1 2812   1.008   1.694   4.983  0.9004  2.6691  0.6409
  580SOL    HW2 2813   1.116   1.691   5.088 -0.1304 -2.5400  1.8644
  581SOL     OW 2814   1.393   7.546   6.566  0.0655  0.4244 -0.0325
  581SOL    HW1 2815   1.323   7.516   6.624  1.1474  0.1004  1.1621
  581SOL    HW2 2816   1.466   7.488   6.586  1.2841  1.9560  0.1621
  582SOL     OW 2817   7.594   7.254   4.953  0.2537 -0.4292  0.1859
  582SOL    HW1 2818   7.639   7.181   4.910  1.2680 -0.3927  1.1657
  582SOL    HW2 2819   7.567   7.311   4.881  0.6405 -1.0938 -0.5007
  583SOL     OW 2820   2.531   6.742   5.671 -0.3699 -0.3719 -0.6664
  583SOL    HW1 2821   2.572   6.810   5.618 -0.4820 -0.1117 -0.4230
  583SOL    HW2 2822   2.565   6.660   5.636  1.7372 -0.1307  0.6167
  584SOL     OW 2823   4.217   0.128   6.665 -0.2874  0.2761 -0.1101
  584SOL    HW1 2824   4.227   0.057   6.728  0.7471 -0.1478 -0.7287
  584SOL    HW2 2825   4.124   0.126   6.642 -0.1090 -1.4826 -0.8114
  585SOL     OW 2826   5.706   1.969   3.627  0.7468 -0.5314  0.2738
  585SOL    HW1 2827   5.667   1.953   3.541 -1.4876 -0.4050  1.1882
  585SOL    HW2 2828   5.689   1.889   3.676 -1.2093  0.6150  1.6417
  586SOL     OW 2829   6.286   1.670   4.409  0.4449  0.6470 -0.2243
  586SOL    HW1 2830   6.294   1.710   4.323  2.6030  0.4250 -0.1929
  586SOL    HW2 2831   6.376   1.648   4.434 -0.4164 -3.6877  0.0110
  587SOL     OW 2832   0.446   1.088   0.081 -0.4779 -0.0569  0.0420
  587SOL    HW1 2833   0.392   1.025   0.129 -2.1374 -1.1726 -3.0056
  587SOL    HW2 2834   0.523   1.038   0.055 -0.2113  0.1529  0.4292
  588SOL     OW 2835   3.813   6.606   3.338 -0.0054 -0.0174 -0.6983
  588SOL    HW1 2836   3.831   6.535   3.277 -0.6739 -0.3587 -0.5095
  588SOL    HW2 2837   3.867   6.679   3.308  1.9010 -1.0753  0.0042
  589SOL     OW 2838   6.833   7.256   1.562  0.5944 -0.2968 -0.0392
  589SOL    HW1 2839   6.823   7.164   1.585 -1.8365 -0.3773 -1.0872
  589SOL    HW2 2840   6.926   7.266   1.542  0.7887 -2.6997 -0.6454
  590SOL     OW 2841   1.077   0.229   3.514 -0.0997 -0.1518  0.2667
  590SOL    HW1 2842   1.152   0.281   3.485  0.0208  0.4197  1.5165
  590SOL    HW2 2843   1.082   0.233   3.610 -2.6541  1.2878  0.4330
  591SOL     OW 2844   0.794   7.455   8.037  0.1567 -0.4792 -1.0824
  591SOL    HW1 2845   0.869   7.479   7.982  0.6411  1.6669  0.3969
  591SOL    HW2 2846   0.818   7.485   8.124 -1.6227 -1.5798 -0.1604
  592SOL     OW 2847   1.154   0.185   6.788  0.6444 -0.2960 -0.3513
  592SOL    HW1 2848   1.148   0.209   6.695 -2.6329 -0.6139 -0.3328
  592SOL    HW2 2849   1.123   0.263   6.834 -1.6673 -1.4732  0.1941
  593SOL     OW 2850   5.913   2.473   1.500  0.0339  0.6719 -0.1135
  593SOL    HW1 2851   5.855   2.537   1.459 -0.4830  0.0198 -0.4016
  593SOL    HW2 2852   5.994   2.479   1.449  0.1311  1.3731  0.1058
  594SOL     OW 2853   4.962   0.413   6.736  1.3672  0.3506  0.4427
  594SOL    HW1 2854   4.979   0.451   6.822  2.9453  0.6277  0.0395
  594SOL    HW2 2855   5.027   0.454   6.678 -0.9218  1.7136 -1.3504
  595SOL     OW 2856   1.324   6.167   0.662 -0.1074  0.4887  0.1412
  595SOL    HW1 2857   1.371   6.118   0.593 -1.3822 -0.0415 -0.3852
  595SOL    HW2 2858   1.271   6.230   0.614 -0.8640  0.2466  0.6448
  596SOL     OW 2859   3.911   5.106   0.599 -0.1254  0.4105  0.2816
  596SOL    HW1 2860   3.921   5.013   0.578 -0.8305  0.2630  0.5990
  596SOL    HW2 2861   3.990   5.147   0.561  0.9797 -0.5185  1.4863
  597SOL     OW 2862   4.935   1.575   4.876  0.7815  0.6151  0.2162
  597SOL    HW1 2863   4.858   1.623   4.905  0.1617  0.2284 -0.7344
  597SOL    HW2 2864   4.950   1.510   4.945 -2.2124 -2.0113 -1.3168
  598SOL     OW 2865   3.230   5.218   3.911  0.6018 -0.3190  0.3255
  598SOL    HW1 2866   3.252   5.228   4.003 -0.3906 -0.0301  0.5463
  598SOL    HW2 2867   3.265   5.298   3.870  1.4108 -0.6451  0.3729
  599SOL     OW 2868   7.300   0.635   6.384  0.3651  0.2417 -0.2870
  599SOL    HW1 2869   7.318   0.726   6.363 -0.8971 -0.1141 -3.4367
  599SOL    HW2 2870   7.289   0.592   6.299 -3.1559 -1.9899  1.0568
  600SOL     OW 2871   8.157   0.395   2.617 -0.4787 -0.1355  0.0221
  600SOL    HW1 2872   8.178   0.481   2.581 -1.6890  1.0741  2.0416
  600SOL    HW2 2873   8.166   0.406   2.712 -1.0622 -2.1319  0.3464
  601SOL     OW 2874   7.244   5.865   3.984 -0.1602  0.2210 -0.0551
  601SOL    HW1 2875   7.252   5.802   3.912  0.6585 -0.4420  0.6000
  601SOL    HW2 2876   7.214   5.814   4.058 -3.2369  1.2980 -0.4290
  602SOL     OW 2877   8.033   6.076   4.852  0.5205 -0.0925  0.3853
  602SOL    HW1 2878   8.073   6.111   4.931  1.1802  2.5020 -0.9577
  602SOL    HW2 2879   8.099   6.019   4.814  1.7095  1.4962 -0.0744
  603SOL     OW 2880   6.623   2.359   4.020  0.0207 -0.0007  0.3373
  603SOL    HW1 2881   6.659   2.427   3.963  0.6513 -0.7801 -0.2006
  603SOL    HW2 2882   6.694   2.339   4.081 -0.3845  0.2726  0.9110
  604SOL     OW 2883   7.325   5.463   6.661 -0.1696  0.0195 -0.2173
  604SOL    HW1 2884   7.335   5.556   6.679 -0.5507 -0.0484  0.3592
  604SOL    HW2 2885   7.256   5.458   6.594 -1.2065  0.0770  0.8107
  605SOL     OW 2886   1.175   0.929   1.856  0.2541 -0.1796  0.4570
  605SOL    HW1 2887   1.081   0.951   1.855  0.1203 -0.7584 -0.2096
  605SOL    HW2 2888   1.179   0.846   1.904  0.4537 -0.0592  0.6502
  606SOL     OW 2889   5.857   3.162   1.478  0.0394  0.4601 -0.3736
  606SOL    HW1 2890   5.857   3.069   1.503  0.3975 -0.2446 -2.7601
  606SOL    HW2 2891   5.930   3.199   1.526  0.7412 -0.8152 -0.4048
  607SOL     OW 2892   8.025   0.504   1.570  0.1193  0.8486  0.2444
  607SOL    HW1 2893   8.092   0.467   1.512  0.6134  1.2925  0.5245
  607SOL    HW2 2894   8.074   0.540   1.644 -0.4075  1.4426  0.3119
  608SOL     OW 2895   7.909   5.232   6.158 -0.9633  0.5619 -0.5494
  608SOL    HW1 2896   7.886   5.147   6.119 -0.1104  0.5872 -1.1475
  608SOL    HW2 2897   7.915   5.215   6.252  1.7978 -0.7383 -0.8416
  609SOL     OW 2898   5.099   5.778   7.636  0.3893 -0.2789  0.1831
  609SOL    HW1 2899   5.182   5.808   7.599  0.6983 -0.0192  1.0525
  609SOL    HW2 2900   5.118   5.766   7.729 -0.6247  0.0585  0.4439
  610SOL     OW 2901   3.288   6.667   4.541  0.0991  0.1225 -0.0940
  610SOL    HW1 2902   3.350   6.740   4.550  2.0889 -1.0491 -2.7389
  610SOL    HW2 2903   3.332   6.593   4.582  0.0464 -0.5168 -1.1629
  611SOL     OW 2904   4.030   0.654   6.997 -0.4726  0.1117  0.9122
  611SOL    HW1 2905   3.986   0.610   7.070 -0.8621 -0.4817  0.3332
  611SOL    HW2 2906   4.017   0.748   7.014 -2.1091 -0.0407  0.6983
  612SOL     OW 2907   7.594   0.961   5.067 -0.5144 -0.0823  0.4792
  612SOL    HW1 2908   7.531   0.929   5.132 -0.2293  0.9009  1.2701
  612SOL    HW2 2909   7.673   0.980   5.118  0.6238 -1.7508 -0.5602
  613SOL     OW 2910   2.159   1.756   7.743 -0.0426  0.2858 -0.0752
  613SOL    HW1 2911   2.145   1.773   7.836  1.9436 -0.2150  0.3488
  613SOL    HW2 2912   2.253   1.766   7.730 -0.2278 -0.0195 -1.9708
  614SOL     OW 2913   0.606   1.694   7.019 -0.3276  0.6665 -0.5389
  614SOL    HW1 2914   0.559   1.695   7.102  0.5367  0.5921 -0.0306
  614SOL    HW2 2915   0.687   1.646   7.038 -0.2842  0.3200 -1.5225
  615SOL     OW 2916   5.982   5.854   2.273  0.3736 -0.4999  0.1818
  615SOL    HW1 2917   5.925   5.893   2.339  0.0091  0.3644 -0.6153
  615SOL    HW2 2918   5.923   5.833   2.200  0.4157 -3.2688  0.8353
  616SOL     OW 2919   5.974   4.923   1.408  0.2163 -0.5757 -0.2205
  616SOL    HW1 2920   5.946   4.896   1.321  1.6495  0.5191 -1.0827
  616SOL    HW2 2921   5.925   5.004   1.425  2.5706  1.3612 -1.7438
  617SOL     OW 2922   3.883   1.872   2.333 -0.5231  0.4788 -0.6422
  617SOL    HW1 2923   3.899   1.960   2.299  0.5724  0.2361 -0.7925
  617SOL    HW2 2924   3.850   1.822   2.258  0.4386  0.3394 -0.9806
  618SOL     OW 2925   6.043   0.582   2.884  0.3345 -0.6125 -0.5828
  618SOL    HW1 2926   5.959   0.553   2.849  0.8076 -0.5904 -1.7761
  618SOL    HW2 2927   6.068   0.655   2.827  0.2733  0.6314  0.9308
  619SOL     OW 2928   4.703   5.698   5.206  0.1687 -0.0206 -0.2124
  619SOL    HW1 2929   4.791   5.686   5.170 -0.8208 -1.6853 -2.2436
  619SOL    HW2 2930   4.707   5.655   5.292  1.4676  0.4738  0.0056
  620SOL     OW 2931   2.228   6.383   7.347  0.0197 -0.2240 -0.1821
  620SOL    HW1 2932   2.280   6.306   7.326  1.2194  0.6974 -0.6810
  620SOL    HW2 2933   2.271   6.421   7.424 -1.4424 -0.8479  0.9926
  621SOL     OW 2934   4.779   3.444   6.089 -0.1769 -0.1854 -0.0572
  621SOL    HW1 2935   4.720   3.441   6.164 -0.4361  0.4397 -0.2277
  621SOL    HW2 2936   4.751   3.372   6.033  1.3294 -1.9959  1.3893
  622SOL     OW 2937   0.013   3.503   6.603  0.7693  0.4237  0.1820
  622SOL    HW1 2938   0.005   3.417   6.561  1.4665  0.8327 -0.8277
  622SOL    HW2 2939   0.077   3.489   6.673 -0.4335 -0.2731  1.1894
  623SOL     OW 2940   7.304   4.408   1.941  0.0472 -0.0837  0.4152
  623SOL    HW1 2941   7.268   4.321   1.959  0.3561  0.1418  2.4195
  623SOL    HW2 2942   7.321   4.408   1.847 -2.3243 -1.2614 -0.0970
  624SOL     OW 2943   7.190   2.296   7.547 -0.1636  0.6070 -0.0875
  624SOL    HW1 2944   7.276   2.254   7.552 -0.7721 -0.8800 -1.2290
  624SOL    HW2 2945   7.201   2.366   7.482  0.1901  0.4309 -0.2195
  625SOL     OW 2946   5.288   5.132   7.210  0.1926 -0.3611  0.0946
  625SOL    HW1 2947   5.230   5.069   7.253 -0.9190 -0.0512 -0.9159
  625SOL    HW2 2948   5.368   5.082   7.192  0.4457 -0.6659  1.9043
  626SOL     OW 2949   2.421   2.991   4.512  0.4900  0.5803 -0.6202
  626SOL    HW1 2950   2.495   3.032   4.469  0.4050  0.7877 -0.5718
  626SOL    HW2 2951   2.444   2.991   4.605  0.5523  0.3862 -0.6347
  627SOL     OW 2952   7.267   2.329   2.559 -0.1188  0.4613  0.2697
  627SOL    HW1 2953   7.173   2.308   2.558 -0.2561  0.7795  2.2394
  627SOL    HW2 2954   7.279   2.391   2.488 -1.9814  2.5988  1.6957
  628SOL     OW 2955   2.969   6.449   1.471  0.0624  0.5137  0.2239
  628SOL    HW1 2956   2.937   6.360   1.484  2.9893 -0.9072 -1.2601
  628SOL    HW2 2957   2.944   6.471   1.381  1.5412  0.1131 -0.3081
  629SOL     OW 2958   6.542   2.020   4.831  0.0567  0.4592  0.3061
  629SOL    HW1 2959   6.486   1.962   4.779  1.5933 -2.7480  1.8854
  629SOL    HW2 2960   6.494   2.031   4.913  0.9346 -1.0032  1.0637
  630SOL     OW 2961   8.091   2.832   3.295 -0.0726  0.3366  0.1071
  630SOL    HW1 2962   8.169   2.806   3.345  0.0474 -0.3423 -0.4170
  630SOL    HW2 2963   8.018   2.821   3.356 -0.0703 -1.6086 -0.1898
  631SOL     OW 2964   0.985   6.667   2.684  0.1683  0.1835  0.0479
  631SOL    HW1 2965   1.025   6.632   2.605  0.9420 -1.1943  0.9886
  631SOL    HW2 2966   1.030   6.750   2.700  0.6891 -0.0003 -0.4343
  632SOL     OW 2967   6.321   6.256   0.157  0.2617 -0.5028  0.1404
  632SOL    HW1 2968   6.230   6.238   0.132 -1.1079  1.1890  3.2322
  632SOL    HW2 2969   6.352   6.319   0.092 -1.2918 -0.0632 -0.2268
  633SOL     OW 2970   4.845   6.796   4.442  0.0872  0.8128 -0.6707
  633SOL    HW1 2971   4.900   6.840   4.377 -0.0237 -0.1410 -1.4415
  633SOL    HW2 2972   4.894   6.716   4.464  0.1524  1.1611  0.4765
  634SOL     OW 2973   1.872   0.126   3.021  0.2040  0.5377  0.4397
  634SOL    HW1 2974   1.963   0.098   3.032 -0.3039 -0.3595  3.0966
  634SOL    HW2 2975   1.862   0.200   3.081 -0.7273  0.9713 -0.2126
  635SOL     OW 2976   4.429   2.992   3.833  0.1179  0.0537  0.6188
  635SOL    HW1 2977   4.337   2.994   3.806  0.3761 -0.4532 -0.3408
  635SOL    HW2 2978   4.458   3.083   3.824 -0.5756  0.4512  2.0405
  636SOL     OW 2979   6.919   0.031   5.182 -0.6236  0.8671  0.1579
  636SOL    HW1 2980   6.944   0.121   5.161 -0.5299  0.9949  0.8051
  636SOL    HW2 2981   6.930   0.024   5.276 -0.3328  0.0775  0.0707
  637SOL     OW 2982   0.234   1.292   5.135  0.1906 -0.3554  0.1447
  637SOL    HW1 2983   0.161   1.310   5.075 -2.5816 -1.9107  2.7443
  637SOL    HW2 2984   0.248   1.375   5.181 -0.9810 -0.3517  0.5513
  638SOL     OW 2985   0.865   6.239   0.541 -0.1966  0.3897 -0.3030
  638SOL    HW1 2986   0.838   6.331   0.535  0.9595  0.9035  1.3468
  638SOL    HW2 2987   0.955   6.244   0.573  0.0939 -1.3196 -0.8056
  639SOL     OW 2988   3.114   0.104   1.177 -0.3537  0.4533  0.2568
  639SOL    HW1 2989   3.023   0.123   1.199 -0.6425 -1.2183  0.6018
  639SOL    HW2 2990   3.159   0.188   1.187 -1.8162  1.2704  0.2224
  640SOL     OW 2991   7.287   3.611   1.615  0.5224 -0.0014 -0.8472
  640SOL    HW1 2992   7.298   3.565   1.531  0.3214  0.2942 -1.0371
  640SOL    HW2 2993   7.306   3.702   1.595  1.8787 -0.1314 -0.2588
  641SOL     OW 2994   1.091   6.567   4.460  0.4722  0.0845  0.1868
  641SOL    HW1 2995   1.143   6.628   4.512  2.7920 -0.8052 -0.9238
  641SOL    HW2 2996   1.056   6.620   4.389  1.6610  0.3542 -0.2252
  642SOL     OW 2997   3.329   6.471   0.768  0.0343  0.1574  1.0576
  642SOL    HW1 2998   3.392   6.477   0.697 -0.7830 -0.0948  0.2873
  642SOL    HW2 2999   3.298   6.560   0.781  0.3047  0.2286  1.2054
  643SOL     OW 3000   3.671   6.862   6.796  0.0148  0.3952 -0.3736
  643SOL    HW1 3001   3.607   6.849   6.866  1.5881 -1.4243  0.8359
  643SOL    HW2 3002   3.618   6.872   6.717 -1.7712 -0.7409  0.6059
  644SOL     OW 3003   1.077   7.847   1.740  0.2194 -0.0991 -0.2164
  644SOL    HW1 3004   1.113   7.777   1.794 -0.0002 -0.1261 -0.1026
  644SOL    HW2 3005   1.147   7.911   1.733 -0.4906  1.0173  2.0690
  645SOL     OW 3006   5.902   5.414   2.377  0.0934 -0.2764 -0.3301
  645SOL    HW1 3007   5.989   5.417   2.338 -0.0995  0.3724 -0.7244
  645SOL    HW2 3008   5.845   5.379   2.308  0.1099 -1.1043  0.0668
  646SOL     OW 3009   7.402   7.775   1.117 -0.2564 -0.3707 -0.5677
  646SOL    HW1 3010   7.392   7.844   1.051 -0.6261 -0.2170 -0.3525
  646SOL    HW2 3011   7.358   7.699   1.079 -0.7562 -0.1909 -0.3699
  647SOL     OW 3012   6.787   0.934   5.621 -0.2346 -0.6749 -0.0918
  647SOL    HW1 3013   6.754   0.845   5.613  0.0022 -0.7700 -0.0147
  647SOL    HW2 3014   6.801   0.947   5.714 -0.1662 -0.5960 -0.1123
  648SOL     OW 3015   6.090   4.217   5.529  0.0171  0.2803  0.0542
  648SOL    HW1 3016   6.107   4.127   5.503  0.8984  0.4782 -0.0842
  648SOL    HW2 3017   5.996   4.229   5.514 -0.4647 -1.0988  1.6243
  649SOL     OW 3018   0.897   7.553   5.686  0.1857 -0.1601  0.1660
  649SOL    HW1 3019   0.845   7.522   5.613 -0.4521  0.8022  0.1891
  649SOL    HW2 3020   0.980   7.580   5.647 -0.6102  1.5557 -0.4408
  650SOL     OW 3021   7.696   2.658   2.126 -0.2699 -0.2727 -0.0778
  650SOL    HW1 3022   7.614   2.612   2.114  0.6623 -2.3562  1.0452
  650SOL    HW2 3023   7.748   2.636   2.049 -0.2874 -0.0215 -0.1629
  651SOL     OW 3024   7.282   7.051   7.491 -0.5597 -0.3697 -0.3981
  651SOL    HW1 3025   7.232   7.121   7.448 -1.2684 -0.9407 -0.5273
  651SOL    HW2 3026   7.372   7.063   7.459 -0.2172  1.7370  1.1943
  652SOL     OW 3027   5.325   2.067   4.282 -0.1041 -0.3206  0.2644
  652SOL    HW1 3028   5.230   2.073   4.280 -0.1605 -1.0028 -1.6913
  652SOL    HW2 3029   5.356   2.157   4.274 -0.5839 -0.0936  0.9778
  653SOL     OW 3030   5.390   3.946   7.249 -0.1038  0.2121 -0.2881
  653SOL    HW1 3031   5.459   3.888   7.215 -0.3768 -0.5036  0.3428
  653SOL    HW2 3032   5.437   4.023   7.281  0.3335  0.0533 -0.5373
  654SOL     OW 3033   5.516   4.865   3.036 -0.2326 -0.1826  0.2938
  654SOL    HW1 3034   5.606   4.881   3.006 -0.0595  0.5296  1.1533
  654SOL    HW2 3035   5.491   4.782   2.994  0.8328 -0.3994  0.0599
  655SOL     OW 3036   0.738   5.768   3.892  0.0498  0.4451  0.0446
  655SOL    HW1 3037   0.807   5.716   3.934 -0.7966 -0.6334  0.1240
  655SOL    HW2 3038   0.776   5.793   3.807  0.6931  0.2032  0.2549
  656SOL     OW 3039   3.691   0.729   5.247 -0.6330  0.0158  0.3244
  656SOL    HW1 3040   3.630   0.695   5.182 -1.1096 -2.2791  1.8426
  656SOL    HW2 3041   3.637   0.777   5.309 -0.1633  2.3171 -0.9593
  657SOL     OW 3042   1.548   1.203   2.276 -0.2782  0.0177  0.2437
  657SOL    HW1 3043   1.634   1.189   2.238 -0.5678 -0.6632 -0.1798
  657SOL    HW2 3044   1.522   1.290   2.245  0.1654  0.1335  0.2002
  658SOL     OW 3045   1.922   2.622   0.922 -0.0781  0.1193 -0.4379
  658SOL    HW1 3046   2.004   2.671   0.915  1.0324 -1.6648 -0.6922
  658SOL    HW2 3047   1.945   2.544   0.972 -1.8971  0.0738  0.4217
  659SOL     OW 3048   3.202   4.942   0.886  0.5428  0.3492 -0.1772
  659SOL    HW1 3049   3.142   4.940   0.811  1.6866  0.7555 -1.1465
  659SOL    HW2 3050   3.148   4.919   0.961 -0.6602 -0.0228 -1.1220
  660SOL     OW 3051   7.858   8.145   2.780 -0.4441  0.1076 -0.2237
  660SOL    HW1 3052   7.926   8.198   2.740  0.1467 -0.2275  0.3209
  660SOL    HW2 3053   7.779   8.198   2.773 -0.1079  0.5491 -0.7496
  661SOL     OW 3054   6.706   3.518   1.297 -0.7006  0.2687  0.1549
  661SOL    HW1 3055   6.617   3.484   1.302 -0.3854 -0.3408  2.9658
  661SOL    HW2 3056   6.698   3.610   1.319 -0.5680  0.0132  1.3324
  662SOL     OW 3057   6.627   0.504   5.262 -0.6303  0.1366 -0.3258
  662SOL    HW1 3058   6.601   0.570   5.197 -2.1043 -0.8010 -0.7386
  662SOL    HW2 3059   6.717   0.481   5.237 -0.7441  0.6654 -1.3025
  663SOL     OW 3060   2.749   2.730   3.918 -0.3357  0.4284  0.4149
  663SOL    HW1 3061   2.733   2.637   3.909 -1.9269  0.7101  0.0792
  663SOL    HW2 3062   2.745   2.747   4.012 -0.0688  0.1748  0.4733
  664SOL     OW 3063   2.307   5.571   3.450 -0.7039 -0.3455  0.3913
  664SOL    HW1 3064   2.247   5.643   3.470 -1.2713 -0.0548 -1.9550
  664SOL    HW2 3065   2.249   5.500   3.421 -0.1338 -1.7037  2.4277
  665SOL     OW 3066   4.953   1.017   3.984 -0.3496 -0.3325  0.0935
  665SOL    HW1 3067   4.912   0.932   4.001  2.0275 -1.0134  3.3190
  665SOL    HW2 3068   4.925   1.072   4.057  0.8375  0.5938 -0.1193
  666SOL     OW 3069   5.039   1.693   6.145 -0.0250 -0.5330  0.1628
  666SOL    HW1 3070   5.062   1.604   6.118 -0.3572 -0.1816 -1.3668
  666SOL    HW2 3071   5.121   1.729   6.180  0.6912 -0.7330 -1.2322
  667SOL     OW 3072   3.130   1.050   5.483 -0.0458 -0.4693 -0.4293
  667SOL    HW1 3073   3.121   1.028   5.575 -0.6690  0.2473 -0.3092
  667SOL    HW2 3074   3.201   1.116   5.481 -1.9360  1.7042 -0.0643
  668SOL     OW 3075   2.917   7.417   4.991  0.6239  0.2587 -0.4280
  668SOL    HW1 3076   2.991   7.366   5.023 -0.8494 -0.7080  1.6802
  668SOL    HW2 3077   2.849   7.352   4.973  0.5769  0.9935 -3.4994
  669SOL     OW 3078   2.122   7.914   6.501 -0.6097  0.0811  0.5729
  669SOL    HW1 3079   2.189   7.942   6.563  0.8579 -2.6955  0.4184
  669SOL    HW2 3080   2.133   7.972   6.425  0.6647  0.5516  1.0994
  670SOL     OW 3081   3.026   4.271   6.503  0.5549  0.3870  0.1165
  670SOL    HW1 3082   3.027   4.249   6.596 -0.9292 -0.2389  0.0170
  670SOL    HW2 3083   2.974   4.201   6.462  0.8238  0.8741 -1.1136
  671SOL     OW 3084   3.107   0.852   1.113 -0.7279 -0.4294 -0.0145
  671SOL    HW1 3085   3.185   0.857   1.057 -1.1075 -1.8329 -0.7290
  671SOL    HW2 3086   3.131   0.898   1.193  2.0232 -3.4366  1.1105
  672SOL     OW 3087   1.644   6.203   6.636 -0.0854  0.3564 -0.3897
  672SOL    HW1 3088   1.722   6.187   6.689 -0.6175  1.0685  0.6422
  672SOL    HW2 3089   1.621   6.294   6.653 -0.5564  0.4629 -1.4912
  673SOL     OW 3090   4.286   3.905   4.316  0.7321 -0.2393 -0.2828
  673SOL    HW1 3091   4.370   3.951   4.328 -0.0207  1.2250 -0.3696
  673SOL    HW2 3092   4.284   3.882   4.224  1.2033 -0.6186 -0.2012
  674SOL     OW 3093   7.220   7.449   4.992 -0.1517  0.2660  0.2339
  674SOL    HW1 3094   7.163   7.383   5.031  0.0441  0.4221  0.7880
  674SOL    HW2 3095   7.174   7.532   5.007 -0.1347  0.3166  0.0165
  675SOL     OW 3096   4.022   2.571   3.151 -0.2586 -0.0129 -0.2600
  675SOL    HW1 3097   4.109   2.539   3.175 -0.4213 -0.4563 -0.2550
  675SOL    HW2 3098   3.995   2.514   3.079 -0.9765 -0.5501  0.4281
  676SOL     OW 3099   5.237   7.232   2.350  0.8003 -0.1589  0.2958
  676SOL    HW1 3100   5.176   7.228   2.275  1.5437 -2.3116 -0.2906
  676SOL    HW2 3101   5.319   7.261   2.312  1.0427 -0.7422  0.3616
  677SOL     OW 3102   7.156   1.965   5.380  0.3997  0.0129  0.0980
  677SOL    HW1 3103   7.183   2.030   5.316 -2.8978  0.4448 -1.0607
  677SOL    HW2 3104   7.182   1.881   5.342  2.0357  0.4432  0.1888
  678SOL     OW 3105   2.391   5.483   6.900 -0.0763  0.3860  0.1378
  678SOL    HW1 3106   2.328   5.553   6.882 -0.6863 -0.0792  0.4296
  678SOL    HW2 3107   2.338   5.404   6.906  0.6136 -0.1153 -0.2439
  679SOL     OW 3108   6.463   0.895   3.758 -0.1015  0.7470  0.0976
  679SOL    HW1 3109   6.368   0.900   3.755 -0.1915 -0.7168 -2.2924
  679SOL    HW2 3110   6.493   0.961   3.695  0.2843 -0.6828 -1.2870
  680SOL     OW 3111   1.685   3.511   5.831 -0.5845  0.7555 -0.4990
  680SOL    HW1 3112   1.713   3.596   5.865  0.3181  0.0794  0.4887
  680SOL    HW2 3113   1.709   3.514   5.738 -1.0029  1.7400 -0.6000
  681SOL     OW 3114   5.008   8.000   4.859 -0.4298  0.2225  0.2930
  681SOL    HW1 3115   4.937   7.959   4.908 -0.5239 -0.3974 -0.3506
  681SOL    HW2 3116   4.965   8.071   4.811 -0.2710  1.0884  1.3804
  682SOL     OW 3117   3.265   3.668   4.541 -0.5159 -0.0091 -0.2143
  682SOL    HW1 3118   3.329   3.736   4.524 -1.4625  0.9400 -0.0599
  682SOL    HW2 3119   3.182   3.714   4.551 -1.1051 -1.1382  0.3393
  683SOL     OW 3120   3.034   5.970   2.856 -0.4861  0.5430 -0.5147
  683SOL    HW1 3121   3.087   5.994   2.932 -0.3534  0.4612 -0.5822
  683SOL    HW2 3122   3.087   5.906   2.808 -1.3966 -0.9940  0.4237
  684SOL     OW 3123   0.702   5.211   1.690 -0.1378  0.2695  0.5437
  684SOL    HW1 3124   0.642   5.210   1.616 -0.7175 -2.0030  0.9791
  684SOL    HW2 3125   0.773   5.152   1.664  0.6986  1.0542  0.9972
  685SOL     OW 3126   1.897   1.007   7.154 -0.8230  0.4634 -0.3915
  685SOL    HW1 3127   1.981   1.051   7.137 -2.3630  5.0670  2.0915
  685SOL    HW2 3128   1.852   1.008   7.070  0.3313  1.0908 -1.0240
  686SOL     OW 3129   3.075   8.005   1.552 -0.0300 -0.0397 -0.2565
  686SOL    HW1 3130   3.086   7.945   1.478  0.5689 -0.7448  0.3724
  686SOL    HW2 3131   3.041   7.949   1.622 -1.6240  0.8354 -0.2981
  687SOL     OW 3132   4.483   4.028   4.425  0.6571 -0.2575 -0.2410
  687SOL    HW1 3133   4.534   4.083   4.485  0.2515 -1.0865  0.8988
  687SOL    HW2 3134   4.534   3.948   4.417  1.3014  0.2882 -1.9905
  688SOL     OW 3135   6.008   3.816   3.467 -0.2254  0.4244 -0.0425
  688SOL    HW1 3136   5.995   3.854   3.554  0.2821 -0.8061  0.5932
  688SOL    HW2 3137   5.945   3.744   3.462  0.9696 -0.6769  0.0614
  689SOL     OW 3138   7.808   7.974   1.325  0.5479  0.6278  0.2421
  689SOL    HW1 3139   7.894   7.937   1.304 -0.5055 -1.5115 -0.6167
  689SOL    HW2 3140   7.750   7.940   1.257 -0.9398  2.3035  0.6109
  690SOL     OW 3141   6.013   2.495   0.419 -0.2374 -0.9638 -0.3396
  690SOL    HW1 3142   5.955   2.546   0.363  2.1228  1.6590 -0.6225
  690SOL    HW2 3143   5.967   2.489   0.503 -0.5528  2.0126 -0.1906
  691SOL     OW 3144   1.302   2.781   0.591 -0.4636  0.2133 -0.4027
  691SOL    HW1 3145   1.238   2.846   0.562 -0.6897  0.0306 -0.3194
  691SOL    HW2 3146   1.358   2.828   0.652 -0.3876  0.4301 -0.6377
  692SOL     OW 3147   0.118   3.954   6.994  0.5660  0.0132  0.5234
  692SOL    HW1 3148   0.109   4.048   6.975  0.6918  0.2131  1.3969
  692SOL    HW2 3149   0.081   3.944   7.082 -0.8043 -1.0149 -0.1287
  693SOL     OW 3150   7.749   2.746   1.618 -1.1479  0.4437  0.4480
  693SOL    HW1 3151   7.737   2.672   1.558  0.3337  0.0975  0.5460
  693SOL    HW2 3152   7.679   2.736   1.682 -1.7290 -0.1492 -0.2600
  694SOL     OW 3153   3.150   6.907   5.316 -0.8081  0.6844  0.4197
  694SOL    HW1 3154   3.135   6.998   5.342 -2.5760  0.1461  1.4815
  694SOL    HW2 3155   3.224   6.878   5.370 -0.1026  1.5234 -0.0721
  695SOL     OW 3156   6.939   3.899   4.488  0.1520  0.2984  0.3769
  695SOL    HW1 3157   6.922   3.991   4.468 -0.2229 -0.0842 -1.1986
  695SOL    HW2 3158   6.864   3.871   4.539  0.2780  0.8561  0.8871
  696SOL     OW 3159   7.349   7.361   1.490  0.1065  0.1120 -0.0551
  696SOL    HW1 3160   7.403   7.299   1.539  1.6159  1.9595  0.7483
  696SOL    HW2 3161   7.412   7.422   1.452 -1.1801  0.0163 -2.5278
  697SOL     OW 3162   3.339   1.160   7.363  0.1696 -0.1118  0.6758
  697SOL    HW1 3163   3.418   1.125   7.323  0.8243 -0.2000  1.9803
  697SOL    HW2 3164   3.325   1.104   7.440 -0.6398  0.4725  0.9617
  698SOL     OW 3165   5.367   2.685   7.385 -0.4819  1.1539 -0.4057
  698SOL    HW1 3166   5.361   2.707   7.292 -0.6387  1.2103 -0.3816
  698SOL    HW2 3167   5.294   2.731   7.426 -0.9720  0.3848 -0.3922
  699SOL     OW 3168   8.051   2.422   5.070  0.2602 -0.0254 -0.1304
  699SOL    HW1 3169   8.061   2.393   5.161  0.0660  2.5165  0.7789
  699SOL    HW2 3170   8.133   2.467   5.050 -0.2110  0.5926 -0.7203
  700SOL     OW 3171   0.504   2.022   0.145  0.4091  0.0924 -0.1679
  700SOL    HW1 3172   0.550   1.961   0.088  0.3632 -0.0237 -0.0790
  700SOL    HW2 3173   0.492   1.975   0.227  0.7512  0.3705  0.0443
  701SOL     OW 3174   3.228   2.839   7.562  0.9411 -0.4204  0.1905
  701SOL    HW1 3175   3.242   2.929   7.533  0.6840  0.0233  1.3843
  701SOL    HW2 3176   3.133   2.826   7.557  0.4683  0.7091  3.5716
  702SOL     OW 3177   0.784   6.953   7.440 -0.5160 -0.2811  0.5853
  702SOL    HW1 3178   0.781   6.879   7.379  0.9006  1.2528 -1.4963
  702SOL    HW2 3179   0.761   7.029   7.386  2.4769  1.4005  1.4393
  703SOL     OW 3180   3.408   4.133   7.077 -0.3656 -0.6176 -0.4037
  703SOL    HW1 3181   3.334   4.151   7.018 -0.4978  0.1492 -0.0117
  703SOL    HW2 3182   3.411   4.037   7.081 -1.3924 -0.6677 -0.3714
  704SOL     OW 3183   6.753   6.633   8.091 -0.0095 -0.3898  0.4947
  704SOL    HW1 3184   6.786   6.691   8.160  2.1687 -0.9582  0.0015
  704SOL    HW2 3185   6.785   6.547   8.115 -1.4281 -1.0501  0.1025
  705SOL     OW 3186   0.533   4.949   3.894  0.0948  0.0846  0.4578
  705SOL    HW1 3187   0.595   4.896   3.945  1.6598  1.1818 -0.2424
  705SOL    HW2 3188   0.469   4.885   3.862  1.8719 -1.4074 -0.2921
  706SOL     OW 3189   1.456   0.875   4.441  0.7055 -0.3209  0.0519
  706SOL    HW1 3190   1.514   0.941   4.479  0.5013 -0.1543  0.0684
  706SOL    HW2 3191   1.376   0.880   4.492  0.6986 -0.6028  0.0742
  707SOL     OW 3192   4.917   5.147   0.160  0.0086 -0.4834  0.0798
  707SOL    HW1 3193   4.853   5.076   0.172  0.2822 -0.9639 -1.1485
  707SOL    HW2 3194   4.863   5.225   0.148 -0.3582 -0.8544 -0.7575
  708SOL     OW 3195   7.941   0.110   6.536  0.4959 -0.0591 -0.1907
  708SOL    HW1 3196   7.988   0.129   6.455  1.7591 -0.6377  0.3887
  708SOL    HW2 3197   7.919   0.196   6.572 -2.6017  0.2933 -2.4997
  709SOL     OW 3198   5.694   6.859   7.573  0.5754  0.4351  0.5417
  709SOL    HW1 3199   5.707   6.829   7.663 -1.5887 -0.8703  0.4849
  709SOL    HW2 3200   5.623   6.923   7.579  1.6666  1.7874 -0.0539
  710SOL     OW 3201   2.451   7.013   4.675  0.3759 -0.2822 -0.3241
  710SOL    HW1 3202   2.431   7.005   4.768 -1.4205  0.2694 -0.6132
  710SOL    HW2 3203   2.480   6.926   4.648  0.4434 -0.5682  0.6551
  711SOL     OW 3204   3.927   1.426   2.666 -0.6391 -0.1334 -0.0193
  711SOL    HW1 3205   4.015   1.420   2.704 -0.5923  0.3164 -0.0552
  711SOL    HW2 3206   3.891   1.338   2.677 -0.3089 -0.2338  0.2994
  712SOL     OW 3207   0.691   6.261   5.365  0.2166 -0.1963  0.2457
  712SOL    HW1 3208   0.733   6.347   5.364  1.7862 -0.9280 -0.5140
  712SOL    HW2 3209   0.714   6.224   5.450  0.7246 -0.3987  0.0257
  713SOL     OW 3210   3.668   5.759   1.810 -0.1969 -0.2104 -0.6115
  713SOL    HW1 3211   3.618   5.828   1.766  0.5106 -0.0615 -1.2050
  713SOL    HW2 3212   3.756   5.795   1.819  0.2194 -1.0789 -1.0622
  714SOL     OW 3213   5.955   5.506   3.433 -0.9213  0.0008  0.7922
  714SOL    HW1 3214   6.030   5.485   3.377 -0.7498  0.8669  0.6734
  714SOL    HW2 3215   5.966   5.452   3.511 -0.1395  0.1623  0.7973
  715SOL     OW 3216   4.582   3.500   7.368  0.1699 -0.7396 -0.2999
  715SOL    HW1 3217   4.643   3.569   7.394 -1.0620  0.6953 -1.0370
  715SOL    HW2 3218   4.548   3.465   7.451  0.8925 -0.5352  0.0879
  716SOL     OW 3219   5.506   6.717   0.698  0.4237 -0.2120 -0.1718
  716SOL    HW1 3220   5.498   6.657   0.624 -0.1145 -0.2274 -0.1045
  716SOL    HW2 3221   5.516   6.660   0.774 -0.1539 -0.2194 -0.1000
  717SOL     OW 3222   7.753   7.568   6.566 -0.4669  0.6879 -0.7051
  717SOL    HW1 3223   7.846   7.570   6.546 -0.1715  0.9709  0.6071
  717SOL    HW2 3224   7.730   7.660   6.581 -0.6829  0.5101  0.1066
  718SOL     OW 3225   3.632   7.031   4.368  0.1529  0.0918 -0.0142
  718SOL    HW1 3226   3.668   7.119   4.356  0.0552 -0.0311 -1.3791
  718SOL    HW2 3227   3.590   7.011   4.284 -0.2980 -1.0439  0.4652
  719SOL     OW 3228   2.929   2.500   0.348  0.1515  0.0333  0.9419
  719SOL    HW1 3229   3.003   2.441   0.357 -0.0859 -0.2042  1.3202
  719SOL    HW2 3230   2.889   2.477   0.263  0.4876  0.1421  0.7529
  720SOL     OW 3231   1.844   0.295   7.314 -0.8225 -0.3767  0.3136
  720SOL    HW1 3232   1.844   0.201   7.295  2.4518 -0.7612  1.6070
  720SOL    HW2 3233   1.871   0.336   7.232 -2.2806 -0.4957 -0.2621
  721SOL     OW 3234   7.337   0.972   2.408  0.3832  0.3557 -0.0934
  721SOL    HW1 3235   7.293   1.055   2.427 -0.2054  0.5351 -1.9523
  721SOL    HW2 3236   7.266   0.909   2.398  0.8199 -0.3405  1.1144
  722SOL     OW 3237   4.011   3.133   4.253  0.4126 -0.4849  0.5321
  722SOL    HW1 3238   3.928   3.086   4.245  0.1523 -0.3041  1.8449
  722SOL    HW2 3239   4.045   3.107   4.339  0.8707  0.7689  0.7529
  723SOL     OW 3240   5.928   7.177   5.233  0.5232  0.8983  0.1285
  723SOL    HW1 3241   5.903   7.151   5.144  0.0861  0.2543  0.4326
  723SOL    HW2 3242   5.920   7.273   5.233 -0.4694  0.8237 -0.2327
  724SOL     OW 3243   1.376   1.833   0.878 -0.4991 -0.0477 -0.3671
  724SOL    HW1 3244   1.378   1.929   0.888 -1.5597 -0.0852  0.4018
  724SOL    HW2 3245   1.412   1.800   0.961  0.4245 -0.3209 -0.8679
  725SOL     OW 3246   1.755   1.112   7.688  0.8628 -0.0167  0.0120
  725SOL    HW1 3247   1.798   1.169   7.752  1.3584  1.2876 -1.4123
  725SOL    HW2 3248   1.768   1.156   7.604 -0.7390 -1.0888 -0.8577
  726SOL     OW 3249   2.943   3.310   0.392  0.4525 -0.2572  0.0688
  726SOL    HW1 3250   2.944   3.252   0.316 -1.7558 -2.0314  1.2760
  726SOL    HW2 3251   2.861   3.359   0.385  0.6417  0.1943  0.8444
  727SOL     OW 3252   7.053   1.840   5.072 -0.6057  0.2096  0.5855
  727SOL    HW1 3253   6.965   1.874   5.055  0.0756  1.1628 -1.2694
  727SOL    HW2 3254   7.040   1.746   5.086 -1.6303 -0.2728 -2.8368
  728SOL     OW 3255   6.793   1.178   2.357  0.6306 -0.0900  0.0602
  728SOL    HW1 3256   6.741   1.227   2.420  0.2764  1.7137 -1.5357
  728SOL    HW2 3257   6.872   1.153   2.404 -0.3036 -0.1854  1.6360
  729SOL     OW 3258   1.694   6.544   5.891 -0.1794  0.2340 -0.4724
  729SOL    HW1 3259   1.776   6.517   5.850  0.7324  1.8988  0.1843
  729SOL    HW2 3260   1.647   6.462   5.906  1.2232 -0.7287 -1.1218
  730SOL     OW 3261   1.409   4.149   1.864  0.0000 -0.6261 -0.0661
  730SOL    HW1 3262   1.492   4.141   1.818  0.7480  1.1914  0.8814
  730SOL    HW2 3263   1.411   4.081   1.931  2.1380  1.2428  1.9413
  731SOL     OW 3264   0.899   5.216   0.736  0.3990 -0.2696 -0.6123
  731SOL    HW1 3265   0.865   5.140   0.688  0.7827 -0.7092 -0.1946
  731SOL    HW2 3266   0.822   5.258   0.772  0.2737 -1.1862  0.2249
  732SOL     OW 3267   0.874   0.706   3.957  0.0328  0.5875  0.1622
  732SOL    HW1 3268   0.918   0.638   3.905  1.3790  1.1654  0.5017
  732SOL    HW2 3269   0.824   0.657   4.022  1.3419 -0.1042  0.6886
  733SOL     OW 3270   3.011   6.127   3.726 -0.3745  0.2286  0.2278
  733SOL    HW1 3271   2.945   6.159   3.664 -0.0383  1.7017  0.5852
  733SOL    HW2 3272   3.031   6.038   3.697 -1.2640  0.3806 -0.9093
  734SOL     OW 3273   4.063   3.076   2.875  0.4004 -0.2863  0.1703
  734SOL    HW1 3274   4.000   3.133   2.919  0.6714  0.8399 -0.8357
  734SOL    HW2 3275   4.018   2.992   2.867 -1.0440  0.5088 -0.6073
  735SOL     OW 3276   6.617   3.575   2.322 -0.3066 -0.1634 -0.4228
  735SOL    HW1 3277   6.528   3.563   2.355  0.9010 -0.6314  3.1553
  735SOL    HW2 3278   6.672   3.523   2.381  2.3538 -0.0844 -2.6137
  736SOL     OW 3279   3.624   1.807   6.752 -0.3318  0.4095  0.2809
  736SOL    HW1 3280   3.671   1.775   6.829 -0.2401  2.9232  1.3593
  736SOL    HW2 3281   3.682   1.789   6.679  0.2892 -0.5739  0.9892
  737SOL     OW 3282   4.390   0.392   1.026 -0.3273 -0.5206  0.3687
  737SOL    HW1 3283   4.338   0.472   1.013  2.1350  1.1513  0.1120
  737SOL    HW2 3284   4.421   0.370   0.938  0.0961 -0.9889  0.6359
  738SOL     OW 3285   3.437   2.292   3.027  0.1403 -0.0498 -0.0623
  738SOL    HW1 3286   3.359   2.273   3.080  0.6712  2.6652  1.9091
  738SOL    HW2 3287   3.490   2.213   3.034 -1.1357 -0.8610  1.0307
  739SOL     OW 3288   1.890   4.918   1.639  0.3307  0.5094 -0.4888
  739SOL    HW1 3289   1.894   4.892   1.547 -0.7109 -0.5828 -0.2514
  739SOL    HW2 3290   1.804   4.959   1.648 -0.3823 -1.1141  0.3955
  740SOL     OW 3291   2.020   1.573   2.338 -0.3214 -0.2581 -0.3092
  740SOL    HW1 3292   2.052   1.549   2.251 -0.2605  1.6762 -0.8694
  740SOL    HW2 3293   1.924   1.572   2.329 -0.3153  0.2255 -0.5203
  741SOL     OW 3294   0.338   2.915   6.222 -1.0624  0.6394 -0.2182
  741SOL    HW1 3295   0.379   2.884   6.303 -2.5116 -1.4781 -0.2246
  741SOL    HW2 3296   0.367   3.006   6.215  2.7196 -0.3603  0.2898
  742SOL     OW 3297   6.077   0.789   4.567  0.4026 -0.0744 -0.2167
  742SOL    HW1 3298   5.986   0.786   4.539  0.6026  1.1136 -1.0683
  742SOL    HW2 3299   6.076   0.754   4.656 -0.8184 -0.4250 -0.3472
  743SOL     OW 3300   8.007   5.971   3.239 -0.4600  0.3330  0.1993
  743SOL    HW1 3301   8.002   5.954   3.145  1.6706 -1.6190  0.3548
  743SOL    HW2 3302   7.919   6.002   3.262 -0.7302  1.9368 -2.5836
  744SOL     OW 3303   6.142   3.185   6.458  0.5980 -0.0437  0.0543
  744SOL    HW1 3304   6.137   3.109   6.516  1.1050 -1.7258 -1.9882
  744SOL    HW2 3305   6.231   3.219   6.470  0.4630  0.0705  0.7657
  745SOL     OW 3306   4.317   6.672   2.049 -0.0792  0.0457  0.1681
  745SOL    HW1 3307   4.380   6.603   2.028 -0.6250 -1.0362  1.8711
  745SOL    HW2 3308   4.319   6.731   1.974  1.5824 -0.9653 -0.6255
  746SOL     OW 3309   6.866   1.471   2.296  0.5061  0.3360  0.1689
  746SOL    HW1 3310   6.771   1.465   2.300  0.5262 -0.9348 -0.5298
  746SOL    HW2 3311   6.884   1.526   2.220  0.3452  0.8611  0.5020
  747SOL     OW 3312   5.207   2.819   7.914 -0.2210  1.4410 -0.0347
  747SOL    HW1 3313   5.154   2.852   7.987  0.4323  1.4283  0.4547
  747SOL    HW2 3314   5.269   2.890   7.894  1.5364  0.3903  1.3664
  748SOL     OW 3315   5.625   1.141   5.361 -0.0931 -0.2646 -0.1823
  748SOL    HW1 3316   5.587   1.071   5.414 -4.5468 -0.6183 -3.2164
  748SOL    HW2 3317   5.575   1.219   5.386  1.7146  0.8666  0.0433
  749SOL     OW 3318   4.445   0.338   4.146  0.1425 -0.5645 -0.0503
  749SOL    HW1 3319   4.531   0.323   4.106  1.0266 -0.4430  1.7058
  749SOL    HW2 3320   4.409   0.413   4.099  0.1333 -1.7789 -2.0840
  750SOL     OW 3321   3.537   3.554   1.725  0.0009  0.0772  0.1114
  750SOL    HW1 3322   3.620   3.514   1.701 -0.1954  0.0693 -0.5985
  750SOL    HW2 3323   3.500   3.583   1.641 -1.8059 -2.0446  0.0736
  751SOL     OW 3324   3.303   1.735   2.491  0.0355  0.2019 -0.1878
  751SOL    HW1 3325   3.340   1.648   2.504  2.1820  1.0374 -0.2427
  751SOL    HW2 3326   3.325   1.757   2.400 -0.3767  0.8473 -0.1381
  752SOL     OW 3327   4.451   6.043   0.833  0.0565  0.3586  0.4952
  752SOL    HW1 3328   4.537   6.001   0.831 -0.2727 -0.3529  1.0062
  752SOL    HW2 3329   4.414   6.018   0.918 -1.2744 -0.5961 -0.3368
  753SOL     OW 3330   2.602   7.409   3.167 -0.1639 -0.2685 -0.1982
  753SOL    HW1 3331   2.645   7.428   3.250  0.4254  0.2258 -0.6033
  753SOL    HW2 3332   2.595   7.314   3.164  0.4706 -0.3273  0.0918
  754SOL     OW 3333   0.295   0.995   2.078 -0.1118 -0.0412  0.4827
  754SOL    HW1 3334   0.259   1.057   2.142 -0.3428  1.3525 -0.9303
  754SOL    HW2 3335   0.322   0.920   2.131  1.2748  1.7132  2.4579
  755SOL     OW 3336   5.185   1.136   3.818 -1.1175  0.1450  0.5715
  755SOL    HW1 3337   5.185   1.150   3.724 -0.5986 -1.8711  0.2134
  755SOL    HW2 3338   5.112   1.077   3.833 -1.5658  0.9165  1.5392
  756SOL     OW 3339   7.679   1.803   4.021 -0.2648  0.4985 -0.2800
  756SOL    HW1 3340   7.620   1.807   4.096 -0.7127 -1.6514 -0.4565
  756SOL    HW2 3341   7.626   1.837   3.948 -1.2980 -1.2531 -0.4049
  757SOL     OW 3342   4.379   0.670   7.945 -0.0778 -0.8429 -0.2827
  757SOL    HW1 3343   4.414   0.691   8.032 -1.4049 -0.6705  0.2233
  757SOL    HW2 3344   4.334   0.750   7.918  1.7248 -0.2829 -1.8950
  758SOL     OW 3345   0.504   0.147   8.137 -0.1288 -0.5373  0.0631
  758SOL    HW1 3346   0.466   0.086   8.074 -0.5443 -2.3550  1.9808
  758SOL    HW2 3347   0.599   0.140   8.123 -0.1697 -1.6668  0.2812
  759SOL     OW 3348   2.028   3.036   1.550 -0.7659  0.0771  0.4168
  759SOL    HW1 3349   2.084   3.113   1.539 -0.6140 -0.0959 -0.0092
  759SOL    HW2 3350   1.950   3.070   1.595 -1.2559  0.7249 -0.8705
  760SOL     OW 3351   5.856   6.611   6.513  0.0506 -0.3906 -0.2006
  760SOL    HW1 3352   5.766   6.640   6.526  0.0322  0.2587 -1.5552
  760SOL    HW2 3353   5.909   6.687   6.536  0.2728 -0.8402  0.7989
  761SOL     OW 3354   3.466   1.182   6.779  0.0538  0.3524 -0.4669
  761SOL    HW1 3355   3.503   1.148   6.860 -1.4177  1.2320  0.6353
  761SOL    HW2 3356   3.483   1.114   6.713  2.1176  0.0377  0.3251
  762SOL     OW 3357   7.197   0.811   7.524  0.3264  0.0470 -0.4498
  762SOL    HW1 3358   7.198   0.720   7.553  0.5193  0.6134  1.4456
  762SOL    HW2 3359   7.255   0.813   7.449 -0.4081 -1.5597 -1.1149
  763SOL     OW 3360   7.327   3.603   3.780  0.3373 -0.5164  0.1880
  763SOL    HW1 3361   7.282   3.519   3.780 -0.4788 -0.1018  1.0125
  763SOL    HW2 3362   7.261   3.666   3.811  0.8683  0.4624 -0.6057
  764SOL     OW 3363   0.449   0.704   5.321 -0.0645  0.7965 -0.2085
  764SOL    HW1 3364   0.436   0.751   5.403  0.8540 -0.8666  0.9417
  764SOL    HW2 3365   0.407   0.759   5.255  1.8401  3.7727  0.8459
  765SOL     OW 3366   5.849   3.734   1.750 -0.4163  0.0073 -0.0633
  765SOL    HW1 3367   5.920   3.796   1.768 -1.6857  1.9380 -1.3600
  765SOL    HW2 3368   5.828   3.696   1.836  3.2919 -2.0212  0.1366
  766SOL     OW 3369   0.808   0.918   5.519  0.0003 -0.1525 -0.5740
  766SOL    HW1 3370   0.882   0.901   5.577  0.2562  1.6574 -0.3254
  766SOL    HW2 3371   0.805   0.841   5.462 -0.4433 -2.1333  1.9579
  767SOL     OW 3372   1.218   1.142   5.736 -0.4543 -0.1492 -0.2111
  767SOL    HW1 3373   1.267   1.197   5.675  0.6935 -1.4332 -0.4905
  767SOL    HW2 3374   1.179   1.203   5.798  0.6159  0.9897 -0.6300
  768SOL     OW 3375   6.332   2.827   3.800  0.0176  0.3960  0.3193
  768SOL    HW1 3376   6.331   2.915   3.762  1.1095  0.8473  1.2627
  768SOL    HW2 3377   6.248   2.819   3.843 -0.6257  0.4580 -0.8684
  769SOL     OW 3378   4.592   3.006   3.452  0.3816 -1.1649  0.0320
  769SOL    HW1 3379   4.628   3.029   3.366 -1.9662 -1.1090 -1.0254
  769SOL    HW2 3380   4.619   3.078   3.509 -0.4612  0.3806 -1.4177
  770SOL     OW 3381   1.878   2.930   4.813  0.0325 -0.5099  0.1989
  770SOL    HW1 3382   1.785   2.938   4.788  0.5577 -1.4150 -2.2435
  770SOL    HW2 3383   1.881   2.967   4.902 -1.8950  3.7364 -1.2189
  771SOL     OW 3384   7.928   1.277   3.535 -0.0218  0.0391  0.0512
  771SOL    HW1 3385   7.845   1.316   3.507  1.0233  1.3081 -1.4595
  771SOL    HW2 3386   7.969   1.345   3.589 -0.6837 -1.2545  2.2952
  772SOL     OW 3387   1.373   0.053   3.257  0.0803 -0.4856 -0.0716
  772SOL    HW1 3388   1.439   0.099   3.206 -1.5352  1.6253 -0.3808
  772SOL    HW2 3389   1.417  -0.027   3.286  2.3017  0.1664 -1.3964
  773SOL     OW 3390   3.598   1.948   3.557 -0.3205  0.2868  0.1061
  773SOL    HW1 3391   3.604   2.013   3.627 -2.1077 -0.0756  0.6564
  773SOL    HW2 3392   3.648   1.873   3.590 -0.3266  0.4802  0.5647
  774SOL     OW 3393   2.823   4.897   6.455  0.2455 -0.6960  0.6117
  774SOL    HW1 3394   2.825   4.992   6.456 -0.4106 -0.6150 -1.4654
  774SOL    HW2 3395   2.905   4.870   6.497  0.0390  0.7319  2.0281
  775SOL     OW 3396   0.799   3.484   6.826 -0.3051  0.2141  0.3084
  775SOL    HW1 3397   0.809   3.553   6.760  1.0992 -1.1434 -0.9899
  775SOL    HW2 3398   0.888   3.462   6.851 -0.7380 -0.8598  0.9712
  776SOL     OW 3399   4.869   1.694   1.310 -0.3666  0.3105  0.1772
  776SOL    HW1 3400   4.776   1.690   1.287 -0.7049 -1.8350  1.6311
  776SOL    HW2 3401   4.914   1.658   1.233 -0.7884  0.6047 -0.2150
  777SOL     OW 3402   6.826   7.168   4.675 -0.6716 -0.4474 -0.5019
  777SOL    HW1 3403   6.749   7.202   4.721 -0.7674 -0.9983 -0.2483
  777SOL    HW2 3404   6.825   7.212   4.590 -0.7885  0.1887 -0.1772
  778SOL     OW 3405   5.348   1.710   7.220  0.1319  0.3265  0.0646
  778SOL    HW1 3406   5.349   1.774   7.291  0.8974  1.0461 -0.5776
  778SOL    HW2 3407   5.440   1.693   7.201  0.0403  2.2209 -2.5626
  779SOL     OW 3408   3.174   3.013   1.665 -0.1008 -0.0295  0.1324
  779SOL    HW1 3409   3.214   3.025   1.578  0.8391  0.8322  0.6567
  779SOL    HW2 3410   3.247   2.988   1.721 -0.9880 -2.2679  0.3655
  780SOL     OW 3411   2.126   6.307   0.013  0.8202  0.3626 -0.2549
  780SOL    HW1 3412   2.099   6.241  -0.050  0.8728  0.2621 -0.1729
  780SOL    HW2 3413   2.216   6.284   0.035  0.6357  0.0882  0.2450
  781SOL     OW 3414   4.263   1.495   2.490  0.3160  0.5423  0.6283
  781SOL    HW1 3415   4.181   1.544   2.496  0.1350  0.3010  0.1806
  781SOL    HW2 3416   4.242   1.420   2.434  0.0079 -1.2399  2.9990
  782SOL     OW 3417   2.669   6.536   6.638  0.1400 -0.3106  0.0896
  782SOL    HW1 3418   2.714   6.619   6.653 -0.8142  0.0381  1.2184
  782SOL    HW2 3419   2.582   6.562   6.607  0.6049 -0.9621 -1.8905
  783SOL     OW 3420   5.472   5.769   6.806  0.0489  0.0831 -0.1225
  783SOL    HW1 3421   5.444   5.832   6.739  0.9079  1.3707  0.6584
  783SOL    HW2 3422   5.394   5.754   6.859 -0.5779 -0.7648 -1.2487
  784SOL     OW 3423   3.105   6.618   7.050  0.8733  0.4997 -0.3930
  784SOL    HW1 3424   3.173   6.672   7.090 -0.4982  0.8063  1.7207
  784SOL    HW2 3425   3.126   6.529   7.078  0.8815  0.4819 -0.4554
  785SOL     OW 3426   4.697   3.837   6.246  0.0273  0.4961  0.6377
  785SOL    HW1 3427   4.653   3.900   6.304  2.5442  0.7711  2.3591
  785SOL    HW2 3428   4.722   3.890   6.169 -3.4768  0.0882 -1.0058
  786SOL     OW 3429   6.735   2.444   0.671  0.4175 -0.3877  0.7270
  786SOL    HW1 3430   6.795   2.433   0.597  0.2467  1.6531  0.2304
  786SOL    HW2 3431   6.783   2.497   0.733 -0.7694  1.1480  0.3956
  787SOL     OW 3432   5.301   0.389   3.812  0.1264  0.2067 -0.5328
  787SOL    HW1 3433   5.349   0.451   3.758 -1.4665  0.7224 -1.4319
  787SOL    HW2 3434   5.220   0.373   3.763 -1.5018  0.8563  1.7932
  788SOL     OW 3435   0.918   6.142   3.644  0.0328 -0.0137  0.2071
  788SOL    HW1 3436   0.956   6.130   3.557  0.3905 -1.3911  0.5308
  788SOL    HW2 3437   0.853   6.211   3.632  0.9010  0.6542 -0.8901
  789SOL     OW 3438   4.326   1.238   5.555  0.0832  0.1306  0.3902
  789SOL    HW1 3439   4.245   1.190   5.573  0.3308 -0.4427  0.0059
  789SOL    HW2 3440   4.297   1.318   5.511 -0.2562 -0.1985  0.0017
  790SOL     OW 3441   7.715   7.000   4.395 -0.6563  0.1629  0.4226
  790SOL    HW1 3442   7.733   7.056   4.319 -0.3964  0.8558  0.9860
  790SOL    HW2 3443   7.800   6.962   4.418 -1.2203 -2.6520 -1.5911
  791SOL     OW 3444   1.060   0.993   4.422 -0.6011 -0.5212  0.8202
  791SOL    HW1 3445   1.098   1.003   4.335 -1.6028 -0.1698  0.4233
  791SOL    HW2 3446   1.117   1.045   4.479  0.3215 -1.1115  0.4747
  792SOL     OW 3447   5.194   5.862   0.648  0.4295  0.2095  0.5966
  792SOL    HW1 3448   5.114   5.826   0.611 -0.1664  1.0095  1.0751
  792SOL    HW2 3449   5.264   5.810   0.610 -0.3775 -1.1961  0.9682
  793SOL     OW 3450   6.684   3.581   5.796  0.4386  0.3098  0.0648
  793SOL    HW1 3451   6.712   3.514   5.734 -0.2149  0.9955 -1.0114
  793SOL    HW2 3452   6.696   3.664   5.750 -1.6427  0.7490  0.1664
  794SOL     OW 3453   4.180   2.930   6.886  1.2129 -0.3674 -0.3357
  794SOL    HW1 3454   4.139   3.005   6.843 -2.1354 -0.8420  1.6412
  794SOL    HW2 3455   4.245   2.968   6.945  0.7985  0.8146 -0.6226
  795SOL     OW 3456   3.188   5.350   6.089  0.0247  0.2931  0.4903
  795SOL    HW1 3457   3.182   5.369   5.996 -3.4367  1.3418  0.7864
  795SOL    HW2 3458   3.251   5.414   6.123 -1.7100  2.7222 -0.5820
  796SOL     OW 3459   7.267   3.854   5.947  0.6272  0.3792 -0.0062
  796SOL    HW1 3460   7.172   3.851   5.948  0.6049  0.9794  0.5666
  796SOL    HW2 3461   7.288   3.946   5.929  1.0545  0.8970  2.6982
  797SOL     OW 3462   7.536   4.052   2.760  0.3611 -0.3300  0.2824
  797SOL    HW1 3463   7.484   3.979   2.793  1.4291 -1.0207  0.4897
  797SOL    HW2 3464   7.474   4.106   2.710 -0.5417 -1.1016  0.5516
  798SOL     OW 3465   2.845   3.310   1.466 -0.2892 -0.2996 -0.6617
  798SOL    HW1 3466   2.760   3.267   1.479 -0.6344  0.5940  0.0872
  798SOL    HW2 3467   2.887   3.308   1.552 -0.7282  1.7098 -0.3610
  799SOL     OW 3468   6.341   1.413   1.288 -0.0048  0.2852 -0.0768
  799SOL    HW1 3469   6.428   1.434   1.324  0.0687  0.9203 -0.6127
  799SOL    HW2 3470   6.330   1.474   1.215  0.3445 -1.6906 -1.8893
  800SOL     OW 3471   3.549   7.904   0.354  0.1976 -0.3160 -0.0879
  800SOL    HW1 3472   3.603   7.941   0.284 -0.4590  0.8467  0.0019
  800SOL    HW2 3473   3.495   7.838   0.310 -0.2729  0.4640 -0.7029
  801SOL     OW 3474   1.013   4.332   7.644 -0.1027  0.1045  0.3516
  801SOL    HW1 3475   0.937   4.366   7.691  0.6640  0.5685  1.2978
  801SOL    HW2 3476   1.042   4.406   7.589  0.3883  0.3507  0.9262
  802SOL     OW 3477   2.896   4.315   4.679 -0.1728  0.2792 -0.3533
  802SOL    HW1 3478   2.979   4.339   4.722 -0.9273  0.0209  1.3094
  802SOL    HW2 3479   2.876   4.390   4.624  0.1010  1.2832  0.8636
  803SOL     OW 3480   5.124   5.929   4.798 -0.5306  0.2477  0.1643
  803SOL    HW1 3481   5.051   5.952   4.855 -1.1752 -1.6925  0.2056
  803SOL    HW2 3482   5.137   6.006   4.743  1.2182  2.9677  3.8665
  804SOL     OW 3483   4.536   0.863   8.162 -0.4504 -0.0142 -0.3225
  804SOL    HW1 3484   4.579   0.913   8.094  0.0277 -0.3269 -0.2558
  804SOL    HW2 3485   4.453   0.908   8.177  0.3145  1.2202  0.3003
  805SOL     OW 3486   1.254   3.553   6.642  0.0252 -0.0912 -0.0669
  805SOL    HW1 3487   1.291   3.641   6.635  0.1988 -0.2021 -0.6071
  805SOL    HW2 3488   1.234   3.528   6.552  0.3650 -0.7638  0.0346
  806SOL     OW 3489   5.974   5.175   6.847  1.0237  0.3452 -0.2519
  806SOL    HW1 3490   5.940   5.086   6.853 -2.9479  1.5847 -1.2266
  806SOL    HW2 3491   6.062   5.165   6.811  0.9217 -3.1414  0.1137
  807SOL     OW 3492   3.803   3.252   3.880 -0.1400  0.6449  0.5814
  807SOL    HW1 3493   3.879   3.241   3.937 -0.4529  0.4520  0.9687
  807SOL    HW2 3494   3.733   3.280   3.939 -0.4211  0.6247  0.2586
  808SOL     OW 3495   3.109   5.311   1.605 -0.2644 -0.0485  0.4577
  808SOL    HW1 3496   3.153   5.323   1.689 -0.5236  0.1992  0.5592
  808SOL    HW2 3497   3.115   5.396   1.562  1.5954 -0.6573 -0.6323
  809SOL     OW 3498   1.521   5.110   6.738 -0.3802  0.2900 -0.1173
  809SOL    HW1 3499   1.438   5.080   6.702 -0.7969  0.5092  0.6482
  809SOL    HW2 3500   1.584   5.043   6.711 -0.6423  0.5261 -1.3873
  810SOL     OW 3501   7.569   3.395   4.927 -0.6895 -0.5325 -0.5723
  810SOL    HW1 3502   7.570   3.449   5.006 -2.5191 -2.0957  0.6040
  810SOL    HW2 3503   7.656   3.406   4.889 -0.2014  1.3046  0.9232
  811SOL     OW 3504   0.565   7.763   6.653  0.0384 -0.2188 -0.3065
  811SOL    HW1 3505   0.632   7.713   6.605  0.7478  0.1159  0.3073
  811SOL    HW2 3506   0.563   7.848   6.610 -0.1542 -0.3035 -0.4653
  812SOL     OW 3507   4.782   3.584   5.184  0.3101 -0.3176  0.1204
  812SOL    HW1 3508   4.843   3.598   5.256 -0.0488 -0.0795  0.3758
  812SOL    HW2 3509   4.761   3.490   5.189 -1.5805  0.1443  1.8237
  813SOL     OW 3510   5.663   6.289   3.809 -0.2652  0.0768 -0.3737
  813SOL    HW1 3511   5.697   6.374   3.780 -0.0303  0.2869  0.5036
  813SOL    HW2 3512   5.681   6.286   3.903 -0.1490 -1.0042 -0.4175
  814SOL     OW 3513   5.382   2.040   4.931 -0.4541  0.2199  0.0971
  814SOL    HW1 3514   5.361   1.998   4.848  1.6619 -0.7378 -0.0293
  814SOL    HW2 3515   5.471   2.073   4.919 -0.4545  0.8838  1.6815
  815SOL     OW 3516   1.348   7.337   6.080  0.2378  0.8853  0.1764
  815SOL    HW1 3517   1.323   7.421   6.118 -1.7525  0.5419 -0.2775
  815SOL    HW2 3518   1.307   7.272   6.137  1.4567  0.2019  0.3131
  816SOL     OW 3519   3.291   2.486   2.271  0.5660 -0.1259  0.5387
  816SOL    HW1 3520   3.311   2.401   2.231  1.4671  0.3336 -0.0022
  816SOL    HW2 3521   3.200   2.503   2.247  0.0181 -1.4253  1.5480
  817SOL     OW 3522   8.102   0.464   1.178 -0.1768 -0.3646  0.1959
  817SOL    HW1 3523   8.197   0.451   1.180 -0.2363 -0.6927  0.7963
  817SOL    HW2 3524   8.091   0.559   1.186  0.1464 -0.1686 -1.3513
  818SOL     OW 3525   2.259   7.123   2.131 -0.1239  0.3876 -0.1746
  818SOL    HW1 3526   2.286   7.099   2.220 -1.4869 -0.6105  0.0078
  818SOL    HW2 3527   2.339   7.155   2.089  0.1660  2.7849  1.9875
  819SOL     OW 3528   1.399   2.905   6.282 -0.1862  0.4476  0.1690
  819SOL    HW1 3529   1.334   2.848   6.241 -0.5831  0.7267  0.4146
  819SOL    HW2 3530   1.425   2.965   6.212  0.6528 -0.3773 -0.2595
  820SOL     OW 3531   0.306   3.754   4.024 -0.6526  0.1946 -0.0410
  820SOL    HW1 3532   0.273   3.770   3.935  0.2400 -0.0775 -0.4251
  820SOL    HW2 3533   0.394   3.719   4.012  0.0222  1.4559  0.9948
  821SOL     OW 3534   7.556   6.317   6.069 -0.6710 -0.6347 -0.6385
  821SOL    HW1 3535   7.583   6.227   6.088  0.1340 -0.0355  1.3209
  821SOL    HW2 3536   7.540   6.356   6.155  0.8856  1.6442 -1.2873
  822SOL     OW 3537   7.790   6.308   7.987  0.1253 -0.5369 -0.3562
  822SOL    HW1 3538   7.715   6.255   7.962  0.6501 -0.8522 -1.2845
  822SOL    HW2 3539   7.764   6.398   7.966 -0.6680 -0.4128  0.9965
  823SOL     OW 3540   1.156   3.501   7.202  0.2099  0.8114 -0.0981
  823SOL    HW1 3541   1.088   3.448   7.162  0.3708  0.2061  0.4312
  823SOL    HW2 3542   1.112   3.549   7.272  0.4324 -0.0281  0.6362
  824SOL     OW 3543   3.435   5.560   2.455  0.3276  0.0307  0.1328
  824SOL    HW1 3544   3.520   5.548   2.498  0.0617  0.2964  0.7470
  824SOL    HW2 3545   3.418   5.654   2.463 -0.2277 -0.0917  0.3986
  825SOL     OW 3546   6.055   0.782   1.624 -0.2735 -0.4818  0.3507
  825SOL    HW1 3547   6.009   0.851   1.671  0.9901 -0.2555  1.2968
  825SOL    HW2 3548   5.991   0.710   1.618 -1.2914  0.4127  0.1572
  826SOL     OW 3549   4.799   3.487   0.790  0.1099 -0.2650  0.1422
  826SOL    HW1 3550   4.851   3.555   0.832  2.7229 -1.5218 -0.7878
  826SOL    HW2 3551   4.799   3.415   0.853 -1.5682  0.1007  0.6038
  827SOL     OW 3552   3.806   5.888   6.619  0.0092 -0.1951 -0.1749
  827SOL    HW1 3553   3.745   5.917   6.687 -0.3032 -1.6265  0.1781
  827SOL    HW2 3554   3.890   5.928   6.644 -0.5023  0.8210 -0.0119
  828SOL     OW 3555   3.720   8.011   7.495 -0.2201  0.5656  0.5895
  828SOL    HW1 3556   3.760   7.941   7.547  1.2776 -0.6993 -2.0513
  828SOL    HW2 3557   3.791   8.071   7.476  0.0106 -0.4539 -2.1906
  829SOL     OW 3558   5.497   4.320   3.730  0.1937 -1.0059 -0.3887
  829SOL    HW1 3559   5.588   4.325   3.759  0.1079  1.7948 -0.3548
  829SOL    HW2 3560   5.501   4.338   3.636 -0.0217 -5.0488 -1.3520
  830SOL     OW 3561   3.277   6.065   3.503  0.5194  0.4095  0.6201
  830SOL    HW1 3562   3.190   6.052   3.465 -0.1196  0.8503  1.8462
  830SOL    HW2 3563   3.288   6.160   3.503 -0.2212  0.5568  2.9651
  831SOL     OW 3564   4.951   5.866   5.658 -0.4837 -0.4289 -0.5488
  831SOL    HW1 3565   4.887   5.905   5.597 -1.1354 -0.1333  0.3017
  831SOL    HW2 3566   4.917   5.778   5.675  0.0015 -0.7196 -1.0341
  832SOL     OW 3567   6.450   2.758   7.311  0.3136 -0.1371 -0.2939
  832SOL    HW1 3568   6.442   2.826   7.244  1.5564 -1.6447 -2.0846
  832SOL    HW2 3569   6.400   2.684   7.276 -1.2752 -0.1073  1.7581
  833SOL     OW 3570   8.109   3.212   6.788  0.1337 -0.0642  0.0722
  833SOL    HW1 3571   8.092   3.187   6.697  2.1718 -3.6142  0.4733
  833SOL    HW2 3572   8.204   3.203   6.798 -0.0555  0.0083  2.5891
  834SOL     OW 3573   2.355   1.339   1.992  0.3305 -0.1082 -0.1372
  834SOL    HW1 3574   2.420   1.330   2.062  0.3226  0.6106 -0.0287
  834SOL    HW2 3575   2.403   1.379   1.920  0.4518 -1.2690 -0.7203
  835SOL     OW 3576   0.937   2.833   3.103  0.4907 -0.0984  0.4274
  835SOL    HW1 3577   0.982   2.912   3.134  0.5762  0.7607 -1.7382
  835SOL    HW2 3578   0.908   2.789   3.183  3.5187  0.2794  1.8793
  836SOL     OW 3579   5.375   3.512   4.942 -0.2560 -0.4036 -0.0549
  836SOL    HW1 3580   5.304   3.576   4.939  0.3572  0.2889 -0.2003
  836SOL    HW2 3581   5.399   3.507   5.035 -0.0771 -0.1511 -0.0843
  837SOL     OW 3582   3.821   3.713   1.523  0.2249 -0.1130 -0.1040
  837SOL    HW1 3583   3.788   3.651   1.458 -1.0421 -0.4752  0.8612
  837SOL    HW2 3584   3.754   3.781   1.528  1.0424  0.7285 -0.2772
  838SOL     OW 3585   7.155   2.747   6.300  0.4087  0.6173  0.4289
  838SOL    HW1 3586   7.151   2.840   6.278 -0.4299  0.9165  1.7293
  838SOL    HW2 3587   7.182   2.746   6.392  1.9510 -0.4961 -0.0019
  839SOL     OW 3588   3.484   1.201   0.268 -0.2218 -0.1255  0.3673
  839SOL    HW1 3589   3.480   1.297   0.275 -0.3719 -0.1072  0.0426
  839SOL    HW2 3590   3.559   1.177   0.322  0.6400  0.2907 -0.6032
  840SOL     OW 3591   0.321   0.379   2.476 -0.2344 -0.0910 -0.5813
  840SOL    HW1 3592   0.286   0.465   2.453 -0.9638 -0.3670 -0.5402
  840SOL    HW2 3593   0.391   0.397   2.538  0.8583  0.5805 -1.9595
  841SOL     OW 3594   2.512   7.042   7.418 -0.0886 -0.0036 -0.0860
  841SOL    HW1 3595   2.425   7.036   7.379 -0.6372  0.5425  1.0199
  841SOL    HW2 3596   2.507   6.989   7.498  0.7594 -0.4072 -0.2812
  842SOL     OW 3597   3.578   5.966   5.438  0.3604 -0.2017  0.0523
  842SOL    HW1 3598   3.506   6.003   5.387  0.8749 -0.7981 -1.1570
  842SOL    HW2 3599   3.649   6.030   5.430  0.6644 -0.5996 -0.5761
  843SOL     OW 3600   6.297   4.141   2.538  0.4036 -0.4901 -0.1603
  843SOL    HW1 3601   6.235   4.198   2.584 -2.9619 -3.6524 -0.3266
  843SOL    HW2 3602   6.294   4.171   2.447 -0.6508 -0.4139 -0.1071
  844SOL     OW 3603   5.957   2.257   0.831  0.6161 -0.1965 -0.3859
  844SOL    HW1 3604   6.036   2.249   0.777  0.5446  0.4298 -0.5904
  844SOL    HW2 3605   5.887   2.275   0.768  0.5332  0.5574 -0.0927
  845SOL     OW 3606   4.640   0.263   8.079  0.1172  0.4421 -0.2567
  845SOL    HW1 3607   4.558   0.306   8.054 -0.0662  0.8363  0.9705
  845SOL    HW2 3608   4.701   0.335   8.093  0.4477  0.1844 -0.3626
  846SOL     OW 3609   3.237   4.098   6.367 -0.0759 -0.2257  0.0932
  846SOL    HW1 3610   3.180   4.173   6.349 -1.3189 -1.4391 -1.2852
  846SOL    HW2 3611   3.287   4.085   6.286 -0.3901 -1.3088  0.0572
  847SOL     OW 3612   5.235   3.773   1.350  0.0475  0.0195 -0.1264
  847SOL    HW1 3613   5.254   3.701   1.289 -1.9675 -0.0408 -0.7611
  847SOL    HW2 3614   5.158   3.743   1.398  0.0218  1.1885  0.5953
  848SOL     OW 3615   2.978   1.924   2.707  0.2683 -0.5587  0.7765
  848SOL    HW1 3616   2.922   1.998   2.683 -1.1578 -1.0539  2.3591
  848SOL    HW2 3617   3.025   1.955   2.785  2.5527 -0.0198 -0.7302
  849SOL     OW 3618   7.340   5.809   3.171  0.2396  0.3630 -0.5942
  849SOL    HW1 3619   7.318   5.716   3.165 -0.8854  0.6030 -0.4769
  849SOL    HW2 3620   7.286   5.841   3.244  1.2986  0.9206 -0.0323
  850SOL     OW 3621   1.902   3.705   7.957 -0.1240 -0.0475  0.3954
  850SOL    HW1 3622   1.838   3.748   7.900  1.2804  0.5298 -0.8297
  850SOL    HW2 3623   1.983   3.703   7.905  1.1649  0.2509  2.2824
  851SOL     OW 3624   1.540   3.298   5.867 -0.2138  0.3629 -0.8794
  851SOL    HW1 3625   1.454   3.335   5.846  0.2719  0.9281 -2.0006
  851SOL    HW2 3626   1.600   3.373   5.862  0.2218  0.1685  0.8476
  852SOL     OW 3627   4.747   7.617   5.062 -0.2368 -0.4611  0.4684
  852SOL    HW1 3628   4.836   7.600   5.033 -0.0592  0.5917  0.3582
  852SOL    HW2 3629   4.724   7.540   5.114  0.3838 -1.1781 -0.2712
  853SOL     OW 3630   0.670   4.021   0.454 -0.1558  0.0064  0.8726
  853SOL    HW1 3631   0.677   3.952   0.388  1.8075  0.3387  0.6815
  853SOL    HW2 3632   0.588   4.065   0.433 -1.2945 -2.0386  0.8015
  854SOL     OW 3633   1.763   7.496   3.013 -0.1020  0.0046  1.1862
  854SOL    HW1 3634   1.672   7.508   2.988  0.2456  0.8974  0.2985
  854SOL    HW2 3635   1.770   7.538   3.099 -0.1172  1.6479  0.4211
  855SOL     OW 3636   0.998   4.080   0.964  0.1331 -0.3522 -0.3981
  855SOL    HW1 3637   0.938   4.021   1.009 -1.6428  0.0465 -2.0978
  855SOL    HW2 3638   1.009   4.154   1.024 -0.5598 -0.7248  0.2013
  856SOL     OW 3639   5.302   3.623   3.031 -0.7077  0.6792 -0.9980
  856SOL    HW1 3640   5.361   3.623   2.956  0.6644 -0.5633  0.0211
  856SOL    HW2 3641   5.236   3.557   3.010  0.4912 -0.7249 -0.5757
  857SOL     OW 3642   7.590   5.208   1.349  0.2987 -0.0928  0.3547
  857SOL    HW1 3643   7.650   5.147   1.393  0.6087  0.9319  1.4056
  857SOL    HW2 3644   7.630   5.224   1.264  0.1624 -1.4101  0.0138
  858SOL     OW 3645   5.394   5.200   0.621 -0.0813 -0.1102 -0.7154
  858SOL    HW1 3646   5.320   5.217   0.563 -0.8783 -2.2165 -0.4053
  858SOL    HW2 3647   5.388   5.268   0.689 -0.1726  1.2976 -2.0783
  859SOL     OW 3648   5.609   7.087   5.171  0.2347 -0.4496 -0.4470
  859SOL    HW1 3649   5.633   7.006   5.217 -1.3691  0.5788  2.3877
  859SOL    HW2 3650   5.629   7.068   5.079 -0.3624 -4.1762  0.0257
  860SOL     OW 3651   5.694   1.401   3.782  0.1867  0.6059  0.6032
  860SOL    HW1 3652   5.642   1.386   3.861  0.1164 -1.2802  0.2524
  860SOL    HW2 3653   5.631   1.392   3.710  0.4654  1.2025  0.2743
  861SOL     OW 3654   6.573   4.524   6.289  0.4722 -0.1749  0.6343
  861SOL    HW1 3655   6.601   4.574   6.213  0.2597 -1.8372 -0.5968
  861SOL    HW2 3656   6.479   4.511   6.277  0.4602 -0.5671  1.1030
  862SOL     OW 3657   1.230   1.954   3.200  0.0057 -0.4459 -0.1155
  862SOL    HW1 3658   1.219   2.048   3.188 -0.7439 -0.6030 -0.7158
  862SOL    HW2 3659   1.203   1.916   3.116 -0.2235 -1.2294  0.3098
  863SOL     OW 3660   5.820   2.961   4.679  0.0337 -0.8764 -0.4581
  863SOL    HW1 3661   5.808   2.966   4.773  1.1078  2.3857 -0.3668
  863SOL    HW2 3662   5.734   2.981   4.642  0.1566  0.4237 -0.0904
  864SOL     OW 3663   2.847   3.351   6.962  0.2622 -0.3688 -0.6120
  864SOL    HW1 3664   2.895   3.361   7.044 -1.5791  0.8985  0.3831
  864SOL    HW2 3665   2.789   3.276   6.978 -1.3020  0.8979 -0.0603
  865SOL     OW 3666   3.110   8.106   6.343 -0.2977  0.3250  0.4151
  865SOL    HW1 3667   3.027   8.098   6.297  0.6199  1.6762 -1.6764
  865SOL    HW2 3668   3.101   8.186   6.396 -0.3589  0.4216  0.2572
  866SOL     OW 3669   6.941   0.110   3.263 -0.1568  0.0038  0.2198
  866SOL    HW1 3670   6.883   0.034   3.256 -0.5497  0.3355 -0.2209
  866SOL    HW2 3671   6.927   0.143   3.352 -0.3208 -0.1797  0.2619
  867SOL     OW 3672   2.955   0.837   3.398  0.1639  0.0170  0.3253
  867SOL    HW1 3673   3.024   0.846   3.463  0.0317 -1.0241  0.6283
  867SOL    HW2 3674   2.930   0.745   3.402 -0.6400  0.1890 -0.3953
  868SOL     OW 3675   7.412   1.359   7.672 -0.3225 -0.5207 -0.6365
  868SOL    HW1 3676   7.367   1.279   7.643 -1.3835 -0.0374 -0.3929
  868SOL    HW2 3677   7.417   1.350   7.768  0.3155 -0.6802 -0.6854
  869SOL     OW 3678   4.527   0.723   4.186  0.2554  0.1330 -0.8267
  869SOL    HW1 3679   4.584   0.652   4.157  0.1203 -0.1280 -0.4631
  869SOL    HW2 3680   4.587   0.790   4.220  0.3019 -0.9937  1.4783
  870SOL     OW 3681   6.615   2.307   5.547  0.6002  0.4736  0.2516
  870SOL    HW1 3682   6.628   2.391   5.502  1.2243  0.3824  0.2546
  870SOL    HW2 3683   6.684   2.251   5.513 -0.0617 -0.1721 -0.0484
  871SOL     OW 3684   6.317   4.089   0.040 -0.0382 -0.7166  0.3182
  871SOL    HW1 3685   6.303   4.078  -0.054 -0.2237  1.4954  0.0438
  871SOL    HW2 3686   6.404   4.052   0.055  0.5892  0.1434 -0.9895
  872SOL     OW 3687   2.396   0.796   0.215 -0.0225  0.4543  0.6195
  872SOL    HW1 3688   2.378   0.759   0.301 -1.5230  0.7513  0.4677
  872SOL    HW2 3689   2.343   0.744   0.155  1.5910 -0.2497 -0.2652
  873SOL     OW 3690   0.012   6.664   2.134  0.7160  0.3727  0.3460
  873SOL    HW1 3691  -0.015   6.578   2.103  1.1939  0.5626 -0.6387
  873SOL    HW2 3692  -0.062   6.721   2.113  0.9221  0.4447 -0.2098
  874SOL     OW 3693   4.025   1.164   1.755  0.4629  0.7794 -0.1030
  874SOL    HW1 3694   4.010   1.245   1.803 -1.4732 -0.5884  1.7995
  874SOL    HW2 3695   3.939   1.139   1.721  0.6446 -1.2634  0.7695
  875SOL     OW 3696   2.519   0.806   5.583 -0.3270  0.2972  0.6981
  875SOL    HW1 3697   2.512   0.849   5.668 -0.6107 -0.9689  1.3542
  875SOL    HW2 3698   2.585   0.738   5.596  0.6671  0.9988 -0.5245
  876SOL     OW 3699   7.898   4.741   0.806  0.3378 -0.0177 -0.4545
  876SOL    HW1 3700   7.916   4.794   0.884 -0.1460  0.6075 -0.7539
  876SOL    HW2 3701   7.815   4.776   0.773  1.4686  1.0572 -2.3441
  877SOL     OW 3702   1.175   5.286   4.628 -0.4468  0.2068  0.0818
  877SOL    HW1 3703   1.170   5.320   4.717 -2.8613  1.4746 -0.4457
  877SOL    HW2 3704   1.255   5.323   4.592  0.1042  0.3759  1.4320
  878SOL     OW 3705   2.998   5.530   7.485 -0.5087  0.4922  0.5344
  878SOL    HW1 3706   3.022   5.535   7.578  1.7817  0.0399  0.0356
  878SOL    HW2 3707   3.071   5.572   7.439 -0.2029 -1.7406 -1.1889
  879SOL     OW 3708   1.601   0.674   4.951 -0.1757  0.7579 -0.1802
  879SOL    HW1 3709   1.640   0.717   4.875 -0.1907 -1.7605 -1.7528
  879SOL    HW2 3710   1.520   0.636   4.918  0.2828 -1.2068  0.7638
  880SOL     OW 3711   6.947   3.123   8.143  0.8739 -0.6221 -0.9063
  880SOL    HW1 3712   6.933   3.119   8.237  1.4112 -0.3327 -0.8081
  880SOL    HW2 3713   7.017   3.060   8.126 -0.1113 -1.6403 -1.3053
  881SOL     OW 3714   5.202   4.473   7.371  0.0704 -0.3068 -0.0725
  881SOL    HW1 3715   5.130   4.520   7.414 -0.3641  1.1428 -2.2090
  881SOL    HW2 3716   5.169   4.453   7.283  1.3565 -2.0146 -0.2313
  882SOL     OW 3717   2.864   6.898   2.588  0.3733 -0.5702  0.1195
  882SOL    HW1 3718   2.853   6.876   2.495 -0.7767 -0.5136  0.2327
  882SOL    HW2 3719   2.947   6.945   2.591  0.0300  0.1684 -1.0261
  883SOL     OW 3720   7.625   5.672   5.204  0.2730  0.0392 -0.4919
  883SOL    HW1 3721   7.579   5.596   5.241  0.8661 -0.1564 -0.1400
  883SOL    HW2 3722   7.717   5.655   5.222  0.4021  0.9059 -0.2916
  884SOL     OW 3723   6.355   3.802   7.683  0.1977 -0.0048  0.4457
  884SOL    HW1 3724   6.308   3.882   7.707 -1.2445 -0.3258 -1.1023
  884SOL    HW2 3725   6.305   3.732   7.725  0.7279 -0.1816  0.7821
  885SOL     OW 3726   3.119   1.136   1.009  0.5358  0.0815 -0.6302
  885SOL    HW1 3727   3.087   1.069   1.070  1.2790 -0.0227 -0.3475
  885SOL    HW2 3728   3.067   1.122   0.929  1.5138 -1.6579 -1.0251
  886SOL     OW 3729   0.649   7.947   4.315  0.1685 -0.2862 -0.8906
  886SOL    HW1 3730   0.600   8.029   4.315  1.7639  0.7234  0.4657
  886SOL    HW2 3731   0.624   7.904   4.398  1.0716 -0.0674 -0.5006
  887SOL     OW 3732   0.157   0.774   4.495  0.5089  0.1131  0.1246
  887SOL    HW1 3733   0.130   0.758   4.405  1.0677 -0.4174  0.0391
  887SOL    HW2 3734   0.233   0.832   4.487  2.1414 -1.9003  0.0638
  888SOL     OW 3735   7.530   4.254   5.197  0.2885 -0.2031  0.5265
  888SOL    HW1 3736   7.535   4.305   5.116 -0.3743  1.3023  1.3949
  888SOL    HW2 3737   7.515   4.319   5.265  4.0545 -0.9957  2.3501
  889SOL     OW 3738   1.650   7.008   8.043 -0.3513  0.1993  0.2781
  889SOL    HW1 3739   1.706   6.934   8.064  0.1686 -0.0344 -1.7405
  889SOL    HW2 3740   1.706   7.085   8.051 -0.4338  0.2174  0.7090
  890SOL     OW 3741   0.389   3.614   6.244 -0.0407 -0.4845  0.0507
  890SOL    HW1 3742   0.422   3.689   6.195 -0.2141  0.3858  1.2071
  890SOL    HW2 3743   0.294   3.624   6.242 -0.0395  0.0489  1.2182
  891SOL     OW 3744   0.338   0.323   6.112  0.1794 -0.1445 -0.4992
  891SOL    HW1 3745   0.372   0.384   6.178  0.1588  1.2873 -1.7553
  891SOL    HW2 3746   0.416   0.284   6.074  0.1742 -1.9869  1.2016
  892SOL     OW 3747   2.938   3.919   6.871  0.2091  0.1715  0.1795
  892SOL    HW1 3748   3.009   3.856   6.882  0.2913  0.4006  1.0296
  892SOL    HW2 3749   2.882   3.905   6.947 -0.2167  0.5537 -0.0611
  893SOL     OW 3750   1.432   1.386   2.036  0.5830 -0.4356 -0.1692
  893SOL    HW1 3751   1.451   1.465   1.986  1.4067  0.0070  0.8110
  893SOL    HW2 3752   1.400   1.324   1.971 -0.4648  0.8168 -0.9017
  894SOL     OW 3753   8.112   7.257   7.366 -0.5485  0.5725  0.3070
  894SOL    HW1 3754   8.130   7.251   7.273 -1.4319  1.7736  0.0315
  894SOL    HW2 3755   8.197   7.277   7.406 -0.4279  1.5746 -0.4260
  895SOL     OW 3756   1.199   7.394   4.901  0.4648  0.6922 -0.5259
  895SOL    HW1 3757   1.155   7.453   4.840 -0.3180 -0.5563 -1.1945
  895SOL    HW2 3758   1.268   7.354   4.850  1.4605  1.5223  0.1226
  896SOL     OW 3759   0.164   7.151   6.702  0.4826 -0.5167  0.0092
  896SOL    HW1 3760   0.106   7.190   6.637  0.4746 -0.1266  0.2429
  896SOL    HW2 3761   0.187   7.224   6.760  1.1799 -0.6759 -0.0604
  897SOL     OW 3762   2.476   1.308   5.931 -0.7912  0.2655 -0.1528
  897SOL    HW1 3763   2.532   1.256   5.989 -1.9905 -1.7910 -0.7521
  897SOL    HW2 3764   2.395   1.257   5.923 -1.3114  1.3184 -2.2758
  898SOL     OW 3765   2.046   6.678   5.703  0.4008  0.2735 -0.0833
  898SOL    HW1 3766   2.138   6.690   5.726  0.5515 -0.5380 -0.2420
  898SOL    HW2 3767   2.012   6.767   5.695  0.8611  0.5778  1.1947
  899SOL     OW 3768   5.388   0.599   3.685  0.1099  0.3594 -0.4913
  899SOL    HW1 3769   5.305   0.616   3.640  1.0665  3.6857 -1.2878
  899SOL    HW2 3770   5.400   0.674   3.743  0.6613 -2.0784  2.8482
  900SOL     OW 3771   7.538   4.939   1.974  0.1840 -0.4953  0.0220
  900SOL    HW1 3772   7.580   5.024   1.980 -1.0618  0.2886 -1.5628
  900SOL    HW2 3773   7.562   4.894   2.055  0.5283  1.5104  1.0937
  901SOL     OW 3774   0.446   3.477   0.337  0.0561 -0.0912  0.3733
  901SOL    HW1 3775   0.374   3.530   0.303  0.0675  0.0199  0.5205
  901SOL    HW2 3776   0.404   3.396   0.368 -0.5075  1.2205  3.4255
  902SOL     OW 3777   8.075   4.364   2.508  0.4171  0.8777 -0.2340
  902SOL    HW1 3778   8.134   4.396   2.439  0.6641  2.3010  0.5931
  902SOL    HW2 3779   8.107   4.277   2.529 -1.1355 -0.6807 -3.5767
  903SOL     OW 3780   0.120   7.208   2.792  0.5421  0.2730  1.3851
  903SOL    HW1 3781   0.114   7.149   2.717  0.7050 -0.1178  1.6761
  903SOL    HW2 3782   0.031   7.211   2.828 -0.2709  2.7525 -0.5239
  904SOL     OW 3783   6.433   4.117   2.175  0.4190  0.1974 -0.7708
  904SOL    HW1 3784   6.469   4.168   2.102  0.8489  1.4310  0.2646
  904SOL    HW2 3785   6.423   4.180   2.246  0.3249 -1.0335  0.3526
  905SOL     OW 3786   3.455   3.525   0.205  0.3239  0.1708 -0.0178
  905SOL    HW1 3787   3.363   3.542   0.225  0.2725 -0.6633  0.4924
  905SOL    HW2 3788   3.501   3.540   0.288  0.6349  0.4864 -0.2443
  906SOL     OW 3789   6.216   5.306   4.068 -0.1301  0.1113 -0.3894
  906SOL    HW1 3790   6.222   5.301   4.164 -1.5102  1.6638 -0.1767
  906SOL    HW2 3791   6.304   5.331   4.040  0.4447 -0.9262  0.4092
  907SOL     OW 3792   1.737   8.088   3.814  0.2405  0.3075 -0.4032
  907SOL    HW1 3793   1.772   7.999   3.804 -0.0397 -0.0961  1.8355
  907SOL    HW2 3794   1.812   8.145   3.794  1.6253 -0.5211  1.9979
  908SOL     OW 3795   2.850   3.333   2.512  0.0628  0.2468 -0.5265
  908SOL    HW1 3796   2.944   3.321   2.523 -0.2103 -2.4575 -0.3983
  908SOL    HW2 3797   2.838   3.427   2.501  2.7182  0.6919 -0.1183
  909SOL     OW 3798   0.250   5.550   1.611  0.2638 -0.3291  0.6004
  909SOL    HW1 3799   0.305   5.531   1.536 -0.0098  0.7356  0.1175
  909SOL    HW2 3800   0.259   5.644   1.625  0.4077 -0.5270  1.9849
  910SOL     OW 3801   2.417   7.820   3.690 -0.4163  0.2228 -0.9164
  910SOL    HW1 3802   2.452   7.759   3.755  1.4017 -0.4752 -2.4770
  910SOL    HW2 3803   2.403   7.901   3.739  0.5845 -0.3784  0.4281
  911SOL     OW 3804   1.095   4.268   0.698  0.6410 -0.1032 -0.9056
  911SOL    HW1 3805   1.173   4.249   0.646  0.0243 -1.7743 -1.2823
  911SOL    HW2 3806   1.127   4.270   0.788  1.1070 -0.9150 -1.0446
  912SOL     OW 3807   2.403   6.272   7.853 -0.3615 -0.0807  0.4040
  912SOL    HW1 3808   2.370   6.350   7.898 -0.5464 -1.1005  2.1297
  912SOL    HW2 3809   2.428   6.212   7.923  0.4402 -1.3211 -0.8710
  913SOL     OW 3810   1.221   0.118   4.358  0.1985 -0.5448 -0.1831
  913SOL    HW1 3811   1.135   0.076   4.350  0.7286 -2.0603  1.4279
  913SOL    HW2 3812   1.283   0.045   4.360  1.5350  0.5128 -1.0527
  914SOL     OW 3813   6.818   1.772   1.836  0.5147  0.3899 -0.0835
  914SOL    HW1 3814   6.735   1.734   1.805  0.1938  0.3677  0.7636
  914SOL    HW2 3815   6.815   1.863   1.807  0.0500  0.4683  0.1944
  915SOL     OW 3816   3.352   0.766   0.960  0.4077  0.0583 -0.1520
  915SOL    HW1 3817   3.420   0.829   0.939  0.1529  0.6886  0.8764
  915SOL    HW2 3818   3.292   0.769   0.885  0.3904  1.0524 -0.1071
  916SOL     OW 3819   2.918   7.912   7.905 -0.2132  0.1872 -0.3273
  916SOL    HW1 3820   2.963   7.847   7.959 -0.0878 -0.1687 -0.8495
  916SOL    HW2 3821   2.845   7.942   7.959  0.8251  1.0206  0.6746
  917SOL     OW 3822   3.747   1.906   2.576  0.1043  0.6300 -0.5680
  917SOL    HW1 3823   3.799   1.885   2.498 -0.1917  0.9340 -0.8488
  917SOL    HW2 3824   3.718   1.820   2.608 -0.0012  0.5189 -0.9513
  918SOL     OW 3825   4.340   5.590   6.107  0.4451 -1.0151  0.0426
  918SOL    HW1 3826   4.330   5.500   6.137 -0.3682 -1.0838 -0.4048
  918SOL    HW2 3827   4.388   5.634   6.178  3.3019 -2.4088 -0.8699
  919SOL     OW 3828   1.555   6.534   0.394  0.1412  0.2657 -0.0545
  919SOL    HW1 3829   1.615   6.586   0.447  2.1336  0.5376 -2.4070
  919SOL    HW2 3830   1.609   6.464   0.358 -1.8462 -1.7797  0.7153
  920SOL     OW 3831   7.613   2.596   6.576 -0.0500  0.2342  0.1452
  920SOL    HW1 3832   7.672   2.653   6.625  0.2208  0.3541 -0.3187
  920SOL    HW2 3833   7.663   2.570   6.499  0.2423 -1.5187  0.8764
  921SOL     OW 3834   7.647   8.035   7.222  0.9097  0.3410 -0.1884
  921SOL    HW1 3835   7.591   8.067   7.293  1.8535  0.2695  0.6227
  921SOL    HW2 3836   7.654   7.941   7.238 -1.0729 -0.1893 -2.0007
  922SOL     OW 3837   6.340   0.428   1.179 -0.4634 -0.1202  0.0599
  922SOL    HW1 3838   6.344   0.497   1.245  0.5174 -1.1096  1.0751
  922SOL    HW2 3839   6.427   0.389   1.180 -1.2796 -2.0290  0.2209
  923SOL     OW 3840   3.735   1.330   1.253 -0.3102  0.5683  0.3545
  923SOL    HW1 3841   3.809   1.354   1.308 -0.8393 -1.0401  1.9029
  923SOL    HW2 3842   3.695   1.413   1.228  2.2007  1.4932 -0.8906
  924SOL     OW 3843   5.337   5.201   6.920  0.1974  0.7399  0.8205
  924SOL    HW1 3844   5.310   5.164   7.005 -1.5067  0.8674  0.3818
  924SOL    HW2 3845   5.337   5.127   6.860  0.0311  0.8855  0.6388
  925SOL     OW 3846   3.517   5.159   4.131 -0.0355 -0.6579 -0.2413
  925SOL    HW1 3847   3.591   5.105   4.158 -0.2091 -1.4524 -1.3137
  925SOL    HW2 3848   3.452   5.097   4.097  0.3410  0.2522 -2.8793
  926SOL     OW 3849   7.805   0.746   5.163  0.6112  0.7284  0.1758
  926SOL    HW1 3850   7.774   0.656   5.167  0.5383  0.6061 -2.0477
  926SOL    HW2 3851   7.752   0.793   5.228 -0.0267 -0.6141  0.6554
  927SOL     OW 3852   4.952   3.615   6.413 -0.1633  0.6798 -0.6126
  927SOL    HW1 3853   4.994   3.700   6.425  0.8150  0.3836 -1.7465
  927SOL    HW2 3854   5.021   3.552   6.431 -0.8816  0.1175  0.2020
  928SOL     OW 3855   0.912   5.109   0.452  0.5167  0.2921 -0.3464
  928SOL    HW1 3856   0.876   5.073   0.371  0.4612 -0.4712  0.0059
  928SOL    HW2 3857   0.984   5.165   0.424  1.2659 -0.8852 -0.8800
  929SOL     OW 3858   5.050   3.531   5.062 -0.0140 -0.1444  0.7522
  929SOL    HW1 3859   4.978   3.558   5.119  0.1978 -1.1177  1.4947
  929SOL    HW2 3860   5.030   3.440   5.040  0.5129 -0.1338  0.1949
  930SOL     OW 3861   5.595   5.120   6.136 -0.1335 -0.2795  0.4654
  930SOL    HW1 3862   5.679   5.078   6.156  0.0943  0.1145  0.3454
  930SOL    HW2 3863   5.577   5.176   6.212  0.5226  0.8874 -0.2113
  931SOL     OW 3864   0.349   3.653   8.150 -0.5665  0.9016 -0.0195
  931SOL    HW1 3865   0.319   3.631   8.238 -0.1127  0.9627  0.1533
  931SOL    HW2 3866   0.297   3.729   8.125 -0.2204  1.3027  0.4648
  932SOL     OW 3867   6.371   3.039   2.627  0.5774 -0.2812  0.6438
  932SOL    HW1 3868   6.371   3.135   2.626  0.8561 -0.2829  0.4880
  932SOL    HW2 3869   6.434   3.016   2.696 -0.2559 -0.3478  1.4055
  933SOL     OW 3870   1.923   3.347   1.285  0.1603 -0.3338  0.5431
  933SOL    HW1 3871   1.852   3.312   1.339  1.1737 -0.6149  1.7697
  933SOL    HW2 3872   1.967   3.410   1.342 -1.0488  2.3661 -1.2905
  934SOL     OW 3873   1.118   2.563   1.154  0.6360 -0.1827  0.4684
  934SOL    HW1 3874   1.174   2.486   1.144  0.2065 -0.3084 -1.2153
  934SOL    HW2 3875   1.088   2.559   1.245  2.3500 -0.7859  1.0431
  935SOL     OW 3876   7.451   5.824   6.887  0.0356  0.3619 -0.2483
  935SOL    HW1 3877   7.543   5.806   6.866 -0.0294 -0.5339  0.1853
  935SOL    HW2 3878   7.404   5.807   6.806  0.2452  0.7754 -0.4585
  936SOL     OW 3879   6.539   2.976   2.833 -0.6459 -0.2476 -0.0448
  936SOL    HW1 3880   6.612   2.914   2.829 -0.4173  0.0509 -0.6819
  936SOL    HW2 3881   6.569   3.043   2.894 -1.1153 -1.0327  1.0690
  937SOL     OW 3882   5.974   0.323   2.469  0.0163 -0.1958 -0.0965
  937SOL    HW1 3883   5.981   0.333   2.374  0.3910  0.5602  0.0018
  937SOL    HW2 3884   6.063   0.336   2.501 -0.1567 -0.1665  0.3810
  938SOL     OW 3885   0.383   1.385   6.013  0.7059  0.9039  0.2596
  938SOL    HW1 3886   0.394   1.301   5.968  0.1473  1.4107 -0.8693
  938SOL    HW2 3887   0.424   1.448   5.954  0.9869  1.4473  1.0280
  939SOL     OW 3888   2.704   2.333   5.964 -0.5309  0.3286  0.1014
  939SOL    HW1 3889   2.629   2.388   5.942 -0.0943  0.4994 -1.0347
  939SOL    HW2 3890   2.725   2.286   5.883 -1.2634 -2.0255  1.1910
  940SOL     OW 3891   1.602   0.143   1.835 -0.0115 -0.1322  0.3683
  940SOL    HW1 3892   1.585   0.076   1.901 -0.0236 -0.9308 -0.4290
  940SOL    HW2 3893   1.593   0.098   1.751 -0.6739  1.0237 -0.2121
  941SOL     OW 3894   1.770   2.725   6.427 -0.2791 -0.0878 -0.3739
  941SOL    HW1 3895   1.789   2.639   6.390  1.8346  0.4195 -0.5789
  941SOL    HW2 3896   1.855   2.769   6.432 -1.3028  2.0377 -0.3792
  942SOL     OW 3897   4.573   1.307   0.354 -0.4168 -0.4209 -0.0113
  942SOL    HW1 3898   4.486   1.345   0.365 -0.7995 -0.6641 -1.8600
  942SOL    HW2 3899   4.564   1.217   0.383  0.2402  0.4654  3.4212
  943SOL     OW 3900   3.337   1.795   2.242 -0.9310 -0.0073  0.4735
  943SOL    HW1 3901   3.311   1.795   2.150 -1.8412 -2.1325  0.6523
  943SOL    HW2 3902   3.424   1.833   2.243 -0.7420 -0.3106 -1.3320
  944SOL     OW 3903   6.901   6.447   5.069  0.3989 -0.2164  0.8662
  944SOL    HW1 3904   6.863   6.476   5.152 -0.0433 -3.5596  1.9845
  944SOL    HW2 3905   6.865   6.359   5.055  3.5412 -1.4008 -0.7974
  945SOL     OW 3906   3.043   1.605   6.414 -0.0069  0.3157  0.0746
  945SOL    HW1 3907   2.995   1.614   6.332  1.0406  1.5707 -0.4424
  945SOL    HW2 3908   3.130   1.575   6.388 -0.0654 -0.5737  0.8570
  946SOL     OW 3909   5.702   6.207   1.645  0.1653  0.0549 -0.2900
  946SOL    HW1 3910   5.626   6.255   1.679  0.2624 -0.0258  0.0394
  946SOL    HW2 3911   5.722   6.251   1.562 -0.3108  0.0061 -0.4389
  947SOL     OW 3912   1.068   6.582   5.218  0.2116 -0.1698 -0.1623
  947SOL    HW1 3913   1.099   6.499   5.184  0.1996  0.0593 -0.7416
  947SOL    HW2 3914   1.145   6.622   5.259 -0.1382 -1.1757  1.5902
  948SOL     OW 3915   3.199   0.484   7.208  0.2971 -0.0766  0.9581
  948SOL    HW1 3916   3.239   0.463   7.293 -0.2280  0.5337  1.3641
  948SOL    HW2 3917   3.177   0.577   7.215 -0.1408 -0.1298  0.3069
  949SOL     OW 3918   7.388   5.717   2.466  0.5424  0.0240 -0.0358
  949SOL    HW1 3919   7.313   5.776   2.468  0.9060  0.5048 -0.6342
  949SOL    HW2 3920   7.354   5.635   2.503  0.2851  0.8715  1.7094
  950SOL     OW 3921   6.073   4.393   4.457  0.6167  0.6939 -0.0594
  950SOL    HW1 3922   6.140   4.453   4.487  2.4171 -1.4385  0.4768
  950SOL    HW2 3923   6.042   4.349   4.536 -0.2921  0.5531 -0.4791
  951SOL     OW 3924   1.947   6.156   2.242 -0.0767  0.1648 -0.2214
  951SOL    HW1 3925   1.958   6.168   2.148 -0.7321 -0.4195 -0.3826
  951SOL    HW2 3926   1.938   6.061   2.253  2.4495 -0.0418  0.7106
  952SOL     OW 3927   6.519   4.644   4.695  0.3799 -0.1428 -0.7583
  952SOL    HW1 3928   6.513   4.629   4.601  0.9117  0.6147 -0.9184
  952SOL    HW2 3929   6.602   4.606   4.720 -0.6547 -2.1927 -0.2042
  953SOL     OW 3930   2.644   2.384   6.953 -0.1357 -0.6897 -0.5899
  953SOL    HW1 3931   2.734   2.391   6.984 -0.0609 -2.8817 -0.1271
  953SOL    HW2 3932   2.650   2.327   6.876 -1.0213  0.0396 -1.2289
  954SOL     OW 3933   7.841   0.014   6.749 -0.5197 -0.1242  0.0258
  954SOL    HW1 3934   7.884   0.028   6.665  0.2827 -2.0908  0.0578
  954SOL    HW2 3935   7.752   0.048   6.736 -0.0097  0.8571 -1.1481
  955SOL     OW 3936   7.994   1.687   3.828  0.1596  0.3478 -0.3582
  955SOL    HW1 3937   8.053   1.652   3.894 -0.3060 -2.1245 -1.1633
  955SOL    HW2 3938   7.983   1.779   3.852 -0.0929 -0.4555  3.0622
  956SOL     OW 3939   1.078   4.434   2.765 -0.1101 -0.0158 -0.1853
  956SOL    HW1 3940   1.080   4.357   2.708 -1.5239 -0.2585  0.0531
  956SOL    HW2 3941   1.006   4.487   2.730 -1.0608 -0.2048  1.3887
  957SOL     OW 3942   0.005   4.454   6.439  0.2687  0.0360  0.5710
  957SOL    HW1 3943  -0.070   4.515   6.438  1.0073  1.0317 -1.6928
  957SOL    HW2 3944   0.082   4.511   6.444  0.9837 -0.6739 -1.5205
  958SOL     OW 3945   1.738   1.916   7.945  0.0438 -0.1996  0.4928
  958SOL    HW1 3946   1.664   1.977   7.943 -1.2087 -1.6779  0.2234
  958SOL    HW2 3947   1.761   1.902   7.853  1.3521  1.0031  0.5953
  959SOL     OW 3948   5.091   7.488   7.313  0.0887  0.6176  0.3629
  959SOL    HW1 3949   5.117   7.580   7.307  0.5369  0.5289  0.8390
  959SOL    HW2 3950   5.150   7.442   7.253  0.1772  0.5804  0.4785
  960SOL     OW 3951   4.915   7.344   0.013 -0.3004  0.3772 -0.1601
  960SOL    HW1 3952   4.896   7.433  -0.017 -0.5426  0.0850 -0.8764
  960SOL    HW2 3953   4.999   7.322  -0.028 -1.1237 -0.4060 -1.4757
  961SOL     OW 3954   7.302   3.684   1.959  0.8208  0.3342  0.3327
  961SOL    HW1 3955   7.374   3.716   2.015  0.1630  0.5044  1.1028
  961SOL    HW2 3956   7.246   3.760   1.947 -0.6050 -0.4054  1.9341
  962SOL     OW 3957   0.074   5.940   3.649  0.0382 -0.8852 -0.5028
  962SOL    HW1 3958   0.096   5.913   3.738  0.3659 -1.2366 -0.6841
  962SOL    HW2 3959   0.119   6.024   3.638  0.5914 -1.1827 -0.5742
  963SOL     OW 3960   5.420   6.812   3.114 -0.1269  0.0687  0.2376
  963SOL    HW1 3961   5.370   6.743   3.158 -2.3869  0.4136 -1.6181
  963SOL    HW2 3962   5.357   6.883   3.100  1.3915  1.3394 -0.4696
  964SOL     OW 3963   2.815   1.507   0.439  0.6383 -0.0048  0.1891
  964SOL    HW1 3964   2.741   1.534   0.495 -1.2449  0.6737 -2.4330
  964SOL    HW2 3965   2.873   1.582   0.438  0.4052  0.1927  0.7546
  965SOL     OW 3966   5.757   3.564   6.876 -0.3213 -0.0955  0.1252
  965SOL    HW1 3967   5.747   3.486   6.822  0.9321  0.2519 -0.6518
  965SOL    HW2 3968   5.740   3.637   6.817  0.6842  0.2779  0.2838
  966SOL     OW 3969   5.608   6.626   6.618 -0.1265 -0.1113  0.5239
  966SOL    HW1 3970   5.530   6.571   6.612 -0.1547 -0.1283  1.0234
  966SOL    HW2 3971   5.574   6.715   6.629 -0.1293  0.3252 -2.2527
  967SOL     OW 3972   5.388   4.598   6.845 -0.1176  0.0950  0.0177
  967SOL    HW1 3973   5.455   4.627   6.784  0.4974 -0.9981  0.1547
  967SOL    HW2 3974   5.316   4.660   6.832  0.5556  0.7385 -0.7767
  968SOL     OW 3975   3.100   3.118   3.324 -0.1480 -0.2369  0.0943
  968SOL    HW1 3976   3.164   3.082   3.385 -1.5048  1.2266  2.5688
  968SOL    HW2 3977   3.151   3.149   3.250  1.5622 -2.3187  0.3226
  969SOL     OW 3978   1.336   2.160   4.975 -0.3594  0.0216  0.1103
  969SOL    HW1 3979   1.271   2.120   4.918 -0.5044 -0.1198  0.3692
  969SOL    HW2 3980   1.364   2.089   5.033  0.2605  0.0062 -0.2076
  970SOL     OW 3981   1.300   3.882   3.633  0.2888 -0.1876 -0.2066
  970SOL    HW1 3982   1.390   3.915   3.638  0.1352  0.3316 -0.7709
  970SOL    HW2 3983   1.304   3.813   3.568 -0.1355  1.3278 -1.9318
  971SOL     OW 3984   0.721   0.069   7.143 -0.6090 -0.4515  0.0104
  971SOL    HW1 3985   0.798   0.059   7.088 -0.5859 -0.7445  0.0895
  971SOL    HW2 3986   0.745   0.028   7.226 -0.7097 -0.1864  0.1716
  972SOL     OW 3987   2.543   2.475   3.039 -0.2252 -0.2321 -0.1549
  972SOL    HW1 3988   2.450   2.453   3.051  0.0701 -1.2667  0.3418
  972SOL    HW2 3989   2.585   2.443   3.118  0.3752  1.4658  0.2401
  973SOL     OW 3990   3.087   1.347   5.651 -0.6428  0.9520  0.0881
  973SOL    HW1 3991   3.149   1.343   5.724  0.9598 -0.0862 -1.2750
  973SOL    HW2 3992   3.139   1.327   5.573 -2.6430  0.2210 -1.1498
  974SOL     OW 3993   0.674   3.304   8.036 -0.2079 -0.1592 -0.3354
  974SOL    HW1 3994   0.725   3.256   8.101 -2.1900  0.3635  1.7242
  974SOL    HW2 3995   0.720   3.388   8.026 -0.9089  0.5647  1.9669
  975SOL     OW 3996   4.122   2.738   2.695 -0.3755 -0.5089 -0.4950
  975SOL    HW1 3997   4.202   2.764   2.741 -0.0036  1.1232 -1.9483
  975SOL    HW2 3998   4.051   2.758   2.756  0.3115 -2.7867  1.1573
  976SOL     OW 3999   3.698   4.290   8.083 -0.1197 -0.1396  0.0315
  976SOL    HW1 4000   3.624   4.289   8.144 -0.7174  0.9117 -0.6610
  976SOL    HW2 4001   3.748   4.212   8.106 -0.5612 -0.0020  1.5878
  977SOL     OW 4002   3.635   7.551   4.977  0.4709  0.1975 -0.1892
  977SOL    HW1 4003   3.568   7.544   4.909  1.4104 -0.8477 -1.0424
  977SOL    HW2 4004   3.624   7.639   5.013 -1.3545  0.0406 -0.2988
  978SOL     OW 4005   0.670   3.744   3.601  0.5231  0.0536  0.6094
  978SOL    HW1 4006   0.684   3.650   3.618 -0.0496 -0.3072 -0.7976
  978SOL    HW2 4007   0.597   3.747   3.540  1.2377  1.3726 -0.2262
  979SOL     OW 4008   5.147   4.376   5.404 -0.2993 -0.4573  0.8715
  979SOL    HW1 4009   5.091   4.440   5.446 -2.7654 -0.2710 -2.3364
  979SOL    HW2 4010   5.110   4.291   5.430  0.6606 -0.5303  2.1193
  980SOL     OW 4011   1.685   5.185   4.109  0.0718 -0.2110  0.4174
  980SOL    HW1 4012   1.740   5.194   4.031 -0.9926 -1.2970 -0.4806
  980SOL    HW2 4013   1.597   5.170   4.075 -0.2949 -1.4065  1.8308
  981SOL     OW 4014   5.385   1.036   0.430 -0.3910  0.4317  0.0275
  981SOL    HW1 4015   5.428   1.082   0.502  0.6746 -0.8546  0.2423
  981SOL    HW2 4016   5.452   1.028   0.363 -1.3052  1.4141 -1.0654
  982SOL     OW 4017   2.737   5.915   4.239  0.1639  0.5292 -0.1392
  982SOL    HW1 4018   2.758   5.885   4.327 -2.7620 -1.8867 -0.0918
  982SOL    HW2 4019   2.808   5.882   4.184 -0.4849 -2.4983  0.6644
  983SOL     OW 4020   0.735   4.539   0.076  0.0395  0.2703 -0.1648
  983SOL    HW1 4021   0.754   4.445   0.079  0.8506  0.3797 -1.3811
  983SOL    HW2 4022   0.807   4.577   0.027  1.2223  1.9415  2.6017
  984SOL     OW 4023   5.903   6.225   2.249 -0.3673  0.4738 -0.1699
  984SOL    HW1 4024   5.882   6.170   2.173 -0.9965  0.3573  0.0807
  984SOL    HW2 4025   5.932   6.308   2.211 -1.5258  0.7243 -0.5437
  985SOL     OW 4026   1.625   5.785   5.319 -0.0443 -0.1934 -0.3462
  985SOL    HW1 4027   1.710   5.826   5.339 -0.7408  1.5482 -0.7469
  985SOL    HW2 4028   1.612   5.722   5.389  0.6130  1.0386  0.9467
  986SOL     OW 4029   1.119   6.218   6.589 -0.6799 -0.2853 -0.0566
  986SOL    HW1 4030   1.142   6.165   6.665  0.6591  1.1949  0.6346
  986SOL    HW2 4031   1.070   6.292   6.624 -0.9506 -0.1163 -0.7677
  987SOL     OW 4032   0.747   6.953   4.159 -0.4648 -0.5676  0.3712
  987SOL    HW1 4033   0.794   6.873   4.182 -1.8594 -1.2981  0.8039
  987SOL    HW2 4034   0.778   6.974   4.071  0.7358 -0.9531  0.6775
  988SOL     OW 4035   2.752   7.615   6.060  0.5876  0.4817  0.0314
  988SOL    HW1 4036   2.727   7.682   5.997 -1.2608  1.0165  1.2460
  988SOL    HW2 4037   2.742   7.532   6.012  0.3936  0.9358 -0.7273
  989SOL     OW 4038   4.689   3.326   8.039 -0.1912  0.0911 -0.4668
  989SOL    HW1 4039   4.768   3.365   8.002 -1.4570  1.8635 -1.4884
  989SOL    HW2 4040   4.717   3.290   8.123  1.4702  1.6558 -0.2877
  990SOL     OW 4041   4.460   1.266   0.867  0.1210  0.3814 -0.6508
  990SOL    HW1 4042   4.397   1.264   0.939  0.6867 -0.3991 -0.1674
  990SOL    HW2 4043   4.536   1.311   0.903  1.0384 -1.4459 -0.2059
  991SOL     OW 4044   1.977   7.902   6.740 -0.3212  0.1457  0.7595
  991SOL    HW1 4045   2.020   7.859   6.667 -0.3899  1.0708  0.1640
  991SOL    HW2 4046   2.044   7.907   6.808  1.0300  2.8381 -0.6370
  992SOL     OW 4047   3.044   6.005   1.693  0.6095  0.0478  0.0480
  992SOL    HW1 4048   3.123   5.961   1.725  0.2557 -1.7711 -1.4237
  992SOL    HW2 4049   2.981   5.996   1.765  1.2000  0.0267  0.5733
  993SOL     OW 4050   5.115   6.218   3.181 -0.3463 -0.1302  0.8288
  993SOL    HW1 4051   5.108   6.232   3.276 -1.9916  1.6428  0.5226
  993SOL    HW2 4052   5.029   6.185   3.156 -0.0719 -0.1483 -0.1162
  994SOL     OW 4053   7.660   5.850   4.972 -0.1979  0.0073  0.6211
  994SOL    HW1 4054   7.748   5.838   5.007  0.4127 -0.9180 -1.1051
  994SOL    HW2 4055   7.605   5.792   5.024  0.7142 -1.4936 -0.0402
  995SOL     OW 4056   3.531   0.039   7.170  0.4914  0.5880  0.0407
  995SOL    HW1 4057   3.611   0.062   7.218  0.0870 -1.4917  1.8452
  995SOL    HW2 4058   3.475   0.116   7.181  0.7326  0.5181  2.2734
  996SOL     OW 4059   4.175   5.154   1.325 -0.6552 -0.2211 -0.3096
  996SOL    HW1 4060   4.127   5.123   1.403 -0.0127  0.6704  0.4606
  996SOL    HW2 4061   4.266   5.132   1.343 -0.3678  0.9059 -0.3515
  997SOL     OW 4062   1.199   2.886   7.792 -0.0797 -0.2948  0.0909
  997SOL    HW1 4063   1.134   2.934   7.740 -0.6072  0.2846  1.2242
  997SOL    HW2 4064   1.153   2.865   7.874  1.0829 -0.0793  0.8280
  998SOL     OW 4065   2.016   7.284   4.928  0.7547 -0.1449 -0.1090
  998SOL    HW1 4066   1.951   7.221   4.959  0.8813  0.3152  1.1250
  998SOL    HW2 4067   1.992   7.366   4.971  0.9990  0.4940 -1.1689
  999SOL     OW 4068   0.391   2.967   5.116  0.2216  0.0213 -0.1875
  999SOL    HW1 4069   0.419   3.049   5.074 -1.2575  1.3219  1.2292
  999SOL    HW2 4070   0.298   2.961   5.096  0.0770 -0.7394  0.6578
 1000SOL     OW 4071   2.333   7.794   6.687  0.6369  0.1373  0.3700
 1000SOL    HW1 4072   2.297   7.777   6.774 -0.4362 -1.0405 -0.2731
 1000SOL    HW2 4073   2.334   7.890   6.680 -0.8007  0.2246  1.0673
 1001SOL     OW 4074   5.960   1.766   1.696 -0.1135  0.1610  0.4913
 1001SOL    HW1 4075   5.881   1.724   1.660  0.0201  0.6057 -0.3386
 1001SOL    HW2 4076   5.943   1.860   1.688  0.1277  0.2630  1.1507
 1002SOL     OW 4077   5.158   7.306   3.827 -0.0681 -0.3325 -0.4649
 1002SOL    HW1 4078   5.146   7.398   3.802 -0.8298 -0.5849 -1.0939
 1002SOL    HW2 4079   5.228   7.308   3.892 -2.2582  1.1112  2.0970
 1003SOL     OW 4080   5.360   1.815   2.490 -0.1847  0.1556  0.2837
 1003SOL    HW1 4081   5.455   1.806   2.501  0.2190  0.8262 -2.0136
 1003SOL    HW2 4082   5.322   1.759   2.558  1.8668 -1.0397  0.5263
 1004SOL     OW 4083   1.673   1.911   0.633  0.4098 -0.0760 -0.4699
 1004SOL    HW1 4084   1.653   1.914   0.539  1.0511 -1.8678 -0.7048
 1004SOL    HW2 4085   1.672   1.818   0.654 -0.8120  0.3441  1.5775
 1005SOL     OW 4086   3.600   5.991   6.804 -0.1033 -0.0797  0.1744
 1005SOL    HW1 4087   3.521   6.044   6.818 -0.2656 -0.1084 -0.5785
 1005SOL    HW2 4088   3.654   6.007   6.881 -0.0565  1.3521 -0.1243
 1006SOL     OW 4089   4.206   6.884   2.983 -0.0208  0.2545 -0.1105
 1006SOL    HW1 4090   4.199   6.966   2.935  0.5345  0.5836  0.3513
 1006SOL    HW2 4091   4.266   6.904   3.055 -1.1956 -0.0781  1.0038
 1007SOL     OW 4092   5.958   4.282   2.941 -0.3172  0.5166 -0.0838
 1007SOL    HW1 4093   5.947   4.275   3.036 -0.2197 -0.2186 -0.1227
 1007SOL    HW2 4094   5.914   4.364   2.918 -2.1311 -0.2938  0.3134
 1008SOL     OW 4095   1.041   2.585   5.243  0.0094  0.3044 -0.1655
 1008SOL    HW1 4096   0.989   2.515   5.283  0.1795  1.9922  3.3701
 1008SOL    HW2 4097   1.132   2.561   5.264  0.0518  1.6302  1.3560
 1009SOL     OW 4098   4.907   1.189   2.486 -0.2111 -0.6584 -0.8156
 1009SOL    HW1 4099   4.990   1.195   2.440  0.5252  1.1986  0.6391
 1009SOL    HW2 4100   4.852   1.257   2.446 -0.1075 -0.1080 -0.0421
 1010SOL     OW 4101   0.302   0.617   4.002 -0.9108  0.3140 -0.2996
 1010SOL    HW1 4102   0.211   0.641   4.022 -0.3886  0.7461  1.8428
 1010SOL    HW2 4103   0.346   0.700   3.986 -0.5520  0.2591  0.3537
 1011SOL     OW 4104   1.948   8.085   7.775  0.4974 -0.5615 -0.2868
 1011SOL    HW1 4105   2.011   8.019   7.747  0.3948 -0.6835 -0.2295
 1011SOL    HW2 4106   1.994   8.136   7.842  0.0229 -1.6388  0.9191
 1012SOL     OW 4107   0.528   6.216   3.474  0.2030 -0.1742  0.8121
 1012SOL    HW1 4108   0.516   6.222   3.569  0.5292  0.5505  0.8164
 1012SOL    HW2 4109   0.608   6.266   3.457  0.6640 -1.0717  0.2558
 1013SOL     OW 4110   2.428   7.052   3.553  0.1695  0.0620  0.0076
 1013SOL    HW1 4111   2.503   7.110   3.563 -1.0178  1.8631 -0.8876
 1013SOL    HW2 4112   2.357   7.110   3.526 -1.3384 -1.6997  0.0010
 1014SOL     OW 4113   4.466   7.070   6.316 -0.0564  0.1924 -0.6731
 1014SOL    HW1 4114   4.455   6.997   6.377  2.0861 -0.6305 -1.1708
 1014SOL    HW2 4115   4.451   7.032   6.230  0.6018  0.4517 -0.9044
 1015SOL     OW 4116   0.857   7.054   5.878  0.2912  0.2264 -0.8838
 1015SOL    HW1 4117   0.938   7.086   5.839 -0.1066  1.6666 -0.5741
 1015SOL    HW2 4118   0.798   7.129   5.875 -0.8399 -0.6284 -0.5544
 1016SOL     OW 4119   1.961   5.508   1.792 -0.1315  0.1863  0.0719
 1016SOL    HW1 4120   1.872   5.508   1.827  0.5560 -0.5506  1.9458
 1016SOL    HW2 4121   1.970   5.423   1.750 -0.1374  0.0600  0.3290
 1017SOL     OW 4122   7.215   3.669   3.393 -0.0054 -0.4066  0.0749
 1017SOL    HW1 4123   7.175   3.742   3.440 -0.7687 -0.1311 -0.9521
 1017SOL    HW2 4124   7.154   3.596   3.404 -0.3937 -0.2261 -0.7960
 1018SOL     OW 4125   5.344   6.823   4.628  0.3613  0.0596 -0.5682
 1018SOL    HW1 4126   5.343   6.834   4.533  1.0705 -1.3412 -0.7590
 1018SOL    HW2 4127   5.277   6.757   4.646 -1.3708  1.9010  0.1808
 1019SOL     OW 4128   4.922   0.332   2.889  0.1819 -0.5350  0.1299
 1019SOL    HW1 4129   4.881   0.300   2.970  0.9931  0.4959  0.9836
 1019SOL    HW2 4130   4.890   0.422   2.881  0.9682 -0.2736 -0.1095
 1020SOL     OW 4131   1.746   5.550   0.199 -0.0187 -0.2415  0.3627
 1020SOL    HW1 4132   1.768   5.630   0.152  0.2612  0.4757  1.6755
 1020SOL    HW2 4133   1.826   5.497   0.194  0.6039  0.5474  1.4394
 1021SOL     OW 4134   1.758   2.454   6.064  0.7941 -0.2765  0.6982
 1021SOL    HW1 4135   1.692   2.502   6.113  0.7082 -0.1326  0.4444
 1021SOL    HW2 4136   1.752   2.364   6.097  1.9870  0.1656  2.2682
 1022SOL     OW 4137   6.185   4.863   3.234 -0.0286 -0.0344 -0.3709
 1022SOL    HW1 4138   6.205   4.871   3.327 -2.9694  0.2592  0.3414
 1022SOL    HW2 4139   6.148   4.948   3.210 -1.6820 -0.8967 -1.0833
 1023SOL     OW 4140   5.025   0.267   3.155  0.5423  0.4498 -0.7979
 1023SOL    HW1 4141   5.087   0.199   3.182  0.8841  0.6329 -1.1079
 1023SOL    HW2 4142   5.036   0.337   3.219  0.3055  0.2805 -0.5712
 1024SOL     OW 4143   5.460   6.309   1.240 -0.3609 -0.0560  0.5928
 1024SOL    HW1 4144   5.367   6.331   1.232 -0.3845 -0.2889  0.1871
 1024SOL    HW2 4145   5.504   6.367   1.178 -0.3442 -0.6026  0.0765
 1025SOL     OW 4146   5.822   2.283   7.058 -0.5092  0.2406 -0.2068
 1025SOL    HW1 4147   5.915   2.281   7.039 -0.1910  0.0546  1.1982
 1025SOL    HW2 4148   5.783   2.221   6.996  0.5445 -0.9284  0.2414
 1026SOL     OW 4149   0.493   1.205   5.244 -0.3565 -0.0518 -0.1498
 1026SOL    HW1 4150   0.465   1.139   5.307 -1.3612 -0.3559 -0.8969
 1026SOL    HW2 4151   0.412   1.249   5.218  0.3422  1.9093  0.7822
 1027SOL     OW 4152   1.686   2.674   4.203 -0.0882 -0.5578 -0.5974
 1027SOL    HW1 4153   1.651   2.604   4.258  0.9340 -0.6397 -0.0220
 1027SOL    HW2 4154   1.686   2.638   4.115 -0.8584 -0.7740 -0.5116
 1028SOL     OW 4155   3.198   0.148   7.777 -0.1292 -0.2972  0.5878
 1028SOL    HW1 4156   3.125   0.101   7.816  0.5296 -1.2066  0.7728
 1028SOL    HW2 4157   3.168   0.238   7.768 -0.7878 -0.3688  1.9158
 1029SOL     OW 4158   6.816   2.350   1.765 -0.3790  0.0277  0.2997
 1029SOL    HW1 4159   6.906   2.320   1.757 -0.3515  0.4022 -1.0719
 1029SOL    HW2 4160   6.818   2.414   1.837  0.2251 -0.7236  0.9637
 1030SOL     OW 4161   2.589   3.835   5.440  0.1568 -0.7694  0.2869
 1030SOL    HW1 4162   2.512   3.861   5.491 -1.0186 -0.6052 -1.4809
 1030SOL    HW2 4163   2.559   3.761   5.388  0.8314 -0.0072 -1.2642
 1031SOL     OW 4164   4.699   6.718   3.940 -0.4801 -0.3538 -0.0154
 1031SOL    HW1 4165   4.751   6.785   3.983  0.1999 -1.0116  0.2038
 1031SOL    HW2 4166   4.746   6.636   3.957 -1.6396 -0.9834  0.3054
 1032SOL     OW 4167   6.593   2.319   2.923  1.0618 -0.2909  0.0014
 1032SOL    HW1 4168   6.594   2.224   2.916 -1.6465 -0.4967  1.2928
 1032SOL    HW2 4169   6.594   2.336   3.017  1.7996  1.0131 -0.2136
 1033SOL     OW 4170   7.357   7.015   2.054 -0.1716 -0.1838 -0.0378
 1033SOL    HW1 4171   7.360   7.100   2.011 -1.3081 -0.2338 -0.2444
 1033SOL    HW2 4172   7.264   6.993   2.059 -0.0138 -0.6164  1.6033
 1034SOL     OW 4173   1.274   5.069   6.614 -0.1766  0.0819 -0.2577
 1034SOL    HW1 4174   1.249   5.052   6.705  1.5730  1.3506  0.5151
 1034SOL    HW2 4175   1.209   5.131   6.582 -0.3961  0.1641  0.3408
 1035SOL     OW 4176   1.719   0.948   0.390  0.1644  0.0393  0.3471
 1035SOL    HW1 4177   1.728   1.026   0.336  0.8898  0.5628  1.1927
 1035SOL    HW2 4178   1.766   0.969   0.471  0.0690 -1.1425  0.7323
 1036SOL     OW 4179   7.170   7.480   4.455 -0.3117  0.3516  0.1115
 1036SOL    HW1 4180   7.115   7.539   4.404 -0.2045  2.6523  2.4649
 1036SOL    HW2 4181   7.259   7.494   4.422 -0.7420 -1.7659 -2.2114
 1037SOL     OW 4182   6.001   2.785   1.306  0.4720 -0.4488 -0.0579
 1037SOL    HW1 4183   5.940   2.790   1.232 -0.5048 -1.3469  0.6571
 1037SOL    HW2 4184   6.025   2.693   1.311 -2.4562 -1.2512  2.9878
 1038SOL     OW 4185   0.470   2.570   4.373 -0.2782 -0.2602  0.0119
 1038SOL    HW1 4186   0.442   2.600   4.459  0.0515 -1.1464  0.4368
 1038SOL    HW2 4187   0.446   2.477   4.370  0.0208 -0.3273 -0.7160
 1039SOL     OW 4188   1.295   0.411   0.310 -0.0926 -0.4533  0.4334
 1039SOL    HW1 4189   1.231   0.386   0.243 -0.0071  0.0966  0.1445
 1039SOL    HW2 4190   1.328   0.496   0.282  0.2430 -0.4026  0.9620
 1040SOL     OW 4191   1.822   2.578   6.946 -0.1879  0.3446 -0.5746
 1040SOL    HW1 4192   1.728   2.565   6.931 -0.6394  2.1143  0.4557
 1040SOL    HW2 4193   1.863   2.503   6.904 -1.9322  0.4986 -2.7521
 1041SOL     OW 4194   7.026   3.391   7.248 -0.2297 -0.0542  0.1166
 1041SOL    HW1 4195   7.012   3.460   7.183  0.1086 -0.9702 -0.9697
 1041SOL    HW2 4196   7.043   3.438   7.330 -2.6991  1.1466  0.0330
 1042SOL     OW 4197   6.187   3.612   7.798  0.1457  0.0841  0.1015
 1042SOL    HW1 4198   6.131   3.573   7.730 -2.0431  2.2234  0.5385
 1042SOL    HW2 4199   6.239   3.539   7.831  1.5783 -1.0448 -4.0216
 1043SOL     OW 4200   1.574   2.591   0.639  0.2116  0.1545 -0.6408
 1043SOL    HW1 4201   1.623   2.657   0.590 -1.8178  0.7852 -1.9706
 1043SOL    HW2 4202   1.631   2.514   0.640  2.6624  1.8470  0.9910
 1044SOL     OW 4203   0.281   2.006   4.576  0.2984 -0.1116  0.2084
 1044SOL    HW1 4204   0.217   2.025   4.507  0.1785  0.1118  0.3773
 1044SOL    HW2 4205   0.303   2.092   4.612  0.5963 -0.2009  0.2385
 1045SOL     OW 4206   6.949   5.953   1.100 -0.7770  0.0964 -0.1895
 1045SOL    HW1 4207   7.042   5.969   1.089 -0.7263  0.1668  0.2959
 1045SOL    HW2 4208   6.910   6.040   1.104 -0.7780  0.0783  0.2605
 1046SOL     OW 4209   7.813   3.989   8.035  0.0636 -0.2634  0.2314
 1046SOL    HW1 4210   7.786   4.080   8.044  2.3157  0.5083 -0.1492
 1046SOL    HW2 4211   7.741   3.947   7.987 -0.6998  1.4624 -0.2058
 1047SOL     OW 4212   5.086   2.226   4.181  1.1192 -0.7903 -0.2065
 1047SOL    HW1 4213   5.012   2.280   4.154  0.4729 -0.1339  2.5173
 1047SOL    HW2 4214   5.163   2.276   4.156  0.6555 -0.8415 -1.8600
 1048SOL     OW 4215   0.727   3.692   5.520 -0.1654  0.6236 -0.1775
 1048SOL    HW1 4216   0.733   3.778   5.478 -1.0900 -0.2296 -2.2220
 1048SOL    HW2 4217   0.636   3.665   5.504  0.4405 -1.2280 -0.6548
 1049SOL     OW 4218   5.333   1.523   2.661  0.5096  0.5648  0.3335
 1049SOL    HW1 4219   5.409   1.485   2.706  0.6972  0.8587  0.2653
 1049SOL    HW2 4220   5.268   1.536   2.731  0.3942 -0.0036  0.3353
 1050SOL     OW 4221   5.638   6.900   7.171  0.1368  0.2501 -0.2582
 1050SOL    HW1 4222   5.579   6.929   7.240 -1.2325  1.3030 -1.8007
 1050SOL    HW2 4223   5.596   6.822   7.135  0.8567 -0.3061  0.0819
 1051SOL     OW 4224   2.723   4.195   6.951  0.3094 -0.1953  0.2692
 1051SOL    HW1 4225   2.715   4.160   6.862  1.1425 -0.6293  0.3613
 1051SOL    HW2 4226   2.635   4.187   6.988  0.1061 -0.6157 -0.2914
 1052SOL     OW 4227   0.115   3.024   5.145  0.8282  0.2531  0.3876
 1052SOL    HW1 4228   0.119   3.116   5.172 -0.4735 -0.4135  3.3444
 1052SOL    HW2 4229   0.023   3.011   5.120  1.1915 -0.0650 -0.8072
 1053SOL     OW 4230   2.132   2.071   2.572  0.5141  0.2314 -0.5019
 1053SOL    HW1 4231   2.084   2.023   2.505 -0.0990  2.2465 -1.5825
 1053SOL    HW2 4232   2.154   2.005   2.638 -2.2633 -1.0780 -0.7696
 1054SOL     OW 4233   5.309   4.254   7.527  0.3271 -0.6815  0.1393
 1054SOL    HW1 4234   5.251   4.179   7.533  0.2636 -0.7958 -1.4468
 1054SOL    HW2 4235   5.254   4.325   7.493  1.2417 -1.0219 -2.2294
 1055SOL     OW 4236   5.676   1.911   7.408 -0.0218 -0.7139  0.7517
 1055SOL    HW1 4237   5.600   1.858   7.432  1.4337 -2.4277  1.9342
 1055SOL    HW2 4238   5.750   1.850   7.416  1.6671  1.3293  1.4296
 1056SOL     OW 4239   7.236   2.202   4.047  0.0866 -0.5497  0.3623
 1056SOL    HW1 4240   7.184   2.152   4.110 -0.9508 -0.4299 -0.3931
 1056SOL    HW2 4241   7.173   2.234   3.983  0.8025  1.3171  0.5409
 1057SOL     OW 4242   5.566   6.224   4.624  0.2187 -0.2866 -0.0931
 1057SOL    HW1 4243   5.634   6.165   4.657  0.6915 -0.6790 -1.7244
 1057SOL    HW2 4244   5.614   6.301   4.594 -0.3321  0.6697  1.3186
 1058SOL     OW 4245   4.664   1.311   2.191  0.1934  0.0254 -0.3264
 1058SOL    HW1 4246   4.633   1.284   2.277  1.3356  0.0860  0.1193
 1058SOL    HW2 4247   4.620   1.395   2.175  0.6285  0.4540  0.5986
 1059SOL     OW 4248   4.202   2.653   4.388 -0.2485  0.7973 -0.3656
 1059SOL    HW1 4249   4.120   2.632   4.342 -0.0450  0.5874 -0.6375
 1059SOL    HW2 4250   4.188   2.621   4.477  0.7864 -2.4844 -1.2394
 1060SOL     OW 4251   6.924   7.603   3.395  0.4356 -0.6784 -0.1827
 1060SOL    HW1 4252   6.941   7.644   3.479 -1.4485 -0.4543  0.1267
 1060SOL    HW2 4253   6.896   7.514   3.417  0.1556 -0.6925 -0.5890
 1061SOL     OW 4254   7.298   7.444   7.694  0.1203 -0.2357 -0.0323
 1061SOL    HW1 4255   7.362   7.514   7.685  0.1459 -0.2982 -0.3472
 1061SOL    HW2 4256   7.318   7.403   7.778  0.8225 -0.5894 -0.3680
 1062SOL     OW 4257   2.679   7.608   4.417  0.4190  0.2585 -0.3133
 1062SOL    HW1 4258   2.693   7.556   4.338  0.4331 -2.1534  1.1544
 1062SOL    HW2 4259   2.658   7.543   4.485  1.4649  2.0757  1.9132
 1063SOL     OW 4260   3.366   6.789   0.336  0.2720 -0.3626 -0.5565
 1063SOL    HW1 4261   3.439   6.756   0.284  1.7657  1.1116  0.4908
 1063SOL    HW2 4262   3.332   6.712   0.382 -0.1069 -1.4124 -2.4839
 1064SOL     OW 4263   3.493   3.288   3.324  0.2629 -0.2366  0.3443
 1064SOL    HW1 4264   3.503   3.306   3.231 -0.9032  0.5003  0.3445
 1064SOL    HW2 4265   3.489   3.375   3.365 -2.0683 -0.4728  0.7397
 1065SOL     OW 4266   2.036   4.971   5.322 -0.1986 -0.4868 -0.7249
 1065SOL    HW1 4267   2.047   5.061   5.352  0.1407 -0.7124 -0.1685
 1065SOL    HW2 4268   2.100   4.961   5.252  2.5491 -1.4516  1.7441
 1066SOL     OW 4269   7.998   7.170   5.059  0.2360  0.4585 -0.1650
 1066SOL    HW1 4270   7.957   7.227   4.993 -0.0356  1.0572  0.5046
 1066SOL    HW2 4271   8.048   7.230   5.114  0.1459  0.0141  0.4051
 1067SOL     OW 4272   2.355   2.457   1.555  0.3491 -0.5526  0.0498
 1067SOL    HW1 4273   2.336   2.526   1.619 -0.5740 -1.0233  0.3112
 1067SOL    HW2 4274   2.429   2.490   1.505 -1.4441  1.6343 -1.3364
 1068SOL     OW 4275   0.294   4.570   8.097  0.2542 -0.0674  0.0046
 1068SOL    HW1 4276   0.383   4.560   8.065 -0.1422 -0.9468 -0.8790
 1068SOL    HW2 4277   0.290   4.517   8.176  0.6696  0.4658  0.3930
 1069SOL     OW 4278   3.849   3.215   2.591  0.2173  0.0075 -0.3014
 1069SOL    HW1 4279   3.912   3.283   2.566  0.5191 -0.4658 -0.8495
 1069SOL    HW2 4280   3.890   3.133   2.563 -0.0897 -0.4168  0.4559
 1070SOL     OW 4281   1.597   3.444   6.460 -0.2490 -0.4120 -0.8347
 1070SOL    HW1 4282   1.685   3.407   6.461  0.1456  0.4881 -0.6779
 1070SOL    HW2 4283   1.543   3.379   6.505  0.9563  0.3938  2.0160
 1071SOL     OW 4284   5.912   0.336   4.002 -0.6993 -0.1908 -0.4639
 1071SOL    HW1 4285   5.850   0.285   3.950 -1.6474 -1.2528  1.5760
 1071SOL    HW2 4286   5.990   0.343   3.946 -1.7377 -1.0353 -2.0968
 1072SOL     OW 4287   3.022   6.683   2.027  0.0871 -0.1193 -0.4021
 1072SOL    HW1 4288   2.997   6.699   1.936 -3.0063  0.6417  0.4647
 1072SOL    HW2 4289   3.013   6.769   2.070  3.5335  0.0315  0.2963
 1073SOL     OW 4290   6.528   7.210   5.317 -0.3179 -0.0278  0.4527
 1073SOL    HW1 4291   6.581   7.160   5.255 -1.1158 -1.2413  0.7095
 1073SOL    HW2 4292   6.472   7.264   5.261 -0.4079 -0.4561  0.1143
 1074SOL     OW 4293   6.057   4.939   3.620  0.7436 -0.4192 -0.1416
 1074SOL    HW1 4294   6.098   5.012   3.666 -1.5392  0.9507 -0.1456
 1074SOL    HW2 4295   5.970   4.931   3.659 -0.2442 -1.0520 -2.3025
 1075SOL     OW 4296   3.642   5.468   3.817  0.0211 -0.3062  0.1014
 1075SOL    HW1 4297   3.730   5.490   3.848 -0.8885  0.8371  2.0891
 1075SOL    HW2 4298   3.640   5.497   3.726  1.3258  0.7801  0.3934
 1076SOL     OW 4299   5.282   2.390   4.535  0.1598  0.2222 -0.6584
 1076SOL    HW1 4300   5.226   2.319   4.566 -0.6288  1.2786  0.4332
 1076SOL    HW2 4301   5.281   2.383   4.440  0.4972 -1.5091 -0.5522
 1077SOL     OW 4302   3.611   2.913   1.230  0.2159 -0.3253 -0.2357
 1077SOL    HW1 4303   3.667   2.956   1.166  0.1893 -0.8361 -0.6096
 1077SOL    HW2 4304   3.664   2.840   1.263  0.0018 -0.4397 -0.1396
 1078SOL     OW 4305   8.120   2.486   4.074 -0.0101  0.4610 -0.2270
 1078SOL    HW1 4306   8.093   2.576   4.095 -4.1604 -0.6058 -0.3090
 1078SOL    HW2 4307   8.091   2.472   3.984  1.5101 -0.7300 -0.5872
 1079SOL     OW 4308   1.934   6.436   5.718 -0.9756  0.3204 -0.0612
 1079SOL    HW1 4309   1.987   6.511   5.693 -2.0259  1.0854 -0.0491
 1079SOL    HW2 4310   1.975   6.404   5.799 -0.8184  1.1911  0.2128
 1080SOL     OW 4311   4.194   5.605   2.421  0.4526  0.6623 -0.2814
 1080SOL    HW1 4312   4.122   5.547   2.444  0.4333  0.3798 -1.0300
 1080SOL    HW2 4313   4.156   5.693   2.426  0.5817  0.6548  1.2134
 1081SOL     OW 4314   6.012   3.124   4.058 -0.0232 -0.4589  0.1942
 1081SOL    HW1 4315   6.065   3.141   4.135  0.7176 -1.7303 -0.0132
 1081SOL    HW2 4316   5.993   3.030   4.061 -2.3203 -0.0667  0.2813
 1082SOL     OW 4317   2.185   0.946   1.111 -0.1691  0.1214  0.0449
 1082SOL    HW1 4318   2.156   0.867   1.065  0.1663 -0.5338  0.9284
 1082SOL    HW2 4319   2.271   0.923   1.145 -0.5177  0.4900  1.2213
 1083SOL     OW 4320   7.103   1.523   0.267  0.2979 -0.0717 -0.4592
 1083SOL    HW1 4321   7.097   1.439   0.313 -1.4748 -0.1075 -0.7204
 1083SOL    HW2 4322   7.163   1.506   0.194  1.4546 -0.5806  0.5734
 1084SOL     OW 4323   5.541   6.183   4.975 -0.4017  0.1216  0.5349
 1084SOL    HW1 4324   5.545   6.110   4.913  0.5077  0.1551  0.5415
 1084SOL    HW2 4325   5.626   6.183   5.019  0.5078  2.5193 -1.0134
 1085SOL     OW 4326   5.948   5.298   2.624 -0.4096 -0.1739 -0.2630
 1085SOL    HW1 4327   5.930   5.335   2.537  0.1692  1.9870  0.4682
 1085SOL    HW2 4328   6.010   5.228   2.608  1.0284  1.3066 -1.4878
 1086SOL     OW 4329   0.245   2.650   2.415 -0.6459  0.6081  0.0046
 1086SOL    HW1 4330   0.151   2.632   2.412 -0.3046 -1.2454 -2.0487
 1086SOL    HW2 4331   0.264   2.695   2.333  0.1119  2.0512  0.9302
 1087SOL     OW 4332   5.188   7.140   0.830  0.0576  0.1940  0.2234
 1087SOL    HW1 4333   5.112   7.179   0.787  0.1551  0.3601  0.1994
 1087SOL    HW2 4334   5.258   7.148   0.765  0.2566  0.6243  0.4836
 1088SOL     OW 4335   1.332   5.014   7.651  0.2043 -0.7865  0.4001
 1088SOL    HW1 4336   1.247   5.058   7.659  0.4122 -0.6279  2.0379
 1088SOL    HW2 4337   1.318   4.946   7.585 -1.4241 -1.2975  1.2214
 1089SOL     OW 4338   4.656   4.785   7.231 -0.0044  0.7065  0.3456
 1089SOL    HW1 4339   4.628   4.744   7.149  0.2768  0.5252  0.3375
 1089SOL    HW2 4340   4.613   4.735   7.300 -0.0445  0.7030  0.3175
 1090SOL     OW 4341   7.885   6.917   7.582  0.3193 -0.7831 -0.1605
 1090SOL    HW1 4342   7.794   6.933   7.606  0.0228 -0.6310 -1.3256
 1090SOL    HW2 4343   7.936   6.965   7.648 -0.4853  0.8741 -0.6788
 1091SOL     OW 4344   6.078   1.068   4.954  0.6998  0.3895 -0.0573
 1091SOL    HW1 4345   6.171   1.082   4.968  0.3061  2.2322  1.0927
 1091SOL    HW2 4346   6.044   1.047   5.042  0.2363 -1.9473 -0.7120
 1092SOL     OW 4347   2.220   2.217   0.935 -0.3328 -0.3113  0.7853
 1092SOL    HW1 4348   2.256   2.206   0.847 -0.2512  2.6231  0.3641
 1092SOL    HW2 4349   2.211   2.127   0.968  1.6532 -1.4264 -1.3690
 1093SOL     OW 4350   1.621   1.934   0.357  0.3654 -0.2667 -0.3246
 1093SOL    HW1 4351   1.690   1.990   0.320 -0.2699 -0.1068 -1.2981
 1093SOL    HW2 4352   1.596   1.877   0.285  0.9485 -1.7868  0.6350
 1094SOL     OW 4353   1.221   6.775   8.039  0.0352  0.1707 -0.1778
 1094SOL    HW1 4354   1.249   6.857   8.078  0.6655  0.1717 -0.6157
 1094SOL    HW2 4355   1.185   6.800   7.954  1.3709 -0.1087 -0.8549
 1095SOL     OW 4356   7.115   6.583   2.290 -0.1582  0.7529  0.1778
 1095SOL    HW1 4357   7.199   6.540   2.273 -0.2824  1.1660 -1.7055
 1095SOL    HW2 4358   7.135   6.676   2.286 -0.4492  0.8664  1.1888
 1096SOL     OW 4359   1.376   1.198   3.338 -0.0775 -0.3368  0.6876
 1096SOL    HW1 4360   1.374   1.191   3.243  0.5830 -0.7529  0.7027
 1096SOL    HW2 4361   1.366   1.292   3.354  0.7909 -0.1426  0.1695
 1097SOL     OW 4362   7.908   4.125   1.989  0.1915  0.5391  0.5553
 1097SOL    HW1 4363   7.881   4.183   1.918 -0.6337 -1.9263 -1.3302
 1097SOL    HW2 4364   8.004   4.129   1.989  0.1894  0.8346 -0.5041
 1098SOL     OW 4365   4.743   7.435   3.648 -0.3095  0.1098  0.0084
 1098SOL    HW1 4366   4.758   7.530   3.646  0.5582 -0.0169  0.1577
 1098SOL    HW2 4367   4.740   7.413   3.741 -1.1015  0.0690 -0.0175
 1099SOL     OW 4368   1.585   2.278   3.319 -0.4544 -0.2410  0.4700
 1099SOL    HW1 4369   1.542   2.262   3.235 -1.4240  0.4336  0.8239
 1099SOL    HW2 4370   1.674   2.304   3.295 -0.4273 -0.9906 -0.3058
 1100SOL     OW 4371   4.245   2.328   4.693  0.3377 -0.0504  0.3603
 1100SOL    HW1 4372   4.232   2.421   4.675 -0.4037 -0.4057 -1.0606
 1100SOL    HW2 4373   4.199   2.312   4.775 -0.7550  0.5540 -0.1132
 1101SOL     OW 4374   3.073   3.316   6.107 -0.2465 -0.3194 -0.1133
 1101SOL    HW1 4375   3.135   3.289   6.174 -0.6532  1.8189  1.2000
 1101SOL    HW2 4376   2.990   3.279   6.134 -0.1097 -0.7703 -0.3048
 1102SOL     OW 4377   1.728   6.438   0.869 -0.1763  0.5039 -0.3044
 1102SOL    HW1 4378   1.674   6.427   0.948 -0.0429 -3.3607 -0.5860
 1102SOL    HW2 4379   1.664   6.442   0.797 -0.2075 -0.4351 -0.3377
 1103SOL     OW 4380   6.056   6.303   1.992 -0.0208 -0.1687  0.0200
 1103SOL    HW1 4381   6.127   6.312   1.929  0.7034  2.5027  1.0997
 1103SOL    HW2 4382   5.977   6.296   1.939  0.5200  2.4377 -1.2598
 1104SOL     OW 4383   6.353   6.470   0.331  0.0898  0.2502  0.0035
 1104SOL    HW1 4384   6.343   6.383   0.292 -0.5269  0.1903  0.2902
 1104SOL    HW2 4385   6.422   6.459   0.396  1.3257  0.4137 -1.2372
 1105SOL     OW 4386   4.389   6.777   7.781 -0.1218  0.4985 -0.2921
 1105SOL    HW1 4387   4.297   6.790   7.758 -0.0762  0.8891 -0.2522
 1105SOL    HW2 4388   4.438   6.826   7.715  0.0904 -0.3361 -0.7781
 1106SOL     OW 4389   0.423   2.577   0.975 -0.3273  0.3745  0.3481
 1106SOL    HW1 4390   0.473   2.653   0.946  0.6346 -0.1556  0.5884
 1106SOL    HW2 4391   0.458   2.504   0.924 -0.0244 -0.2080  1.3615
 1107SOL     OW 4392   3.126   0.572   5.304  0.6311  0.0251 -0.3905
 1107SOL    HW1 4393   3.111   0.645   5.243  0.8406  0.3681 -0.0348
 1107SOL    HW2 4394   3.039   0.535   5.318  0.6711 -0.5205 -1.4631
 1108SOL     OW 4395   1.492   4.877   3.485 -0.3006  0.9311  0.1661
 1108SOL    HW1 4396   1.540   4.909   3.409 -1.0015  0.6545 -0.4009
 1108SOL    HW2 4397   1.550   4.811   3.524  1.1859  2.8645  1.3811
 1109SOL     OW 4398   5.970   3.607   4.293  0.7341 -0.3857 -0.0460
 1109SOL    HW1 4399   5.875   3.593   4.284  0.9655 -0.9138 -2.1145
 1109SOL    HW2 4400   5.977   3.697   4.324 -0.4575 -0.7293  1.3619
 1110SOL     OW 4401   8.078   3.949   1.222 -0.1439 -0.1225  0.2131
 1110SOL    HW1 4402   8.001   3.893   1.219 -1.1973  1.3063 -0.2614
 1110SOL    HW2 4403   8.095   3.972   1.131 -0.4098  1.2001  0.4780
 1111SOL     OW 4404   0.165   2.785   3.427 -0.0870 -0.5190  0.3159
 1111SOL    HW1 4405   0.161   2.876   3.456  1.7818  0.0441 -0.9486
 1111SOL    HW2 4406   0.224   2.742   3.489  0.6858 -0.3151 -0.2531
 1112SOL     OW 4407   5.324   1.046   0.909  0.3539  1.0055 -1.0289
 1112SOL    HW1 4408   5.375   1.001   0.842 -0.1177 -0.7501 -0.2731
 1112SOL    HW2 4409   5.237   1.005   0.905  0.2462  1.0116  0.4618
 1113SOL     OW 4410   5.831   2.518   6.131  0.2261  0.2401  0.6469
 1113SOL    HW1 4411   5.847   2.529   6.037 -0.4246 -0.8556  0.3911
 1113SOL    HW2 4412   5.908   2.558   6.173  1.1729 -0.4232 -0.3945
 1114SOL     OW 4413   2.639   6.928   6.040  0.0136 -0.2050  0.2571
 1114SOL    HW1 4414   2.729   6.897   6.039  0.2415  0.4379 -1.4495
 1114SOL    HW2 4415   2.586   6.850   6.021  0.1205 -0.7005  1.8010
 1115SOL     OW 4416   6.099   6.471   5.333  0.1838  0.0160 -0.3051
 1115SOL    HW1 4417   6.189   6.503   5.341  0.1977 -0.4710  2.2487
 1115SOL    HW2 4418   6.047   6.551   5.318  0.6585  0.8140  1.9794
 1116SOL     OW 4419   0.880   4.171   3.831 -0.2735 -0.2860 -0.3865
 1116SOL    HW1 4420   0.806   4.111   3.823 -0.7974  0.2515  0.3902
 1116SOL    HW2 4421   0.956   4.117   3.809 -0.7871 -1.0959 -0.2301
 1117SOL     OW 4422   6.966   6.227   2.986  0.4700 -0.2347  0.2588
 1117SOL    HW1 4423   6.966   6.131   2.983 -1.4967 -0.2671 -2.0391
 1117SOL    HW2 4424   7.034   6.249   3.049  0.8161 -3.1377  1.0460
 1118SOL     OW 4425   5.540   4.040   6.667 -0.0377 -0.2718 -0.4558
 1118SOL    HW1 4426   5.479   4.102   6.626  0.4021 -0.3647 -1.2821
 1118SOL    HW2 4427   5.515   4.039   6.759 -2.1853 -1.3107 -0.9715
 1119SOL     OW 4428   7.293   3.839   2.259  0.1915 -0.3337 -0.5021
 1119SOL    HW1 4429   7.305   3.745   2.272 -1.3663 -0.7109 -1.4519
 1119SOL    HW2 4430   7.232   3.865   2.329  0.9222  0.0627 -0.0033
 1120SOL     OW 4431   2.327   8.076   6.648 -0.1916 -0.0592 -0.1871
 1120SOL    HW1 4432   2.413   8.087   6.687 -1.1092  1.0076  1.7117
 1120SOL    HW2 4433   2.299   8.164   6.626 -1.7347 -0.0631  1.5012
 1121SOL     OW 4434   6.901   1.658   7.332  0.4088 -0.5739 -0.7931
 1121SOL    HW1 4435   6.934   1.632   7.417 -0.0455  0.1593 -0.3799
 1121SOL    HW2 4436   6.978   1.690   7.285  0.3015  1.5394  0.3233
 1122SOL     OW 4437   2.111   3.858   2.213  0.1220 -0.6967  0.2124
 1122SOL    HW1 4438   2.187   3.802   2.233  1.5663  1.6887  2.0263
 1122SOL    HW2 4439   2.111   3.923   2.283 -1.7990  1.2391 -1.4520
 1123SOL     OW 4440   0.754   4.203   6.305  0.2316 -0.4844 -0.2021
 1123SOL    HW1 4441   0.800   4.119   6.313  1.2730 -0.3578 -3.5050
 1123SOL    HW2 4442   0.823   4.269   6.306 -0.5542  0.4055  2.0130
 1124SOL     OW 4443   1.670   6.892   1.339 -0.2531 -0.2294 -0.5956
 1124SOL    HW1 4444   1.666   6.961   1.272  3.0061 -0.9113 -1.6925
 1124SOL    HW2 4445   1.678   6.939   1.422  0.1634  0.7221 -1.1578
 1125SOL     OW 4446   5.568   0.195   8.016  0.3028 -0.4997 -0.1961
 1125SOL    HW1 4447   5.492   0.251   8.003  0.4728  0.3733  2.0825
 1125SOL    HW2 4448   5.618   0.202   7.935 -1.2618  0.1271 -1.1431
 1126SOL     OW 4449   7.776   5.517   7.099 -0.1000  0.3728 -0.1387
 1126SOL    HW1 4450   7.695   5.484   7.060 -1.1112 -0.4100  2.4100
 1126SOL    HW2 4451   7.757   5.608   7.121 -1.5060 -0.5725  3.1493
 1127SOL     OW 4452   6.224   5.321   2.959 -0.4851 -0.3561  0.0140
 1127SOL    HW1 4453   6.311   5.337   2.996 -0.8171  2.2219 -0.1518
 1127SOL    HW2 4454   6.235   5.337   2.865 -1.2711  0.7643  0.0943
 1128SOL     OW 4455   1.474   8.025   7.611 -0.4229 -0.5992  0.7589
 1128SOL    HW1 4456   1.529   8.098   7.638  1.9767 -0.9961 -2.5295
 1128SOL    HW2 4457   1.522   7.947   7.639  0.4644 -0.9323 -1.4670
 1129SOL     OW 4458   1.810   8.037   4.405 -0.6725  0.8332 -0.1703
 1129SOL    HW1 4459   1.830   7.981   4.330  0.6691 -1.9983  2.1188
 1129SOL    HW2 4460   1.715   8.047   4.403 -0.8429 -0.6620 -1.2675
 1130SOL     OW 4461   2.421   5.158   2.830  0.1697 -0.1997  0.1005
 1130SOL    HW1 4462   2.331   5.149   2.862 -0.1725 -0.0301 -0.7920
 1130SOL    HW2 4463   2.474   5.157   2.909 -0.5661 -0.9100  0.6103
 1131SOL     OW 4464   0.660   5.074   7.592 -0.1977  0.4367 -0.2249
 1131SOL    HW1 4465   0.750   5.040   7.600 -0.1244  0.6940  0.0550
 1131SOL    HW2 4466   0.627   5.035   7.511 -0.0911 -0.2578  0.0614
 1132SOL     OW 4467   7.692   0.636   1.035  0.2235  0.0832 -0.0719
 1132SOL    HW1 4468   7.607   0.654   0.994 -0.6527 -0.2588  1.5391
 1132SOL    HW2 4469   7.710   0.545   1.014  0.8637  0.5140 -1.5351
 1133SOL     OW 4470   0.665   2.224   2.929 -0.7313 -0.4830  0.5625
 1133SOL    HW1 4471   0.657   2.319   2.920 -1.0219 -0.1126  3.5065
 1133SOL    HW2 4472   0.755   2.204   2.904 -0.4514  0.6927  0.6073
 1134SOL     OW 4473   5.580   4.687   7.148 -0.1430 -0.0988 -0.9864
 1134SOL    HW1 4474   5.514   4.619   7.133 -0.7754  0.0803  0.8084
 1134SOL    HW2 4475   5.639   4.649   7.213 -0.1635  0.8319 -0.4096
 1135SOL     OW 4476   7.914   1.131   3.766 -0.6092 -0.2903  0.4393
 1135SOL    HW1 4477   7.841   1.173   3.811 -1.8422 -2.7172  0.8521
 1135SOL    HW2 4478   7.892   1.137   3.673 -0.8386 -0.1374  0.5046
 1136SOL     OW 4479   4.979   1.441   1.176 -0.4380  0.3992  0.0364
 1136SOL    HW1 4480   4.955   1.350   1.193 -0.9894  0.5755  0.2055
 1136SOL    HW2 4481   5.004   1.475   1.262  0.9548  0.0736 -0.2082
 1137SOL     OW 4482   7.405   3.458   7.123 -0.4525  0.3051  0.1737
 1137SOL    HW1 4483   7.343   3.527   7.103 -0.8194 -0.1885 -0.4132
 1137SOL    HW2 4484   7.382   3.387   7.064  1.1268  0.3741 -0.5697
 1138SOL     OW 4485   6.849   7.153   0.179  0.1891  0.0048  0.5516
 1138SOL    HW1 4486   6.905   7.109   0.243  0.8987  0.7134  0.4259
 1138SOL    HW2 4487   6.907   7.172   0.105 -0.4049  0.0343  0.0827
 1139SOL     OW 4488   5.262   6.614   7.424  0.3973 -0.3424 -0.3214
 1139SOL    HW1 4489   5.182   6.561   7.416  0.1623 -0.1430  0.6169
 1139SOL    HW2 4490   5.274   6.625   7.518 -0.0467  1.9938 -0.4899
 1140SOL     OW 4491   1.928   3.284   6.302 -0.4153  0.3124  0.1616
 1140SOL    HW1 4492   1.838   3.256   6.315 -0.2786  0.1250  0.7136
 1140SOL    HW2 4493   1.975   3.203   6.280 -0.3409  0.3790  0.0735
 1141SOL     OW 4494   1.224   6.182   3.108 -0.1938  0.0206 -0.4651
 1141SOL    HW1 4495   1.247   6.137   3.190 -0.0296 -0.3728 -0.7210
 1141SOL    HW2 4496   1.308   6.209   3.072 -0.2389 -0.1397 -0.6889
 1142SOL     OW 4497   6.813   0.275   0.636  0.3621  0.5008  0.2912
 1142SOL    HW1 4498   6.852   0.350   0.590 -0.8989  1.7801  1.1933
 1142SOL    HW2 4499   6.739   0.250   0.581 -0.5464  1.3865  1.0672
 1143SOL     OW 4500   3.025   4.111   4.886 -0.4590 -0.4533 -0.0591
 1143SOL    HW1 4501   3.069   4.190   4.857  1.4749 -0.5058  2.4084
 1143SOL    HW2 4502   3.087   4.040   4.869 -0.8662 -0.9901  0.5943
 1144SOL     OW 4503   5.871   7.298   6.740  0.4621 -0.0244 -0.4617
 1144SOL    HW1 4504   5.935   7.260   6.800 -1.0028 -1.8679  0.0505
 1144SOL    HW2 4505   5.873   7.242   6.663 -0.7905 -0.3911 -0.2596
 1145SOL     OW 4506   6.064   6.552   2.138  0.3162 -0.2062  0.2646
 1145SOL    HW1 4507   5.985   6.509   2.169 -0.1558 -0.4576 -1.2025
 1145SOL    HW2 4508   6.089   6.503   2.060  2.0589 -0.2704  0.8222
 1146SOL     OW 4509   2.543   1.415   5.088 -0.2941 -0.4499  0.3499
 1146SOL    HW1 4510   2.635   1.401   5.070 -0.3524  0.0998 -0.4266
 1146SOL    HW2 4511   2.508   1.328   5.107  0.0446 -0.9074 -1.0036
 1147SOL     OW 4512   2.142   3.945   6.324 -0.2325 -0.3842 -0.0750
 1147SOL    HW1 4513   2.165   4.019   6.267  1.4157 -1.0069 -0.2773
 1147SOL    HW2 4514   2.194   3.959   6.403 -1.0860 -0.5283  0.5172
 1148SOL     OW 4515   2.018   4.916   1.891 -0.4184  0.9048  0.5222
 1148SOL    HW1 4516   2.006   4.915   1.796 -1.2428  0.3646  0.6225
 1148SOL    HW2 4517   2.112   4.927   1.904  0.0028 -1.2924 -0.3680
 1149SOL     OW 4518   0.812   7.938   7.386 -0.4269 -0.4696 -0.4803
 1149SOL    HW1 4519   0.899   7.935   7.344  0.6213 -0.5680  1.5944
 1149SOL    HW2 4520   0.807   7.857   7.437 -1.9969 -0.7213 -0.9660
 1150SOL     OW 4521   1.411   4.083   4.980 -0.0365 -0.1266  0.4213
 1150SOL    HW1 4522   1.500   4.049   4.973 -0.1749 -0.9004  2.0617
 1150SOL    HW2 4523   1.419   4.176   4.958  0.9110 -0.4886 -0.8725
 1151SOL     OW 4524   7.989   2.190   7.434  0.9428 -0.1051 -0.4037
 1151SOL    HW1 4525   7.918   2.131   7.410  1.5346 -0.5402 -1.1349
 1151SOL    HW2 4526   7.997   2.180   7.529 -2.0510  2.3289  0.2904
 1152SOL     OW 4527   4.385   7.463   1.895  0.1526  0.0896 -0.3387
 1152SOL    HW1 4528   4.429   7.383   1.865  0.7505  0.1207  0.3990
 1152SOL    HW2 4529   4.416   7.474   1.986 -0.4197  0.8064 -0.2207
 1153SOL     OW 4530   5.123   2.639   0.194 -0.3530  0.0594  0.2136
 1153SOL    HW1 4531   5.159   2.583   0.125  1.0407  0.5169  0.5331
 1153SOL    HW2 4532   5.085   2.713   0.146  2.2533  1.3395 -0.1142
 1154SOL     OW 4533   4.418   4.396   6.921 -0.1533 -0.0932  0.2783
 1154SOL    HW1 4534   4.344   4.378   6.979  0.2463 -0.7228  0.6051
 1154SOL    HW2 4535   4.462   4.311   6.911  0.2410  0.1757 -0.3033
 1155SOL     OW 4536   8.145   5.519   2.535  0.0574 -0.5603 -0.1455
 1155SOL    HW1 4537   8.179   5.504   2.623  1.2041 -0.1400 -0.5011
 1155SOL    HW2 4538   8.106   5.435   2.510  1.4010 -1.2642  0.0353
 1156SOL     OW 4539   5.471   3.315   5.927  0.3714  0.0704  0.6984
 1156SOL    HW1 4540   5.555   3.346   5.961  0.6080 -0.6239  0.7697
 1156SOL    HW2 4541   5.413   3.315   6.003  0.3561  0.3635  0.6894
 1157SOL     OW 4542   4.779   6.939   5.801 -0.1402 -0.3348  0.3474
 1157SOL    HW1 4543   4.707   6.889   5.838  0.9837 -1.3274  1.2619
 1157SOL    HW2 4544   4.788   6.905   5.712 -0.5541 -0.4654  0.3513
 1158SOL     OW 4545   0.025   7.446   7.607 -0.1225 -0.5701  0.2472
 1158SOL    HW1 4546   0.077   7.434   7.686 -0.1675 -0.2078  0.3324
 1158SOL    HW2 4547   0.089   7.444   7.536  0.5981  3.4981  0.5422
 1159SOL     OW 4548   3.324   6.902   1.624 -0.2903  0.0333 -0.1122
 1159SOL    HW1 4549   3.280   6.836   1.572  0.2379  0.1456 -0.7110
 1159SOL    HW2 4550   3.258   6.971   1.637 -0.9637 -0.7727  0.8492
 1160SOL     OW 4551   5.707   7.092   3.099 -0.3155  0.1735 -0.3050
 1160SOL    HW1 4552   5.797   7.122   3.090 -0.4605  0.6205 -0.2919
 1160SOL    HW2 4553   5.662   7.126   3.022 -1.1492  2.4928  1.0957
 1161SOL     OW 4554   1.382   1.139   4.746 -0.8046 -0.4792  0.3614
 1161SOL    HW1 4555   1.464   1.114   4.703 -1.1491 -0.6148 -0.2330
 1161SOL    HW2 4556   1.380   1.087   4.826 -1.3916 -2.2197 -0.7329
 1162SOL     OW 4557   8.156   3.881   1.703 -0.8545  0.1139  0.0185
 1162SOL    HW1 4558   8.133   3.968   1.673  0.7347 -0.0411 -1.8440
 1162SOL    HW2 4559   8.082   3.826   1.678 -0.8443  0.5323 -0.9581
 1163SOL     OW 4560   8.111   4.008   5.654 -0.3163  0.0225 -0.4589
 1163SOL    HW1 4561   8.186   4.055   5.619  0.5579 -0.3459  0.8495
 1163SOL    HW2 4562   8.044   4.015   5.586  1.2645 -0.6075 -2.1578
 1164SOL     OW 4563   5.648   4.607   4.641  0.3302 -0.1159  0.0774
 1164SOL    HW1 4564   5.566   4.558   4.633  0.3760  0.0556 -1.6260
 1164SOL    HW2 4565   5.658   4.652   4.558  2.4627 -0.6038  0.0181
 1165SOL     OW 4566   4.359   1.725   0.021 -0.4457  0.0935 -0.3802
 1165SOL    HW1 4567   4.440   1.679   0.040 -0.5593 -1.5207 -3.2751
 1165SOL    HW2 4568   4.384   1.818   0.019  1.0910 -0.2953 -0.3205
 1166SOL     OW 4569   0.886   6.763   6.494  0.8453  0.2763 -0.0249
 1166SOL    HW1 4570   0.797   6.729   6.505  0.8877 -0.9249 -2.7383
 1166SOL    HW2 4571   0.878   6.856   6.516 -0.8862 -0.0002  0.6616
 1167SOL     OW 4572   1.573   0.939   7.542  0.6072  0.6683 -0.7168
 1167SOL    HW1 4573   1.657   0.983   7.546  0.3343  1.1521 -0.1379
 1167SOL    HW2 4574   1.592   0.848   7.567  0.9612  0.7554 -0.6675
 1168SOL     OW 4575   3.221   3.291   3.641 -0.1090 -0.2762 -0.2302
 1168SOL    HW1 4576   3.214   3.302   3.546 -0.8375  0.5738 -0.0919
 1168SOL    HW2 4577   3.164   3.359   3.677  1.8683  0.8502  0.8812
 1169SOL     OW 4578   7.110   2.617   5.270 -0.6878 -0.3663  0.0227
 1169SOL    HW1 4579   7.094   2.646   5.359  0.2922  1.3339 -0.3061
 1169SOL    HW2 4580   7.204   2.595   5.269 -0.2109  1.5138 -1.0230
 1170SOL     OW 4581   0.026   5.839   5.158  0.3433  0.6174 -0.1860
 1170SOL    HW1 4582   0.077   5.758   5.156  0.6416  0.7936  0.2166
 1170SOL    HW2 4583   0.055   5.884   5.237 -1.5249  0.0148  0.9133
 1171SOL     OW 4584   1.303   2.217   6.305 -0.1160 -0.1139 -0.4125
 1171SOL    HW1 4585   1.287   2.308   6.283 -0.4229 -0.5865 -2.3988
 1171SOL    HW2 4586   1.216   2.178   6.315  0.0071 -0.0109  1.4906
 1172SOL     OW 4587   6.372   6.161   0.851 -0.2027 -0.3318  0.0830
 1172SOL    HW1 4588   6.437   6.223   0.883  1.8539 -1.7946 -1.0420
 1172SOL    HW2 4589   6.336   6.204   0.773 -0.6818  0.5236  0.7566
 1173SOL     OW 4590   0.506   4.202   4.356 -0.0008  0.0843  0.0643
 1173SOL    HW1 4591   0.509   4.115   4.396 -1.6745 -0.1233 -0.1886
 1173SOL    HW2 4592   0.440   4.194   4.287 -0.8502  1.7982  0.6423
 1174SOL     OW 4593   6.891   5.983   3.659  0.1512 -0.2136 -0.5218
 1174SOL    HW1 4594   6.859   6.026   3.580 -0.2389  0.2751 -0.1079
 1174SOL    HW2 4595   6.986   5.978   3.647  0.4727  2.3850  0.1430
 1175SOL     OW 4596   0.777   4.135   0.803  0.2681  0.2713  0.0725
 1175SOL    HW1 4597   0.863   4.120   0.841  1.0320  0.5750 -1.4705
 1175SOL    HW2 4598   0.759   4.055   0.753  0.1101  0.6155 -0.4261
 1176SOL     OW 4599   5.609   7.113   6.422 -0.1030  0.0777 -0.4163
 1176SOL    HW1 4600   5.562   7.107   6.505 -0.6343 -0.2063 -0.7351
 1176SOL    HW2 4601   5.549   7.159   6.364  0.3545  0.4749 -0.5853
 1177SOL     OW 4602   4.098   6.690   4.945 -0.5770  0.0609 -0.0712
 1177SOL    HW1 4603   4.092   6.688   4.850 -0.7695  1.7750 -0.1219
 1177SOL    HW2 4604   4.178   6.642   4.965 -0.2262  0.1844 -1.1269
 1178SOL     OW 4605   4.355   5.298   1.742 -0.2086 -0.2703 -1.1877
 1178SOL    HW1 4606   4.400   5.256   1.815 -1.0569 -0.0575 -0.5347
 1178SOL    HW2 4607   4.377   5.391   1.750  1.6220 -0.5168 -2.5998
 1179SOL     OW 4608   3.027   5.831   7.388  0.1439  0.2133  0.6711
 1179SOL    HW1 4609   3.084   5.866   7.456  1.5922  1.8310 -1.2740
 1179SOL    HW2 4610   3.065   5.861   7.306 -1.3588 -1.8913 -0.9289
 1180SOL     OW 4611   0.404   6.600   7.317  0.9076 -0.3067  0.1546
 1180SOL    HW1 4612   0.383   6.637   7.231 -0.1886 -1.4127 -0.0989
 1180SOL    HW2 4613   0.352   6.651   7.379  0.4187 -0.5568 -0.0423
 1181SOL     OW 4614   6.990   5.512   6.129  0.1145  0.0470 -0.0042
 1181SOL    HW1 4615   7.032   5.471   6.054  0.1409 -0.9263  0.5212
 1181SOL    HW2 4616   7.044   5.486   6.204 -0.3480  0.3425  0.4421
 1182SOL     OW 4617   5.058   2.388   2.460 -0.3861  0.1247  0.0029
 1182SOL    HW1 4618   5.125   2.412   2.397 -1.2255 -0.7225 -1.2683
 1182SOL    HW2 4619   5.000   2.464   2.464 -2.0171 -0.8123 -2.6270
 1183SOL     OW 4620   1.037   1.852   5.634 -0.5320 -0.1550 -0.3701
 1183SOL    HW1 4621   1.009   1.876   5.722 -0.5906  0.6784 -0.6058
 1183SOL    HW2 4622   1.133   1.847   5.639 -0.3716  1.7393 -0.6669
 1184SOL     OW 4623   1.149   6.495   7.759  0.1277  0.5422  0.1516
 1184SOL    HW1 4624   1.061   6.495   7.720  0.4328  0.3335 -0.5637
 1184SOL    HW2 4625   1.183   6.583   7.742 -0.0855  0.7500  0.7759
 1185SOL     OW 4626   4.567   7.985   0.609  0.2822 -0.4510  0.8581
 1185SOL    HW1 4627   4.577   7.929   0.532 -0.4549 -0.7767  1.0003
 1185SOL    HW2 4628   4.567   7.925   0.683  0.4676 -0.1782  1.0836
 1186SOL     OW 4629   2.394   0.151   5.500 -0.3771  0.6376 -0.4456
 1186SOL    HW1 4630   2.476   0.103   5.489 -0.7839 -0.3048  0.4535
 1186SOL    HW2 4631   2.421   0.238   5.529  0.3067 -0.4642  2.6544
 1187SOL     OW 4632   7.777   2.366   2.162  0.4321  0.1201 -0.1076
 1187SOL    HW1 4633   7.733   2.281   2.170  0.3508  0.1655 -0.0776
 1187SOL    HW2 4634   7.729   2.424   2.221  2.1610 -0.4770  2.0198
 1188SOL     OW 4635   0.102   6.739   1.310 -0.0561 -0.0041 -0.3329
 1188SOL    HW1 4636   0.166   6.689   1.361 -2.2039 -2.0856  0.4935
 1188SOL    HW2 4637   0.091   6.821   1.358  1.5893  0.1943 -0.2334
 1189SOL     OW 4638   3.821   0.381   5.588  0.0825  0.2221  1.2342
 1189SOL    HW1 4639   3.850   0.470   5.606 -0.5473  0.4145  1.3501
 1189SOL    HW2 4640   3.732   0.378   5.623  0.2810 -0.6094  1.6967
 1190SOL     OW 4641   8.135   1.321   6.369  0.4940  0.6688 -0.0173
 1190SOL    HW1 4642   8.123   1.396   6.428  0.5934  0.5466  0.1591
 1190SOL    HW2 4643   8.213   1.277   6.403 -0.8675 -0.8514  1.3062
 1191SOL     OW 4644   0.320   8.071   7.029 -0.4170  0.0487  0.2548
 1191SOL    HW1 4645   0.377   8.143   7.052 -0.3378 -0.4995  1.8748
 1191SOL    HW2 4646   0.373   8.015   6.972  0.7657 -0.5670  1.9073
 1192SOL     OW 4647   5.282   4.806   4.084 -0.1651  0.0740 -0.5921
 1192SOL    HW1 4648   5.229   4.731   4.056 -0.0914 -0.8584  1.6210
 1192SOL    HW2 4649   5.298   4.791   4.177  2.0304  1.5412 -0.6675
 1193SOL     OW 4650   1.091   4.053   5.823  0.2429 -0.5217  0.4063
 1193SOL    HW1 4651   1.078   4.118   5.892 -0.6298 -1.8771  1.5919
 1193SOL    HW2 4652   1.184   4.060   5.801  0.2696  0.7746  0.8435
 1194SOL     OW 4653   2.476   4.831   4.284 -0.5009  0.1882 -0.5805
 1194SOL    HW1 4654   2.523   4.914   4.280  1.0892 -0.2978  3.5080
 1194SOL    HW2 4655   2.545   4.764   4.283 -1.4267 -0.8353  0.3765
 1195SOL     OW 4656   3.235   3.384   1.931  0.6013  0.3206 -0.5359
 1195SOL    HW1 4657   3.312   3.427   1.969  0.9108 -0.9822  0.3751
 1195SOL    HW2 4658   3.185   3.355   2.006 -0.1111 -0.0274 -1.1360
 1196SOL     OW 4659   2.099   1.102   1.325  0.3116 -0.0245  0.3650
 1196SOL    HW1 4660   2.118   1.065   1.239 -1.3221  0.6259 -0.3182
 1196SOL    HW2 4661   2.173   1.161   1.342  2.3265 -2.5534  0.9362
 1197SOL     OW 4662   4.538   4.420   2.583 -0.0415  0.4220  0.2171
 1197SOL    HW1 4663   4.608   4.408   2.648 -0.6110  0.7199  0.9007
 1197SOL    HW2 4664   4.562   4.363   2.511  0.1573 -0.5859  1.0587
 1198SOL     OW 4665   1.293   5.540   0.352  0.1543  0.2484  0.1338
 1198SOL    HW1 4666   1.328   5.525   0.440 -0.1094 -0.3695  0.1436
 1198SOL    HW2 4667   1.208   5.581   0.367 -0.3533 -0.7930  0.2190
 1199SOL     OW 4668   3.247   2.233   2.123 -0.2177  0.2834  0.4592
 1199SOL    HW1 4669   3.154   2.243   2.143 -0.3340  0.6240 -0.2284
 1199SOL    HW2 4670   3.286   2.203   2.205 -0.8376  0.7224  0.9254
 1200SOL     OW 4671   4.658   3.474   3.708 -0.1510  0.2891 -0.0921
 1200SOL    HW1 4672   4.738   3.519   3.679  0.4088 -0.5416  0.1336
 1200SOL    HW2 4673   4.641   3.509   3.795 -0.3077  0.8066 -0.3232
 1201SOL     OW 4674   5.728   7.921   3.106 -0.0987 -0.0614 -0.4996
 1201SOL    HW1 4675   5.820   7.911   3.129 -0.1042  1.2864  0.2323
 1201SOL    HW2 4676   5.681   7.896   3.185 -0.3181  0.2590 -0.5278
 1202SOL     OW 4677   6.473   0.317   1.969 -0.1097  0.6998  0.8419
 1202SOL    HW1 4678   6.539   0.334   1.902 -1.0400  0.8991 -0.0549
 1202SOL    HW2 4679   6.494   0.229   2.001 -0.5433 -0.0553 -0.8281
 1203SOL     OW 4680   6.873   1.594   7.633  0.3800  0.0618  0.0176
 1203SOL    HW1 4681   6.924   1.522   7.597  1.4196  1.4266 -1.3591
 1203SOL    HW2 4682   6.873   1.579   7.728  0.4900 -1.7584 -0.2513
 1204SOL     OW 4683   6.592   4.006   1.490 -0.3199 -0.0816 -0.6744
 1204SOL    HW1 4684   6.590   4.102   1.481 -0.8766 -0.1736 -1.6211
 1204SOL    HW2 4685   6.500   3.980   1.487 -0.0954 -0.7873 -2.2248
 1205SOL     OW 4686   0.999   0.171   7.319 -0.3670  0.1037  0.1569
 1205SOL    HW1 4687   1.024   0.120   7.242 -0.6304  0.1808  0.0216
 1205SOL    HW2 4688   0.906   0.153   7.331 -0.1002 -0.7521  1.0928
 1206SOL     OW 4689   4.696   0.723   7.837 -0.1888  0.1570  0.5396
 1206SOL    HW1 4690   4.678   0.654   7.901  1.9245 -0.6161  0.3958
 1206SOL    HW2 4691   4.757   0.782   7.882  0.4231  0.2339 -0.3577
 1207SOL     OW 4692   0.678   2.490   2.857  0.1217 -0.3437  0.3432
 1207SOL    HW1 4693   0.634   2.447   2.784  2.7200 -1.5229 -0.6830
 1207SOL    HW2 4694   0.731   2.559   2.815  1.8620 -1.2157  1.0034
 1208SOL     OW 4695   5.951   5.215   1.071  0.3626  0.5171 -0.4011
 1208SOL    HW1 4696   6.004   5.162   1.012 -0.6687 -0.1362 -0.7695
 1208SOL    HW2 4697   5.958   5.172   1.156 -1.9671 -1.4293 -1.0632
 1209SOL     OW 4698   0.841   6.118   3.957  0.1555  0.4336  0.1266
 1209SOL    HW1 4699   0.886   6.035   3.943 -1.1374 -0.0592 -1.3610
 1209SOL    HW2 4700   0.899   6.183   3.917  0.2594 -0.0124 -0.4730
 1210SOL     OW 4701   6.091   2.873   6.008 -0.1205  0.1546  0.1070
 1210SOL    HW1 4702   6.070   2.923   6.087  2.2169  2.5211 -0.5879
 1210SOL    HW2 4703   6.057   2.926   5.936 -0.5535 -0.9975 -0.5581
 1211SOL     OW 4704   0.453   0.817   1.220 -0.0228  0.4741  0.6542
 1211SOL    HW1 4705   0.430   0.906   1.193 -0.5530  0.4863  1.1188
 1211SOL    HW2 4706   0.547   0.821   1.236  0.4464  0.2880 -1.7825
 1212SOL     OW 4707   3.125   3.840   2.874  0.3228 -0.2368 -0.0138
 1212SOL    HW1 4708   3.206   3.891   2.868  0.4328  0.0064  2.4846
 1212SOL    HW2 4709   3.056   3.901   2.850  0.8090 -0.3916 -1.9809
 1213SOL     OW 4710   1.696   1.029   1.785  0.7492  0.4442 -0.0582
 1213SOL    HW1 4711   1.718   1.118   1.758  1.0457  0.0430 -1.1768
 1213SOL    HW2 4712   1.738   0.973   1.720  2.0914 -0.5983  1.6142
 1214SOL     OW 4713   0.413   5.704   0.045  0.0863 -0.2546 -0.5143
 1214SOL    HW1 4714   0.392   5.797   0.058 -0.2334 -0.3493 -0.3476
 1214SOL    HW2 4715   0.473   5.683   0.117 -0.5431 -0.4052 -0.0244
 1215SOL     OW 4716   2.706   7.394   3.857 -0.1133  0.9283  0.9319
 1215SOL    HW1 4717   2.797   7.406   3.885 -0.4845  3.2022  1.4154
 1215SOL    HW2 4718   2.668   7.334   3.921  1.0868 -0.2535  0.5775
 1216SOL     OW 4719   5.787   6.099   4.729  0.1865 -0.0349  0.4188
 1216SOL    HW1 4720   5.855   6.162   4.706 -0.2436  0.1946 -0.2792
 1216SOL    HW2 4721   5.820   6.054   4.806  1.1293  0.0696  0.0825
 1217SOL     OW 4722   6.908   7.421   2.942  0.9308  0.4186  0.3551
 1217SOL    HW1 4723   6.930   7.402   2.851 -0.6821  3.0541 -0.7101
 1217SOL    HW2 4724   6.822   7.381   2.955  1.1162  0.1243  0.6911
 1218SOL     OW 4725   4.520   2.132   5.593 -0.0416 -0.4131  0.6787
 1218SOL    HW1 4726   4.531   2.146   5.687  1.8208  0.6764  0.3523
 1218SOL    HW2 4727   4.441   2.181   5.571 -0.0705 -0.0450  1.5494
 1219SOL     OW 4728   5.949   5.749   6.763  0.1270 -0.2439  0.1795
 1219SOL    HW1 4729   5.854   5.762   6.761  0.0737 -0.5738 -1.9420
 1219SOL    HW2 4730   5.959   5.656   6.781 -0.0583 -0.5940 -1.3474
 1220SOL     OW 4731   1.011   2.720   6.343 -0.0994  0.4413  0.6666
 1220SOL    HW1 4732   1.077   2.735   6.275  0.2949  1.3510  1.2280
 1220SOL    HW2 4733   0.928   2.716   6.296  0.2897 -0.1214  0.0132
 1221SOL     OW 4734   8.108   5.600   6.024  0.1037 -0.2242 -0.1360
 1221SOL    HW1 4735   8.152   5.563   6.101 -1.8722 -0.8082  0.7733
 1221SOL    HW2 4736   8.097   5.526   5.965  0.0592 -0.1466 -0.2242
 1222SOL     OW 4737   0.784   6.226   0.138 -0.1051 -0.3238 -0.1058
 1222SOL    HW1 4738   0.873   6.262   0.143 -0.1725 -0.2593  0.7164
 1222SOL    HW2 4739   0.781   6.161   0.207 -0.4858 -0.8207 -0.5853
 1223SOL     OW 4740   6.092   5.793   0.456 -0.4338 -0.3691  0.0398
 1223SOL    HW1 4741   6.116   5.728   0.390 -0.8409  0.0819 -0.5676
 1223SOL    HW2 4742   6.068   5.742   0.533  0.6888 -0.8829  0.0635
 1224SOL     OW 4743   4.869   5.710   0.140  0.3470 -0.1424  0.3700
 1224SOL    HW1 4744   4.860   5.623   0.178  1.1356  0.1677  1.3341
 1224SOL    HW2 4745   4.949   5.705   0.088  0.4669  0.0354  0.5348
 1225SOL     OW 4746   1.772   4.243   3.080  0.2259  0.5107  0.2584
 1225SOL    HW1 4747   1.687   4.231   3.122 -0.0488  1.3746 -0.0216
 1225SOL    HW2 4748   1.813   4.314   3.130  0.9571 -0.1709  0.6454
 1226SOL     OW 4749   0.890   2.348   0.538 -0.2649  0.5679  0.7985
 1226SOL    HW1 4750   0.943   2.420   0.572  0.2067  0.1198  1.0262
 1226SOL    HW2 4751   0.953   2.285   0.505 -0.6528  0.0541  1.0235
 1227SOL     OW 4752   4.716   7.812   7.515  0.2422  0.3202  0.5247
 1227SOL    HW1 4753   4.698   7.723   7.546 -1.0914 -0.7159 -2.7410
 1227SOL    HW2 4754   4.631   7.846   7.488  1.2300  0.7658 -2.4397
 1228SOL     OW 4755   6.606   4.125   5.541  0.1619  0.2734  0.5727
 1228SOL    HW1 4756   6.536   4.159   5.597 -0.2135  0.4145  0.0304
 1228SOL    HW2 4757   6.570   4.131   5.452  0.9826  0.6626  0.2519
 1229SOL     OW 4758   1.721   8.097   5.094  0.3373  0.0170 -0.7477
 1229SOL    HW1 4759   1.717   8.109   5.189  2.2917  0.6370 -0.7017
 1229SOL    HW2 4760   1.629   8.092   5.067 -0.3252  1.6413  0.9603
 1230SOL     OW 4761   5.119   2.928   0.797  0.1469 -0.3707  0.1095
 1230SOL    HW1 4762   5.188   2.923   0.731  0.2708 -0.8509  0.2718
 1230SOL    HW2 4763   5.050   2.980   0.755  0.4127 -0.2818 -0.2261
 1231SOL     OW 4764   2.924   7.691   4.616  0.4182  0.1943 -0.0284
 1231SOL    HW1 4765   2.877   7.642   4.683 -0.4304 -0.1474 -0.8523
 1231SOL    HW2 4766   2.924   7.634   4.540 -0.4146  1.3778 -0.9490
 1232SOL     OW 4767   7.466   4.949   4.361  0.2000 -0.1020 -0.2308
 1232SOL    HW1 4768   7.428   4.905   4.285  2.0409 -0.8482 -0.7732
 1232SOL    HW2 4769   7.441   4.894   4.435  0.7474 -0.9357 -0.6540
 1233SOL     OW 4770   2.135   7.930   0.198  0.1076  0.4515  0.2989
 1233SOL    HW1 4771   2.165   7.892   0.116  0.4412  0.8736  0.2199
 1233SOL    HW2 4772   2.152   7.863   0.264 -2.2955 -0.8536 -0.2830
 1234SOL     OW 4773   5.464   2.432   0.572 -0.1382 -0.1149 -0.2474
 1234SOL    HW1 4774   5.396   2.432   0.503  0.3572  2.2688 -0.8285
 1234SOL    HW2 4775   5.438   2.361   0.630 -1.5521 -1.1133 -1.9631
 1235SOL     OW 4776   7.597   6.353   1.323  0.2685  0.0047  0.8361
 1235SOL    HW1 4777   7.550   6.276   1.354 -1.1235  0.4560 -0.0532
 1235SOL    HW2 4778   7.583   6.419   1.391  1.6453 -0.5473  1.7047
 1236SOL     OW 4779   5.880   8.160   7.995  0.2176  0.0394 -0.0183
 1236SOL    HW1 4780   5.876   8.201   7.909 -2.2938 -0.3846 -0.1924
 1236SOL    HW2 4781   5.965   8.187   8.031  0.4042  2.0156 -1.7336
 1237SOL     OW 4782   3.742   3.264   7.827  0.3858  0.2572 -0.1046
 1237SOL    HW1 4783   3.707   3.176   7.842  1.4411 -0.0584  0.5990
 1237SOL    HW2 4784   3.728   3.310   7.910  0.7314  0.4377 -0.1429
 1238SOL     OW 4785   1.167   0.079   1.068  0.6335 -0.0291  0.2635
 1238SOL    HW1 4786   1.141  -0.001   1.022  0.0630 -0.9028  2.0294
 1238SOL    HW2 4787   1.252   0.058   1.106  1.8117  1.1917 -1.5054
 1239SOL     OW 4788   1.467   4.341   4.308 -0.3230 -0.0773  0.3428
 1239SOL    HW1 4789   1.561   4.326   4.310 -0.2502  0.3556  0.4663
 1239SOL    HW2 4790   1.437   4.315   4.395 -0.6623 -2.2237 -0.3724
 1240SOL     OW 4791   6.413   0.150   6.795 -0.4602  0.8103  0.2730
 1240SOL    HW1 4792   6.502   0.169   6.768 -0.3778  0.0823  0.0295
 1240SOL    HW2 4793   6.388   0.072   6.746 -1.8713  2.0153 -1.0490
 1241SOL     OW 4794   4.747   4.958   1.777  0.7376 -0.1368  0.1513
 1241SOL    HW1 4795   4.663   4.967   1.821  1.0486 -3.2280  1.6119
 1241SOL    HW2 4796   4.727   4.967   1.684 -0.6526  2.0935  0.5904
 1242SOL     OW 4797   5.826   1.984   0.903  0.4136  0.1944  0.0942
 1242SOL    HW1 4798   5.814   2.011   0.994  0.9239  0.2244  0.1587
 1242SOL    HW2 4799   5.883   2.051   0.866 -0.4436  0.6210 -0.4771
 1243SOL     OW 4800   0.657   8.078   3.463 -0.4617  0.1519 -0.1505
 1243SOL    HW1 4801   0.678   7.997   3.509 -2.5257  0.8733  2.2260
 1243SOL    HW2 4802   0.734   8.134   3.476  1.7674 -1.8403 -3.2920
 1244SOL     OW 4803   7.372   0.989   1.653 -0.3007  0.5447  0.2619
 1244SOL    HW1 4804   7.309   0.985   1.724  0.8027  1.4268  1.3387
 1244SOL    HW2 4805   7.457   0.977   1.695  0.2693 -0.8848 -1.1820
 1245SOL     OW 4806   5.893   0.799   3.592  0.8599 -0.1999 -0.1703
 1245SOL    HW1 4807   5.836   0.792   3.515 -1.2372 -1.2852  1.3852
 1245SOL    HW2 4808   5.880   0.889   3.623 -1.1634 -0.8246  0.9467
 1246SOL     OW 4809   2.043   2.516   6.377 -0.4845 -0.0929  0.0078
 1246SOL    HW1 4810   2.101   2.573   6.326 -1.7904 -0.9454 -2.6005
 1246SOL    HW2 4811   2.018   2.568   6.453 -0.8040  2.4670 -1.7454
 1247SOL     OW 4812   5.604   3.982   1.832 -0.4874  0.1252 -0.1336
 1247SOL    HW1 4813   5.692   3.988   1.796 -0.5512  0.7056 -0.1940
 1247SOL    HW2 4814   5.605   3.901   1.884  0.2152  0.3650  0.2349
 1248SOL     OW 4815   5.860   3.150   4.360 -0.1238  0.3105  0.2341
 1248SOL    HW1 4816   5.835   3.060   4.381 -0.3181  0.6671  1.7021
 1248SOL    HW2 4817   5.780   3.190   4.327  0.2306 -0.3217 -1.4894
 1249SOL     OW 4818   7.230   3.219   8.111 -0.1182  0.3083 -0.0738
 1249SOL    HW1 4819   7.143   3.183   8.091 -0.8933  1.4489  1.0449
 1249SOL    HW2 4820   7.238   3.295   8.053 -0.2065  0.6470  0.3511
 1250SOL     OW 4821   3.078   4.712   5.120 -0.2937  0.0582 -0.5062
 1250SOL    HW1 4822   3.080   4.627   5.074 -0.0794 -0.4080  0.3466
 1250SOL    HW2 4823   3.053   4.775   5.052 -1.6768 -0.8593 -0.8830
 1251SOL     OW 4824   1.875   5.812   6.007 -0.0734 -0.2995 -0.3762
 1251SOL    HW1 4825   1.881   5.770   5.921  0.5285 -1.6489  0.3017
 1251SOL    HW2 4826   1.920   5.896   5.996  1.3404 -1.1068 -0.9962
 1252SOL     OW 4827   5.297   1.567   3.065  0.2342  0.1389 -0.1136
 1252SOL    HW1 4828   5.255   1.535   2.985 -1.1986 -0.2008  0.7485
 1252SOL    HW2 4829   5.227   1.610   3.114  0.3284 -2.1673  2.2945
 1253SOL     OW 4830   3.487   2.876   2.395 -0.0164 -0.3289 -0.1767
 1253SOL    HW1 4831   3.473   2.897   2.487  0.7972 -0.0711 -0.1026
 1253SOL    HW2 4832   3.474   2.960   2.350 -2.2018 -0.7892 -0.5343
 1254SOL     OW 4833   3.637   2.681   0.171 -0.4798 -0.0252 -0.7364
 1254SOL    HW1 4834   3.732   2.692   0.171 -0.0845 -2.6880 -0.9731
 1254SOL    HW2 4835   3.611   2.691   0.080 -0.3951  0.3917 -0.7165
 1255SOL     OW 4836   5.612   1.491   5.256  0.2507  0.0260 -0.3324
 1255SOL    HW1 4837   5.532   1.439   5.269  0.2206  0.5368  2.0117
 1255SOL    HW2 4838   5.582   1.570   5.211 -0.1837 -0.7283 -1.3968
 1256SOL     OW 4839   7.093   5.438   1.887  0.2366  0.0286  0.2464
 1256SOL    HW1 4840   7.081   5.367   1.824  0.6960  0.4001 -0.2647
 1256SOL    HW2 4841   7.155   5.497   1.845 -1.3761  1.5907 -0.0730
 1257SOL     OW 4842   6.351   7.204   4.698 -0.4377 -0.2835 -0.0060
 1257SOL    HW1 4843   6.344   7.298   4.680  0.7061 -0.3023 -0.6452
 1257SOL    HW2 4844   6.318   7.162   4.619 -2.2410 -0.4701  0.7900
 1258SOL     OW 4845   7.914   6.548   0.055  0.5622  0.2375  0.3511
 1258SOL    HW1 4846   7.966   6.468   0.053  2.4896  1.4276  0.6150
 1258SOL    HW2 4847   7.932   6.592  -0.028 -1.7784 -0.3285 -0.5289
 1259SOL     OW 4848   1.414   7.129   0.973 -0.6658  0.0460  0.2812
 1259SOL    HW1 4849   1.391   7.199   1.034  1.0446  0.8601  0.0669
 1259SOL    HW2 4850   1.398   7.166   0.886 -0.2932 -0.0147  0.1821
 1260SOL     OW 4851   5.613   3.395   0.947 -0.0681  0.0579 -0.0866
 1260SOL    HW1 4852   5.572   3.480   0.964  2.9837  1.3113  1.8469
 1260SOL    HW2 4853   5.616   3.352   1.032  2.1980 -0.0913 -0.1774
 1261SOL     OW 4854   8.081   5.639   6.750  0.3497 -0.4346  0.6238
 1261SOL    HW1 4855   8.114   5.638   6.660 -1.9603  0.9549 -0.3459
 1261SOL    HW2 4856   8.069   5.547   6.772  2.8732 -0.9010  0.3367
 1262SOL     OW 4857   1.966   4.597   0.211  0.0390 -0.1587 -0.2871
 1262SOL    HW1 4858   1.995   4.512   0.177  0.8620 -0.9170  2.0961
 1262SOL    HW2 4859   1.942   4.579   0.302  1.4577  2.3859  0.6914
 1263SOL     OW 4860   0.529   4.877   4.259  0.1414  0.6160  0.2640
 1263SOL    HW1 4861   0.577   4.832   4.189 -0.4766 -2.5251  1.6570
 1263SOL    HW2 4862   0.592   4.880   4.332 -1.4853 -3.8522  2.2283
 1264SOL     OW 4863   5.519   5.403   5.256  0.1633 -0.3472  0.1785
 1264SOL    HW1 4864   5.447   5.443   5.207  0.7373  0.9046  0.3048
 1264SOL    HW2 4865   5.478   5.365   5.333 -0.7384 -2.2181 -1.1441
 1265SOL     OW 4866   3.709   8.041   4.266  0.2442 -0.3442  0.3709
 1265SOL    HW1 4867   3.616   8.022   4.252  0.2782  0.4243 -1.1619
 1265SOL    HW2 4868   3.735   8.088   4.187  1.6621  0.4761  1.2918
 1266SOL     OW 4869   3.947   0.748   1.802  0.4871  0.5317  0.6489
 1266SOL    HW1 4870   3.939   0.673   1.862 -0.1202 -0.1195 -0.2186
 1266SOL    HW2 4871   4.005   0.809   1.848 -0.1399  0.1586  2.0032
 1267SOL     OW 4872   0.395   7.912   0.931 -0.1251 -0.3270 -0.1898
 1267SOL    HW1 4873   0.454   7.880   0.999  0.1049 -0.8656 -0.6275
 1267SOL    HW2 4874   0.326   7.846   0.926 -1.2558  0.7367  0.9168
 1268SOL     OW 4875   0.714   1.286   7.715 -0.1485  0.0434 -1.0153
 1268SOL    HW1 4876   0.688   1.358   7.772 -0.8980  0.3095 -1.6626
 1268SOL    HW2 4877   0.631   1.244   7.690  0.2442 -0.7262 -1.0558
 1269SOL     OW 4878   4.131   6.518   0.641  0.5429 -0.2588 -0.6472
 1269SOL    HW1 4879   4.174   6.602   0.624  0.3885 -0.5132 -2.5509
 1269SOL    HW2 4880   4.188   6.453   0.600 -1.2628 -0.6628 -2.6918
 1270SOL     OW 4881   7.787   6.179   7.497  0.2814 -0.0142 -0.3579
 1270SOL    HW1 4882   7.853   6.223   7.443  0.3472 -2.0785 -2.1243
 1270SOL    HW2 4883   7.724   6.144   7.434 -0.3392 -1.4638  0.9979
 1271SOL     OW 4884   0.020   3.425   2.804 -0.4873  0.4112  0.1552
 1271SOL    HW1 4885  -0.013   3.389   2.886 -0.4370  0.6182  0.2663
 1271SOL    HW2 4886   0.099   3.473   2.829  1.0600 -1.6892 -0.3528
 1272SOL     OW 4887   0.203   4.610   3.363 -0.3829  0.2194 -0.3097
 1272SOL    HW1 4888   0.221   4.657   3.282  1.5469  0.2628  0.0907
 1272SOL    HW2 4889   0.107   4.610   3.371 -0.6523 -0.2672 -2.8330
 1273SOL     OW 4890   6.430   5.865   2.440  0.3956 -0.3166 -0.2382
 1273SOL    HW1 4891   6.509   5.850   2.387  0.2347 -0.9175 -0.3159
 1273SOL    HW2 4892   6.463   5.907   2.520  0.4299  2.5684 -1.6370
 1274SOL     OW 4893   3.865   2.178   5.332  0.6575 -0.1011  0.1760
 1274SOL    HW1 4894   3.863   2.207   5.241  1.4052  0.2744  0.2658
 1274SOL    HW2 4895   3.895   2.255   5.381  0.0090 -0.2219  0.7714
 1275SOL     OW 4896   7.386   0.398   3.174 -0.3522 -0.5487 -0.0466
 1275SOL    HW1 4897   7.340   0.374   3.094 -0.0996  1.9277 -1.0331
 1275SOL    HW2 4898   7.477   0.372   3.160 -0.6034 -1.5345  0.1102
 1276SOL     OW 4899   1.162   2.516   6.776 -0.3903 -0.3927  0.8531
 1276SOL    HW1 4900   1.184   2.592   6.830 -0.2331 -1.8333  2.9542
 1276SOL    HW2 4901   1.246   2.475   6.757 -0.5831 -1.0992  1.4435
 1277SOL     OW 4902   7.411   0.571   3.855 -0.9931 -0.2075 -0.1948
 1277SOL    HW1 4903   7.442   0.627   3.927  0.7512 -0.0628 -1.0029
 1277SOL    HW2 4904   7.396   0.630   3.782 -1.2081 -0.5487 -0.4327
 1278SOL     OW 4905   4.082   1.796   3.064 -0.1421  0.4090  0.1460
 1278SOL    HW1 4906   4.115   1.809   3.153  0.0476  0.3434  0.0835
 1278SOL    HW2 4907   4.160   1.794   3.009 -0.2226 -0.0783  0.0408
 1279SOL     OW 4908   2.029   0.900   1.806  0.3293  0.3269 -0.2877
 1279SOL    HW1 4909   1.996   0.980   1.764 -0.1492  0.6443  0.6552
 1279SOL    HW2 4910   2.115   0.886   1.766  1.0896  2.1696  0.5615
 1280SOL     OW 4911   1.552   6.466   0.020 -0.0417 -0.2226 -0.6628
 1280SOL    HW1 4912   1.479   6.408   0.040 -0.9321  0.8310 -0.7140
 1280SOL    HW2 4913   1.517   6.525  -0.047  0.2693  1.3998  0.5279
 1281SOL     OW 4914   0.075   3.243   1.316 -0.1498 -1.2133  0.2108
 1281SOL    HW1 4915   0.018   3.281   1.384  1.8272  3.0371 -0.2320
 1281SOL    HW2 4916   0.046   3.284   1.235  1.6080 -1.2644 -0.4724
 1282SOL     OW 4917   0.959   7.715   3.978 -0.1075 -0.3124  0.0794
 1282SOL    HW1 4918   1.022   7.644   3.994  1.7963  1.1592 -0.5042
 1282SOL    HW2 4919   0.987   7.752   3.894 -2.3694 -0.1836 -0.6664
 1283SOL     OW 4920   5.118   7.299   1.531 -0.3176 -0.6075 -0.5117
 1283SOL    HW1 4921   5.117   7.316   1.625  0.5680 -0.1569 -0.5727
 1283SOL    HW2 4922   5.110   7.385   1.490 -1.0242 -0.8306 -0.8597
 1284SOL     OW 4923   2.382   6.744   3.966  0.1959 -0.2911 -0.3188
 1284SOL    HW1 4924   2.462   6.792   3.989  0.3503 -0.1713 -1.0627
 1284SOL    HW2 4925   2.361   6.774   3.877 -0.6590 -0.3464 -0.1445
 1285SOL     OW 4926   1.404   0.198   6.023 -0.0279  0.0765  0.3978
 1285SOL    HW1 4927   1.440   0.224   6.108  1.4222  0.7863 -0.3894
 1285SOL    HW2 4928   1.409   0.102   6.022  3.2652  0.1394 -0.1789
 1286SOL     OW 4929   5.962   4.148   4.305  0.1483 -0.6815 -0.8289
 1286SOL    HW1 4930   5.890   4.188   4.353  0.4190  2.0195 -2.4598
 1286SOL    HW2 4931   6.016   4.106   4.373 -1.6920 -0.7859  0.6553
 1287SOL     OW 4932   3.053   6.416   5.103 -0.3353  0.5079  0.1348
 1287SOL    HW1 4933   2.986   6.391   5.166 -0.7684  1.7686  0.1993
 1287SOL    HW2 4934   3.034   6.362   5.026 -0.3302 -0.4096  0.7544
 1288SOL     OW 4935   7.463   3.156   1.756  0.0217 -0.0642  0.1074
 1288SOL    HW1 4936   7.492   3.163   1.847  2.3959  0.7201 -0.6512
 1288SOL    HW2 4937   7.533   3.109   1.711 -0.7993  0.1413 -1.4623
 1289SOL     OW 4938   1.122   3.127   5.532 -0.1156  0.0414  0.5499
 1289SOL    HW1 4939   1.111   3.032   5.518  0.1137  0.0891  0.0106
 1289SOL    HW2 4940   1.128   3.137   5.627 -0.3788 -0.4600  0.6245
 1290SOL     OW 4941   3.148   4.819   2.171  0.3214  0.0109 -0.0673
 1290SOL    HW1 4942   3.086   4.790   2.237  1.3999 -0.7334  0.6645
 1290SOL    HW2 4943   3.234   4.808   2.213  0.9318  1.2952 -0.9276
 1291SOL     OW 4944   6.576   2.688   0.337  0.0120  0.4874  0.4819
 1291SOL    HW1 4945   6.551   2.670   0.428 -1.2181  0.7670  0.2240
 1291SOL    HW2 4946   6.639   2.619   0.315 -1.5672 -1.1350  0.7752
 1292SOL     OW 4947   4.059   6.488   0.976  1.1761 -0.1489  0.1544
 1292SOL    HW1 4948   4.047   6.560   0.915  1.9698 -0.5282 -0.4682
 1292SOL    HW2 4949   4.049   6.527   1.062 -0.2594  0.3456 -0.2089
 1293SOL     OW 4950   4.525   5.243   7.185 -0.6409 -0.3716  0.0128
 1293SOL    HW1 4951   4.451   5.189   7.159  0.0604 -0.6348 -1.5044
 1293SOL    HW2 4952   4.579   5.185   7.240 -1.1780 -0.4092  0.5014
 1294SOL     OW 4953   7.699   6.733   5.574 -0.2450  0.3832 -0.2999
 1294SOL    HW1 4954   7.778   6.738   5.628  1.0981 -1.3836 -1.9372
 1294SOL    HW2 4955   7.710   6.802   5.508  0.0149  0.0815 -0.5806
 1295SOL     OW 4956   4.227   0.189   5.913  0.3359 -0.2434 -0.0533
 1295SOL    HW1 4957   4.225   0.242   5.992  0.9183 -0.9780  0.4746
 1295SOL    HW2 4958   4.138   0.154   5.905  0.1832  0.1124  0.0732
 1296SOL     OW 4959   0.712   1.081   6.480  0.3387 -0.0564 -0.1258
 1296SOL    HW1 4960   0.629   1.074   6.527  1.0444 -0.0612  1.1625
 1296SOL    HW2 4961   0.752   1.161   6.513  0.9402 -0.1487 -0.5987
 1297SOL     OW 4962   0.817   2.326   2.492 -0.5738 -0.1468  0.5105
 1297SOL    HW1 4963   0.726   2.355   2.482 -0.8136 -1.2184 -0.6173
 1297SOL    HW2 4964   0.812   2.254   2.555 -0.1623  1.2591  2.2350
 1298SOL     OW 4965   0.818   6.450   4.243  0.2202 -0.8820  0.2037
 1298SOL    HW1 4966   0.816   6.467   4.337 -0.6581  0.7031 -0.0506
 1298SOL    HW2 4967   0.742   6.393   4.227 -0.2782 -0.2678  0.3319
 1299SOL     OW 4968   0.722   7.416   0.559  0.2205  0.4758  0.3753
 1299SOL    HW1 4969   0.809   7.380   0.542 -0.4038  0.0279 -2.3139
 1299SOL    HW2 4970   0.736   7.480   0.628  2.5477 -0.1095  0.5306
 1300SOL     OW 4971   3.979   5.022   4.910  0.1266  0.3794 -0.1163
 1300SOL    HW1 4972   4.031   4.995   4.835 -0.7549  0.1630 -0.6669
 1300SOL    HW2 4973   3.888   5.020   4.878 -0.2622  0.2346  0.9644
 1301SOL     OW 4974   7.909   4.797   7.481  0.4678 -0.4316  0.1059
 1301SOL    HW1 4975   7.859   4.877   7.465 -0.1438 -1.1312 -1.8320
 1301SOL    HW2 4976   8.000   4.827   7.486  0.1215  0.5385  0.8679
 1302SOL     OW 4977   6.464   2.475   1.067  0.0529  0.0134 -0.0668
 1302SOL    HW1 4978   6.541   2.516   1.026 -0.1754  0.1321 -0.3838
 1302SOL    HW2 4979   6.497   2.394   1.105  0.9436  1.3855  2.3153
 1303SOL     OW 4980   3.457   7.787   4.124 -0.4969  0.3325  0.1267
 1303SOL    HW1 4981   3.402   7.757   4.196  0.1882 -1.9321 -0.1926
 1303SOL    HW2 4982   3.541   7.742   4.138  0.7369  2.3636 -0.3293
 1304SOL     OW 4983   2.337   3.829   0.080  0.2476 -0.3343  0.3495
 1304SOL    HW1 4984   2.315   3.740   0.055  0.5444 -0.8905  1.9507
 1304SOL    HW2 4985   2.417   3.821   0.132 -0.1919  0.7435  1.2528
 1305SOL     OW 4986   4.274   0.684   5.631  0.6304 -0.3226 -0.0078
 1305SOL    HW1 4987   4.347   0.695   5.569  0.7410 -1.4377 -0.0957
 1305SOL    HW2 4988   4.264   0.590   5.639 -1.1448 -0.2043 -0.3922
 1306SOL     OW 4989   5.010   5.936   8.046  0.1756  0.1409 -0.0669
 1306SOL    HW1 4990   4.990   6.029   8.035  0.5624  0.2283 -0.0274
 1306SOL    HW2 4991   4.971   5.895   7.969 -1.5349  0.0972  0.7716
 1307SOL     OW 4992   0.487   2.856   4.384 -0.0838  0.5094 -0.1487
 1307SOL    HW1 4993   0.481   2.762   4.369  1.4811  0.4293 -0.4050
 1307SOL    HW2 4994   0.580   2.877   4.373 -0.5758  2.2974 -1.2974
 1308SOL     OW 4995   1.307   1.788   5.711 -0.2602  0.5272  0.3349
 1308SOL    HW1 4996   1.312   1.726   5.639  0.5709 -0.9801  1.6299
 1308SOL    HW2 4997   1.384   1.768   5.765 -0.6214  1.8994  1.4136
 1309SOL     OW 4998   4.306   0.467   7.133  0.0481  0.5427  0.3189
 1309SOL    HW1 4999   4.242   0.396   7.127 -0.4538  0.8461  1.7537
 1309SOL    HW2 5000   4.321   0.478   7.227  2.4010  0.3244  0.0235
 1310SOL     OW 5001   0.162   3.039   0.500 -0.1765 -0.0228  0.2897
 1310SOL    HW1 5002   0.163   3.095   0.423 -1.1339  1.1886  1.1171
 1310SOL    HW2 5003   0.210   2.960   0.473 -2.6062 -0.7465 -2.3278
 1311SOL     OW 5004   6.829   3.173   1.354 -0.1960 -0.0317  0.0829
 1311SOL    HW1 5005   6.873   3.149   1.272  0.1262  2.3381 -0.5133
 1311SOL    HW2 5006   6.897   3.161   1.421  0.9142  1.9363 -0.6013
 1312SOL     OW 5007   1.105   7.211   5.697  0.4500  0.1235 -0.1035
 1312SOL    HW1 5008   1.053   7.253   5.628  1.0173  0.0501 -0.5845
 1312SOL    HW2 5009   1.119   7.122   5.665 -0.1885 -0.2397  0.6070
 1313SOL     OW 5010   2.888   8.135   6.545 -0.1266  0.3314 -0.2282
 1313SOL    HW1 5011   2.941   8.166   6.619  0.8711 -0.2103 -0.6919
 1313SOL    HW2 5012   2.888   8.040   6.555 -0.2315  0.2790 -0.7553
 1314SOL     OW 5013   1.951   1.288   6.166  0.1879  0.2821 -0.4429
 1314SOL    HW1 5014   1.946   1.338   6.247  1.0628  1.0856 -0.8654
 1314SOL    HW2 5015   1.867   1.241   6.161 -0.6360  1.6429  0.0182
 1315SOL     OW 5016   6.927   5.149   2.164  0.2896  0.1044 -0.1693
 1315SOL    HW1 5017   7.007   5.189   2.198 -0.2922  0.3854  0.9366
 1315SOL    HW2 5018   6.949   5.056   2.155  0.9326  0.2847 -0.4890
 1316SOL     OW 5019   2.183   7.160   0.483  0.5323 -0.0145 -0.2114
 1316SOL    HW1 5020   2.199   7.069   0.506 -0.3325 -0.1721 -0.2224
 1316SOL    HW2 5021   2.241   7.177   0.409 -0.2942 -0.9642 -1.1094
 1317SOL     OW 5022   4.796   6.914   2.222  0.5793  0.2244  0.2966
 1317SOL    HW1 5023   4.805   6.887   2.313  0.2055 -1.5479 -0.1456
 1317SOL    HW2 5024   4.704   6.942   2.214  0.1361 -1.1868  0.1221
 1318SOL     OW 5025   6.785   7.852   6.122  0.2946  0.1979 -0.0273
 1318SOL    HW1 5026   6.693   7.874   6.139  0.0682  1.0532 -2.1020
 1318SOL    HW2 5027   6.807   7.902   6.043  1.6167 -2.4177 -1.4235
 1319SOL     OW 5028   2.155   4.881   3.928 -0.5258  0.2296  0.2551
 1319SOL    HW1 5029   2.217   4.938   3.975 -0.1850 -0.3737  0.5509
 1319SOL    HW2 5030   2.077   4.880   3.983 -0.7473  0.8690 -0.0403
 1320SOL     OW 5031   3.671   3.611   7.827  0.1506 -0.0688 -0.1007
 1320SOL    HW1 5032   3.633   3.679   7.771  0.0845 -0.1026 -0.0966
 1320SOL    HW2 5033   3.718   3.554   7.767  1.0567  0.5515  0.0088
 1321SOL     OW 5034   2.415   6.240   0.039 -0.1175 -0.2318 -0.0969
 1321SOL    HW1 5035   2.440   6.152   0.011 -0.2811 -0.5543  0.7191
 1321SOL    HW2 5036   2.423   6.237   0.135 -0.3868  0.5564 -0.0435
 1322SOL     OW 5037   1.777   1.349   0.197  0.2660  0.5123 -0.3021
 1322SOL    HW1 5038   1.727   1.332   0.277 -0.1721  1.4248 -0.3740
 1322SOL    HW2 5039   1.717   1.399   0.142  1.3839  1.9948 -0.2195
 1323SOL     OW 5040   2.385   2.825   4.283  0.1365 -0.2518  0.4159
 1323SOL    HW1 5041   2.365   2.882   4.357 -0.0668 -0.9367  0.8999
 1323SOL    HW2 5042   2.301   2.787   4.258  0.0499  0.6583 -0.7649
 1324SOL     OW 5043   6.476   7.701   1.211 -0.4959  0.3559  0.3024
 1324SOL    HW1 5044   6.526   7.777   1.242 -1.1192  1.5496 -1.4349
 1324SOL    HW2 5045   6.429   7.734   1.134 -0.6422 -1.8639 -0.6244
 1325SOL     OW 5046   1.956   1.646   6.481 -0.4175  0.1744 -0.1881
 1325SOL    HW1 5047   1.953   1.649   6.385 -2.6846  0.7078 -0.1628
 1325SOL    HW2 5048   1.999   1.727   6.506 -0.5006  0.4031 -0.7633
 1326SOL     OW 5049   2.895   7.830   6.852 -0.0762  0.1047  0.3381
 1326SOL    HW1 5050   2.872   7.877   6.772 -0.1592 -0.4758  0.0179
 1326SOL    HW2 5051   2.827   7.853   6.914 -0.1429  0.3703  0.1673
 1327SOL     OW 5052   0.653   4.350   0.649  0.2465 -0.2054  0.3444
 1327SOL    HW1 5053   0.683   4.278   0.704  1.5020 -0.1758 -0.2517
 1327SOL    HW2 5054   0.731   4.404   0.637  0.1541 -0.4551 -1.8300
 1328SOL     OW 5055   2.869   4.793   2.616  0.1861 -0.0503 -0.8544
 1328SOL    HW1 5056   2.905   4.715   2.658 -0.4409  0.3676  0.5159
 1328SOL    HW2 5057   2.794   4.817   2.670 -0.1261  1.0334 -1.7262
 1329SOL     OW 5058   5.878   4.776   5.511 -0.4501  0.5347 -0.4693
 1329SOL    HW1 5059   5.950   4.716   5.535  0.2937  1.7269  0.3906
 1329SOL    HW2 5060   5.883   4.781   5.416 -0.3145 -0.5018 -0.5358
 1330SOL     OW 5061   3.643   7.825   5.045 -0.0326  0.0746  0.1564
 1330SOL    HW1 5062   3.584   7.824   5.120 -1.9127  0.4998 -1.2200
 1330SOL    HW2 5063   3.650   7.918   5.021 -0.6606 -0.1552 -1.0271
 1331SOL     OW 5064   6.680   5.585   4.367 -0.3202  0.4569 -0.7212
 1331SOL    HW1 5065   6.731   5.508   4.342  0.6268  0.7421  0.2465
 1331SOL    HW2 5066   6.595   5.550   4.394  0.6306 -0.4563  1.2749
 1332SOL     OW 5067   7.009   7.046   7.170 -0.1511  0.0240 -0.4385
 1332SOL    HW1 5068   7.043   6.968   7.125  0.1021 -0.5503  0.6951
 1332SOL    HW2 5069   7.088   7.091   7.201 -0.3404  0.1042 -0.0743
 1333SOL     OW 5070   8.070   1.246   6.117  0.1957 -0.1389 -0.0431
 1333SOL    HW1 5071   8.120   1.291   6.049 -0.6839  0.3725 -0.3740
 1333SOL    HW2 5072   8.100   1.286   6.199  0.0407  0.4545 -0.2686
 1334SOL     OW 5073   3.983   2.305   0.850  0.7101  0.1377  0.2283
 1334SOL    HW1 5074   3.989   2.301   0.755  0.3006 -0.6823  0.2254
 1334SOL    HW2 5075   3.889   2.318   0.867  0.5804 -1.0920  0.5372
 1335SOL     OW 5076   0.617   2.865   2.442  0.0553  0.2640 -0.6913
 1335SOL    HW1 5077   0.586   2.790   2.492  0.5927  0.7226  0.3682
 1335SOL    HW2 5078   0.711   2.849   2.432 -0.0418  0.1909 -1.5525
 1336SOL     OW 5079   5.271   3.468   6.832 -0.3285 -0.3880  0.3691
 1336SOL    HW1 5080   5.205   3.511   6.887  0.0014  0.6845 -0.0468
 1336SOL    HW2 5081   5.250   3.497   6.743  1.4226  0.9758  0.3573
 1337SOL     OW 5082   4.276   8.028   3.616 -0.0848  0.8887  0.6251
 1337SOL    HW1 5083   4.348   7.986   3.664  0.7800  2.2674  0.5906
 1337SOL    HW2 5084   4.197   7.988   3.651  0.7044 -2.2460 -0.8122
 1338SOL     OW 5085   4.156   4.691   4.293  0.0381 -0.0568 -0.5247
 1338SOL    HW1 5086   4.243   4.657   4.274  0.6543  1.6038 -0.9289
 1338SOL    HW2 5087   4.125   4.725   4.209 -1.7042 -2.0398 -0.7397
 1339SOL     OW 5088   5.035   1.727   3.905 -0.1161 -0.2159 -0.1327
 1339SOL    HW1 5089   5.094   1.670   3.855 -0.5006 -0.5549 -0.2132
 1339SOL    HW2 5090   5.076   1.734   3.991 -0.1065 -0.6996 -0.0908
 1340SOL     OW 5091   1.072   3.830   3.959 -0.0742  0.4383 -0.0269
 1340SOL    HW1 5092   1.033   3.744   3.946  1.9493 -0.5004 -0.2092
 1340SOL    HW2 5093   1.055   3.876   3.877 -1.0802  0.2041  0.0342
 1341SOL     OW 5094   2.828   7.303   4.569 -0.3065 -0.3117  0.4765
 1341SOL    HW1 5095   2.797   7.213   4.559 -1.5401  0.2403 -1.1767
 1341SOL    HW2 5096   2.754   7.350   4.608  0.7061 -0.1865  2.3571
 1342SOL     OW 5097   7.210   1.009   5.157 -0.0267  0.2439  0.3749
 1342SOL    HW1 5098   7.157   1.089   5.162 -0.3359  0.1370 -0.8701
 1342SOL    HW2 5099   7.267   1.023   5.081 -0.0224 -0.6829  0.1934
 1343SOL     OW 5100   6.234   5.312   5.098  0.1548  0.1462  0.0269
 1343SOL    HW1 5101   6.141   5.295   5.114  0.3470  0.0742  1.1530
 1343SOL    HW2 5102   6.279   5.249   5.154  0.9565 -2.5307 -3.2826
 1344SOL     OW 5103   7.611   2.102   6.483  0.6966  0.5346  0.0650
 1344SOL    HW1 5104   7.516   2.088   6.477  0.8263 -0.7930  0.6827
 1344SOL    HW2 5105   7.622   2.196   6.470 -0.6136  0.5819 -0.9867
 1345SOL     OW 5106   3.422   7.488   4.817  0.1045 -0.2828 -0.0654
 1345SOL    HW1 5107   3.446   7.440   4.737 -0.2019 -0.1013 -0.2721
 1345SOL    HW2 5108   3.335   7.523   4.797  0.3722  0.4456  0.0466
 1346SOL     OW 5109   1.603   3.304   1.367 -0.6560  0.5245 -0.2423
 1346SOL    HW1 5110   1.543   3.329   1.437 -1.3150  1.0518 -0.9612
 1346SOL    HW2 5111   1.551   3.316   1.287 -0.3564 -1.2709 -0.7612
 1347SOL     OW 5112   0.031   7.194   0.249 -0.8239  0.3617 -0.2586
 1347SOL    HW1 5113   0.124   7.207   0.265 -0.2446 -1.6961 -1.6235
 1347SOL    HW2 5114  -0.005   7.174   0.336 -0.1463  1.6424  0.3584
 1348SOL     OW 5115   4.525   6.132   4.003 -0.3055  0.5284  0.1320
 1348SOL    HW1 5116   4.544   6.094   3.917  0.0015  0.4574  0.2311
 1348SOL    HW2 5117   4.561   6.220   3.999 -0.4180  0.5752  0.1396
 1349SOL     OW 5118   2.608   2.547   4.786 -0.0692  0.3494 -0.4879
 1349SOL    HW1 5119   2.560   2.479   4.833  0.5322  0.3431  0.1232
 1349SOL    HW2 5120   2.666   2.499   4.727 -0.7357  0.3572 -1.1782
 1350SOL     OW 5121   2.838   6.657   1.284 -0.2593 -0.0663 -0.3704
 1350SOL    HW1 5122   2.772   6.715   1.246 -1.4389  0.6731  2.5884
 1350SOL    HW2 5123   2.793   6.573   1.292 -0.2421 -0.0429 -0.0240
 1351SOL     OW 5124   1.072   0.701   6.786 -0.2193  0.0027  0.4307
 1351SOL    HW1 5125   1.101   0.741   6.868  0.3198  1.3246 -0.3680
 1351SOL    HW2 5126   1.134   0.734   6.721 -0.4055 -1.3358 -0.4455
 1352SOL     OW 5127   0.019   4.062   7.806 -0.1464 -0.1392  0.0844
 1352SOL    HW1 5128   0.113   4.066   7.790 -0.1720  1.3534  0.1051
 1352SOL    HW2 5129  -0.018   4.024   7.726  0.4091  0.0467 -0.2663
 1353SOL     OW 5130   0.629   4.259   0.063  0.0441 -0.1977  0.1991
 1353SOL    HW1 5131   0.699   4.218   0.113  0.6706 -1.6648 -1.7337
 1353SOL    HW2 5132   0.579   4.186   0.026 -0.5277  0.7850 -1.0740
 1354SOL     OW 5133   3.736   2.598   6.616 -0.0730 -0.1830 -0.2563
 1354SOL    HW1 5134   3.741   2.648   6.698 -0.6053  0.0105 -0.3334
 1354SOL    HW2 5135   3.705   2.512   6.642 -1.6441  0.3065 -0.3961
 1355SOL     OW 5136   2.239   6.720   6.691 -0.5189 -0.3493 -0.7083
 1355SOL    HW1 5137   2.179   6.708   6.617 -1.1076  1.5953 -0.6159
 1355SOL    HW2 5138   2.182   6.751   6.762  0.3954  0.2556 -0.2187
 1356SOL     OW 5139   3.926   0.893   2.686  0.1134  0.3261  0.1179
 1356SOL    HW1 5140   3.991   0.963   2.686 -0.0074  0.4425 -0.2399
 1356SOL    HW2 5141   3.913   0.873   2.593  1.9940 -1.8778  0.2194
 1357SOL     OW 5142   4.837   7.325   5.666  0.4739  0.2963  0.1248
 1357SOL    HW1 5143   4.886   7.243   5.656 -0.6074 -0.2965 -0.5246
 1357SOL    HW2 5144   4.751   7.306   5.629  0.5947  2.1059 -1.2320
 1358SOL     OW 5145   0.260   0.963   5.972 -0.3983 -0.1077  0.1532
 1358SOL    HW1 5146   0.200   0.972   6.046 -0.4523  3.3099 -0.1250
 1358SOL    HW2 5147   0.310   0.883   5.991 -1.7171 -0.4184  2.8537
 1359SOL     OW 5148   6.343   6.812   1.311  0.1602  0.2442  0.1368
 1359SOL    HW1 5149   6.399   6.861   1.371 -1.6090  0.4368  1.7301
 1359SOL    HW2 5150   6.258   6.807   1.356 -0.5713 -1.6735 -1.3203
 1360SOL     OW 5151   3.779   6.542   3.897  0.1452 -0.4337 -0.3985
 1360SOL    HW1 5152   3.722   6.607   3.856 -0.8544 -2.0298 -1.6720
 1360SOL    HW2 5153   3.818   6.494   3.823  0.9481 -1.2023  0.4903
 1361SOL     OW 5154   3.926   8.061   2.188 -0.1219 -0.1792  0.0076
 1361SOL    HW1 5155   4.017   8.090   2.176  0.0668 -0.6787  0.2236
 1361SOL    HW2 5156   3.895   8.113   2.263 -0.6812  1.4956 -1.3151
 1362SOL     OW 5157   4.801   1.429   6.563 -0.7220  0.2483 -0.2325
 1362SOL    HW1 5158   4.874   1.442   6.503 -1.1068  0.4320 -0.6644
 1362SOL    HW2 5159   4.756   1.514   6.565 -1.2445 -0.0180 -0.3970
 1363SOL     OW 5160   1.471   4.617   5.567 -0.7234  0.1915  0.0923
 1363SOL    HW1 5161   1.450   4.568   5.488  1.2729 -1.5130  0.4976
 1363SOL    HW2 5162   1.413   4.579   5.634 -0.8018  0.0060 -0.0783
 1364SOL     OW 5163   1.260   0.669   6.548 -0.2149  0.4492  0.1966
 1364SOL    HW1 5164   1.227   0.714   6.471 -0.2950 -2.8569 -1.9067
 1364SOL    HW2 5165   1.354   0.688   6.549 -0.4237  1.5519  0.0874
 1365SOL     OW 5166   7.189   1.576   2.813  0.1335  1.3757  0.4990
 1365SOL    HW1 5167   7.228   1.514   2.874 -2.6179 -0.5582  0.4574
 1365SOL    HW2 5168   7.230   1.557   2.729  0.1097  0.3170  0.7126
 1366SOL     OW 5169   3.065   0.395   1.095  0.2047  0.7537  0.3168
 1366SOL    HW1 5170   3.098   0.466   1.149  0.5684 -0.7822  2.2523
 1366SOL    HW2 5171   3.141   0.363   1.047  0.6437  0.0305  1.4478
 1367SOL     OW 5172   6.116   1.090   2.589  0.1896 -0.1939 -0.4246
 1367SOL    HW1 5173   6.083   1.088   2.679  0.7234 -0.5233 -0.2280
 1367SOL    HW2 5174   6.043   1.121   2.536  0.1098  0.7361  0.2234
 1368SOL     OW 5175   8.113   2.724   3.870 -0.5424  0.0932  0.0181
 1368SOL    HW1 5176   8.069   2.769   3.943  0.6913 -0.7218  1.3080
 1368SOL    HW2 5177   8.047   2.664   3.835 -0.5702 -0.9890  1.8073
 1369SOL     OW 5178   1.483   3.125   6.068 -0.5508  0.0896  0.3980
 1369SOL    HW1 5179   1.414   3.067   6.035 -1.2126  1.2092 -0.2391
 1369SOL    HW2 5180   1.495   3.190   5.998  0.1065  0.7759  1.1343
 1370SOL     OW 5181   0.749   3.030   5.194  0.7296  0.1100 -0.3321
 1370SOL    HW1 5182   0.770   2.941   5.222  0.8626  0.0978 -0.4743
 1370SOL    HW2 5183   0.786   3.086   5.262 -2.1941 -0.0475  1.5844
 1371SOL     OW 5184   7.184   5.112   3.651  0.3356  0.7630 -0.0394
 1371SOL    HW1 5185   7.151   5.092   3.739 -0.6126 -1.1936 -0.7917
 1371SOL    HW2 5186   7.233   5.034   3.625 -1.2026  0.3994 -2.0563
 1372SOL     OW 5187   6.052   3.292   7.951  0.6680  0.5127  0.8624
 1372SOL    HW1 5188   5.964   3.302   7.914  1.4831 -0.1318 -1.4400
 1372SOL    HW2 5189   6.059   3.199   7.972  0.1880  0.8800  2.8861
 1373SOL     OW 5190   7.326   4.589   2.621  0.1848  0.1311 -0.5927
 1373SOL    HW1 5191   7.354   4.680   2.635  1.9246 -0.4677  0.0148
 1373SOL    HW2 5192   7.332   4.548   2.707  1.9504 -1.2136 -1.3013
 1374SOL     OW 5193   1.070   2.123   0.988 -0.7616  0.0001  0.0986
 1374SOL    HW1 5194   1.103   2.175   0.915 -1.1813 -0.5571 -0.4933
 1374SOL    HW2 5195   0.988   2.086   0.957 -1.1120  0.0201  0.9713
 1375SOL     OW 5196   4.481   0.055   7.116 -0.2749 -0.1345  0.1402
 1375SOL    HW1 5197   4.551   0.094   7.064 -1.1513 -1.9927 -2.6721
 1375SOL    HW2 5198   4.413   0.123   7.119  0.5116  0.6620  0.5056
 1376SOL     OW 5199   6.348   2.149   5.256 -0.3401  0.8339 -0.0914
 1376SOL    HW1 5200   6.268   2.108   5.288  0.5822 -0.4543  0.6852
 1376SOL    HW2 5201   6.390   2.185   5.335 -0.5167  2.1757 -0.5946
 1377SOL     OW 5202   8.157   4.660   3.833  0.0826 -0.2176 -0.3991
 1377SOL    HW1 5203   8.225   4.658   3.899  0.4511  0.6896 -0.7413
 1377SOL    HW2 5204   8.119   4.748   3.839  0.6606  0.1671 -1.9147
 1378SOL     OW 5205   7.245   1.706   5.360 -0.1278  0.5533  0.0621
 1378SOL    HW1 5206   7.227   1.632   5.302  1.7949 -0.5228  0.7416
 1378SOL    HW2 5207   7.205   1.682   5.443  0.1034  0.4716  0.1519
 1379SOL     OW 5208   1.148   3.289   3.947  0.0814 -0.4629 -0.0674
 1379SOL    HW1 5209   1.127   3.308   4.038 -1.3122  1.6236 -0.7458
 1379SOL    HW2 5210   1.243   3.278   3.946  0.0221 -1.5119  1.7606
 1380SOL     OW 5211   0.303   6.594   2.282  0.1821 -0.1450 -0.3268
 1380SOL    HW1 5212   0.231   6.548   2.238 -0.0685 -0.5186  0.4514
 1380SOL    HW2 5213   0.262   6.673   2.318  0.1288 -0.3914  0.1747
 1381SOL     OW 5214   3.298   1.888   6.384  1.4302  0.6170 -0.2525
 1381SOL    HW1 5215   3.318   1.808   6.433 -2.0120  0.8583  1.8396
 1381SOL    HW2 5216   3.297   1.957   6.450 -0.8839  1.3926 -1.0106
 1382SOL     OW 5217   2.934   4.552   2.752 -0.0879  0.5086 -0.2565
 1382SOL    HW1 5218   2.909   4.483   2.813  2.6490 -0.4193 -0.0648
 1382SOL    HW2 5219   2.928   4.511   2.665  0.7091  0.2640 -0.2057
 1383SOL     OW 5220   6.298   0.344   4.749  0.4094 -0.1788  0.1782
 1383SOL    HW1 5221   6.281   0.331   4.842  1.0921 -1.8906  0.1003
 1383SOL    HW2 5222   6.219   0.312   4.705  0.5365 -0.4400  0.1361
 1384SOL     OW 5223   4.376   0.454   4.495  0.6268 -0.1958 -0.3555
 1384SOL    HW1 5224   4.466   0.444   4.464  0.6224  0.1408 -0.4737
 1384SOL    HW2 5225   4.323   0.454   4.415  0.5062 -0.5306 -0.2792
 1385SOL     OW 5226   1.233   4.840   5.879 -0.1864 -0.0501 -0.5716
 1385SOL    HW1 5227   1.292   4.862   5.807 -2.7687 -0.3878 -2.9568
 1385SOL    HW2 5228   1.156   4.896   5.866 -1.4831 -1.3789  0.8573
 1386SOL     OW 5229   7.890   6.298   4.092 -0.3486  0.1309  0.1215
 1386SOL    HW1 5230   7.921   6.216   4.132 -0.1590 -1.2023 -2.5210
 1386SOL    HW2 5231   7.800   6.279   4.064 -0.1046  0.5867 -1.0412
 1387SOL     OW 5232   0.930   1.981   7.950 -0.3397  0.6544  0.1341
 1387SOL    HW1 5233   1.025   1.985   7.967 -0.4304 -0.5919  1.1329
 1387SOL    HW2 5234   0.905   2.071   7.931  1.0478  1.0081 -0.1421
 1388SOL     OW 5235   0.936   0.982   6.922 -0.3642 -0.6106 -0.0591
 1388SOL    HW1 5236   0.967   1.051   6.980 -0.7419 -2.2335  2.2143
 1388SOL    HW2 5237   0.844   1.003   6.906  0.3422  1.1909 -2.2369
 1389SOL     OW 5238   6.243   2.339   2.546 -0.2490 -0.0997 -0.0849
 1389SOL    HW1 5239   6.309   2.346   2.615  1.2065  1.1086 -1.4873
 1389SOL    HW2 5240   6.206   2.427   2.539 -1.6263 -0.6382  0.3026
 1390SOL     OW 5241   1.923   6.152   5.837  0.3940 -0.2445  0.7796
 1390SOL    HW1 5242   1.893   6.073   5.794  1.0183  0.1520 -0.4222
 1390SOL    HW2 5243   1.864   6.163   5.912 -1.4703 -0.3329 -0.6118
 1391SOL     OW 5244   6.601   5.445   3.294 -0.3578 -0.4129  0.1195
 1391SOL    HW1 5245   6.577   5.513   3.358 -0.0523 -0.0513 -0.1443
 1391SOL    HW2 5246   6.649   5.380   3.345 -1.5001 -0.9260  0.5699
 1392SOL     OW 5247   3.189   4.107   1.988 -0.0802 -0.0584  0.4077
 1392SOL    HW1 5248   3.184   4.023   2.034 -1.2231 -0.2899 -0.0831
 1392SOL    HW2 5249   3.263   4.097   1.928 -1.1620 -1.3549 -0.8021
 1393SOL     OW 5250   7.900   7.036   7.025 -0.4235 -0.4075 -0.1621
 1393SOL    HW1 5251   7.920   7.129   7.036 -1.5202 -0.1424 -0.2579
 1393SOL    HW2 5252   7.944   6.993   7.098 -0.1839  0.2332  0.0749
 1394SOL     OW 5253   0.945   7.477   1.526  0.3111 -0.2883 -0.2428
 1394SOL    HW1 5254   0.981   7.439   1.607  0.9959  0.3718 -0.2223
 1394SOL    HW2 5255   0.859   7.438   1.518 -0.1739  0.3454  1.3399
 1395SOL     OW 5256   8.041   5.619   7.230  0.5961 -0.2537  0.0593
 1395SOL    HW1 5257   8.124   5.652   7.263 -0.3889  0.3358  2.0722
 1395SOL    HW2 5258   8.021   5.677   7.156  1.5091  0.1930  0.1465
 1396SOL     OW 5259   3.527   4.089   2.244 -0.5571 -0.2403 -0.3389
 1396SOL    HW1 5260   3.491   4.003   2.219 -0.6288 -0.2690 -0.1416
 1396SOL    HW2 5261   3.542   4.134   2.161 -2.8117  0.4896 -0.4244
 1397SOL     OW 5262   5.603   1.673   7.185  0.2368 -1.0127  0.0841
 1397SOL    HW1 5263   5.687   1.630   7.170  0.1478 -0.7504 -1.2409
 1397SOL    HW2 5264   5.621   1.766   7.176 -0.0319 -0.9018  0.6467
 1398SOL     OW 5265   7.950   3.358   1.232  0.1932 -0.3562 -0.4094
 1398SOL    HW1 5266   7.922   3.270   1.259 -1.6688  0.0107 -1.0257
 1398SOL    HW2 5267   7.942   3.357   1.136 -0.2678  0.6116 -0.3892
 1399SOL     OW 5268   0.937   5.195   7.434 -0.0504  0.4246 -0.0158
 1399SOL    HW1 5269   0.920   5.160   7.522 -0.2709  1.2280  0.2691
 1399SOL    HW2 5270   0.906   5.126   7.375 -0.1258 -0.0220  0.5341
 1400SOL     OW 5271   6.149   7.106   4.908 -0.2266  0.2631  0.8757
 1400SOL    HW1 5272   6.222   7.089   4.849 -0.3299 -2.1660  1.3440
 1400SOL    HW2 5273   6.141   7.201   4.910  0.1526  0.4813 -2.5568
 1401SOL     OW 5274   0.954   6.824   0.504  0.3857 -0.0857 -0.2527
 1401SOL    HW1 5275   0.867   6.790   0.525 -0.5400  1.1596 -1.8265
 1401SOL    HW2 5276   1.000   6.750   0.465  0.1530 -0.8316  0.8484
 1402SOL     OW 5277   5.334   5.021   5.150 -0.3937  0.0343  0.0101
 1402SOL    HW1 5278   5.393   5.037   5.077 -1.7678  0.0526 -1.1406
 1402SOL    HW2 5279   5.342   4.927   5.168  0.7919  0.2377  0.6176
 1403SOL     OW 5280   5.738   1.130   2.313  0.2409  0.1020 -0.2391
 1403SOL    HW1 5281   5.787   1.052   2.336  0.1466 -0.4710 -1.8562
 1403SOL    HW2 5282   5.710   1.115   2.223  0.6320  2.1973 -0.7639
 1404SOL     OW 5283   7.780   7.561   2.315 -0.1458  0.2814  0.2061
 1404SOL    HW1 5284   7.818   7.585   2.399  0.4671  0.3403 -0.0865
 1404SOL    HW2 5285   7.794   7.466   2.308 -0.5563  0.2059  0.3449
 1405SOL     OW 5286   7.979   6.607   5.258  0.0758 -0.2518  0.1907
 1405SOL    HW1 5287   7.998   6.609   5.352 -0.7472  2.5221  0.3768
 1405SOL    HW2 5288   8.042   6.668   5.219 -0.9746  0.2720 -0.7494
 1406SOL     OW 5289   0.443   6.959   6.943 -0.0837  0.0734  0.2187
 1406SOL    HW1 5290   0.374   6.992   6.886  0.5329 -1.9835 -1.9386
 1406SOL    HW2 5291   0.506   6.919   6.882  0.8594 -1.8791  2.3235
 1407SOL     OW 5292   2.002   6.378   2.673 -0.5086  0.1490  0.5087
 1407SOL    HW1 5293   1.914   6.379   2.709  0.0622 -1.6660  2.0860
 1407SOL    HW2 5294   2.056   6.337   2.741  1.1477 -0.8210 -1.2884
 1408SOL     OW 5295   5.478   0.291   7.226 -0.4428 -0.5237  0.3661
 1408SOL    HW1 5296   5.555   0.325   7.272 -0.1198 -0.5142 -0.1842
 1408SOL    HW2 5297   5.458   0.357   7.160  0.3138 -1.4780 -0.8468
 1409SOL     OW 5298   3.784   2.644   8.023 -0.3251 -0.2658  0.3692
 1409SOL    HW1 5299   3.871   2.644   7.982 -1.0290  1.2406 -1.2470
 1409SOL    HW2 5300   3.746   2.560   7.997 -0.4634  0.3401 -1.5392
 1410SOL     OW 5301   3.899   6.734   7.491  0.2688  0.0366 -0.0335
 1410SOL    HW1 5302   3.955   6.713   7.416 -1.7917 -2.1711 -1.0812
 1410SOL    HW2 5303   3.810   6.722   7.458 -0.7360  0.1789  2.4605
 1411SOL     OW 5304   5.572   2.836   1.144 -0.1545  0.0053 -0.5300
 1411SOL    HW1 5305   5.540   2.899   1.209 -1.3288 -1.8739  0.8152
 1411SOL    HW2 5306   5.494   2.812   1.094 -0.1447 -1.7977  0.2669
 1412SOL     OW 5307   7.729   5.386   5.549  0.0540  0.2607  0.9521
 1412SOL    HW1 5308   7.774   5.461   5.589  1.0246 -0.9156  2.1965
 1412SOL    HW2 5309   7.743   5.315   5.611 -1.2478 -0.8458  0.0319
 1413SOL     OW 5310   3.677   6.541   6.706 -0.4878 -0.9294  0.1783
 1413SOL    HW1 5311   3.727   6.496   6.638 -0.5106  0.6994 -0.9734
 1413SOL    HW2 5312   3.587   6.537   6.676 -0.6187 -0.9864  0.5783
 1414SOL     OW 5313   7.970   0.761   4.955 -0.1302  0.1998  0.4083
 1414SOL    HW1 5314   8.024   0.834   4.988  0.6739 -0.8997  1.6398
 1414SOL    HW2 5315   7.889   0.767   5.005 -0.3966  0.7090 -0.0692
 1415SOL     OW 5316   3.448   1.557   0.678  0.2809 -0.4139 -0.8734
 1415SOL    HW1 5317   3.361   1.587   0.702 -0.4145 -0.7126 -2.7919
 1415SOL    HW2 5318   3.437   1.463   0.661  0.8067 -0.3313 -1.7579
 1416SOL     OW 5319   4.985   1.931   1.995 -0.3715  0.8336 -0.1354
 1416SOL    HW1 5320   5.008   2.000   1.933  3.0234 -0.5519 -0.5921
 1416SOL    HW2 5321   5.026   1.958   2.077  0.4078 -0.2806 -0.1452
 1417SOL     OW 5322   3.668   1.941   0.975  0.1260 -0.3791  0.1454
 1417SOL    HW1 5323   3.603   1.903   1.035  2.8761 -2.3011  2.2058
 1417SOL    HW2 5324   3.720   1.999   1.031  1.0592  0.0120 -1.0902
 1418SOL     OW 5325   1.131   1.734   5.931 -0.9044  0.1844 -0.0616
 1418SOL    HW1 5326   1.131   1.814   5.984 -0.8975  0.7635 -0.9223
 1418SOL    HW2 5327   1.201   1.748   5.867 -0.9319 -0.4987 -0.2421
 1419SOL     OW 5328   5.104   0.212   7.383 -0.0411  0.3813  0.0354
 1419SOL    HW1 5329   5.141   0.299   7.394  1.3880 -0.0738 -0.9021
 1419SOL    HW2 5330   5.049   0.199   7.460 -1.0980  2.4794 -0.2998
 1420SOL     OW 5331   2.464   5.324   4.105  0.8948  0.2472 -0.2458
 1420SOL    HW1 5332   2.559   5.338   4.113  0.5240  2.0796  1.8235
 1420SOL    HW2 5333   2.429   5.411   4.084 -0.3889 -0.2553 -0.2584
 1421SOL     OW 5334   5.215   7.995   6.642  0.1316 -0.1453 -0.0788
 1421SOL    HW1 5335   5.139   8.050   6.621 -0.5642 -0.7312  0.8708
 1421SOL    HW2 5336   5.225   7.939   6.565  1.8500  2.3216 -1.8107
 1422SOL     OW 5337   2.243   4.645   4.249  0.2391  0.7664 -0.0994
 1422SOL    HW1 5338   2.304   4.717   4.265 -1.4471  2.1657  0.3898
 1422SOL    HW2 5339   2.256   4.623   4.157  1.0227  1.4802 -0.1797
 1423SOL     OW 5340   2.672   6.079   4.960 -0.0532 -0.0806 -0.1415
 1423SOL    HW1 5341   2.627   6.079   4.876  1.3085 -0.5832 -0.9066
 1423SOL    HW2 5342   2.700   5.988   4.973 -1.0749 -0.2159  1.3399
 1424SOL     OW 5343   4.527   0.253   1.240 -0.4712  0.5397 -0.0568
 1424SOL    HW1 5344   4.519   0.251   1.145  0.7294 -0.2540 -0.1582
 1424SOL    HW2 5345   4.482   0.333   1.267  0.3427  1.4757 -1.4044
 1425SOL     OW 5346   6.226   1.410   3.285  0.1580 -0.2850  0.8851
 1425SOL    HW1 5347   6.289   1.470   3.326 -1.3415  1.4717  0.7567
 1425SOL    HW2 5348   6.146   1.421   3.336 -1.0776  0.2206 -1.0713
 1426SOL     OW 5349   1.051   6.397   8.035  0.3473  0.0307 -0.4511
 1426SOL    HW1 5350   0.979   6.461   8.036 -0.6562 -1.0743  0.4412
 1426SOL    HW2 5351   1.104   6.422   7.960  0.9514  2.9486  0.8011
 1427SOL     OW 5352   1.863   5.292   5.043 -0.2228 -0.3031 -0.3506
 1427SOL    HW1 5353   1.892   5.212   5.000  1.2922 -0.1198  0.2323
 1427SOL    HW2 5354   1.853   5.355   4.972  1.3048 -0.2749 -0.5883
 1428SOL     OW 5355   5.591   0.725   3.111  0.1185  0.0349 -0.2450
 1428SOL    HW1 5356   5.591   0.672   3.031 -1.1283 -0.8549  0.3132
 1428SOL    HW2 5357   5.509   0.702   3.155  0.7727  0.5294  1.2829
 1429SOL     OW 5358   5.293   7.088   1.612 -0.2198 -0.8352  0.1553
 1429SOL    HW1 5359   5.331   7.154   1.553 -2.0008  0.2194  0.1260
 1429SOL    HW2 5360   5.312   7.122   1.699 -1.8968  0.2435  0.1444
 1430SOL     OW 5361   1.613   7.668   4.636 -0.1054  0.5830 -0.4466
 1430SOL    HW1 5362   1.695   7.717   4.624 -0.7524  1.8607  0.0990
 1430SOL    HW2 5363   1.555   7.730   4.679 -2.4283  0.8107 -3.5585
 1431SOL     OW 5364   2.655   1.637   3.268  0.4928  0.2743  0.2916
 1431SOL    HW1 5365   2.661   1.670   3.358 -0.1104  1.0084  0.0690
 1431SOL    HW2 5366   2.628   1.713   3.216  2.2813  0.2425 -0.7626
 1432SOL     OW 5367   1.759   8.103   7.324  0.6872  0.5160  0.3203
 1432SOL    HW1 5368   1.743   8.162   7.250  0.6696  0.9242  0.6449
 1432SOL    HW2 5369   1.712   8.143   7.397  0.9882  0.3023  0.6361
 1433SOL     OW 5370   3.091   2.140   1.384 -0.1006  0.4845 -0.1418
 1433SOL    HW1 5371   3.124   2.096   1.305  0.6339  1.0808 -0.1866
 1433SOL    HW2 5372   3.009   2.180   1.357 -0.5105 -0.3982 -0.2433
 1434SOL     OW 5373   2.621   4.091   7.507 -0.6622  0.0957 -0.0986
 1434SOL    HW1 5374   2.549   4.145   7.540  1.3304  3.2352 -0.4781
 1434SOL    HW2 5375   2.700   4.135   7.537  1.1704 -2.6580 -0.5411
 1435SOL     OW 5376   1.868   0.038   6.250  0.3603  0.8122  0.0983
 1435SOL    HW1 5377   1.920   0.091   6.311  2.3906 -0.0200 -0.8269
 1435SOL    HW2 5378   1.919   0.035   6.170 -0.4840 -1.1556 -0.4358
 1436SOL     OW 5379   2.341   1.395   8.158  0.0309 -0.7204  0.1754
 1436SOL    HW1 5380   2.341   1.299   8.154  1.9411 -0.9592  2.7714
 1436SOL    HW2 5381   2.425   1.420   8.118 -0.4059 -0.1180 -0.3784
 1437SOL     OW 5382   7.564   0.192   2.129 -0.2980 -0.2546 -0.3239
 1437SOL    HW1 5383   7.555   0.197   2.034  1.1424 -0.7752 -0.5203
 1437SOL    HW2 5384   7.606   0.107   2.144 -2.3908 -1.1425  0.9573
 1438SOL     OW 5385   5.353   5.193   6.481 -0.4826 -0.2966  0.5453
 1438SOL    HW1 5386   5.356   5.108   6.436  0.0497  0.3843 -0.7395
 1438SOL    HW2 5387   5.262   5.200   6.512 -0.4957 -1.3937  0.7958
 1439SOL     OW 5388   5.982   0.144   4.171  0.2773  0.0462  0.0555
 1439SOL    HW1 5389   6.030   0.091   4.107 -2.2480 -2.4240  0.0163
 1439SOL    HW2 5390   5.966   0.227   4.127  2.1983 -0.0252 -0.8710
 1440SOL     OW 5391   5.101   4.850   1.697 -0.1321  0.0009 -0.2149
 1440SOL    HW1 5392   5.048   4.896   1.633 -0.7676 -1.5221 -0.8333
 1440SOL    HW2 5393   5.042   4.835   1.771 -0.0947 -0.2790 -0.2396
 1441SOL     OW 5394   7.197   6.350   6.475 -0.5277  0.4214 -0.7313
 1441SOL    HW1 5395   7.163   6.438   6.492 -0.9859  0.4806 -1.8811
 1441SOL    HW2 5396   7.255   6.332   6.549 -0.4837  1.6591 -0.4463
 1442SOL     OW 5397   6.444   6.173   1.568  0.6304 -0.1477 -0.1821
 1442SOL    HW1 5398   6.420   6.134   1.652 -0.1928 -0.8568 -0.7346
 1442SOL    HW2 5399   6.442   6.268   1.585  1.6750 -0.2890  0.9021
 1443SOL     OW 5400   1.574   7.534   0.774  0.6841  0.1324 -0.2360
 1443SOL    HW1 5401   1.642   7.599   0.753 -0.0459  0.8141 -0.5322
 1443SOL    HW2 5402   1.590   7.512   0.866  0.1689  1.6952  0.2619
 1444SOL     OW 5403   7.217   5.686   0.362  0.2884  0.2669 -0.4921
 1444SOL    HW1 5404   7.267   5.696   0.443  1.3754 -2.5904 -0.7311
 1444SOL    HW2 5405   7.126   5.697   0.390  0.7610  1.8953  0.5916
 1445SOL     OW 5406   1.396   0.922   1.699  0.0262 -0.0804 -0.1010
 1445SOL    HW1 5407   1.325   0.951   1.757 -0.2645  0.5327 -0.7539
 1445SOL    HW2 5408   1.465   0.988   1.710  0.1207 -0.1642 -0.1819
 1446SOL     OW 5409   3.722   6.601   6.986  0.3561  0.5895  0.1344
 1446SOL    HW1 5410   3.703   6.596   6.892 -1.2038  1.9390  0.3310
 1446SOL    HW2 5411   3.813   6.631   6.990  0.3309  0.8499 -0.9563
 1447SOL     OW 5412   0.631   5.192   3.912  0.5652 -0.9587 -0.1875
 1447SOL    HW1 5413   0.587   5.112   3.885 -0.6619 -1.0276  1.8287
 1447SOL    HW2 5414   0.684   5.166   3.988  2.6162 -0.4590 -1.3578
 1448SOL     OW 5415   0.011   3.978   2.089  0.6541 -0.4486 -0.1834
 1448SOL    HW1 5416   0.031   4.017   2.003  0.3703 -0.3244 -0.1937
 1448SOL    HW2 5417   0.046   4.041   2.152 -1.9811  1.1237 -0.1369
 1449SOL     OW 5418   0.039   0.098   7.168  0.3723 -0.1385  0.0814
 1449SOL    HW1 5419   0.122   0.141   7.189  1.1510 -1.3348 -0.4471
 1449SOL    HW2 5420   0.030   0.108   7.074 -0.3138  0.3496  0.1901
 1450SOL     OW 5421   7.107   3.158   6.376  0.2156 -0.1384  1.2108
 1450SOL    HW1 5422   7.142   3.112   6.300  1.1629  0.1208  1.4739
 1450SOL    HW2 5423   7.043   3.219   6.340 -0.6362 -1.2478  0.8064
 1451SOL     OW 5424   3.638   0.550   2.038  0.1412  0.5789  0.2896
 1451SOL    HW1 5425   3.653   0.482   1.972 -2.7740  1.3009 -1.2724
 1451SOL    HW2 5426   3.621   0.502   2.119  1.6785 -0.3768  0.0905
 1452SOL     OW 5427   1.303   5.401   2.553  0.1148  0.2911  0.1058
 1452SOL    HW1 5428   1.399   5.404   2.561  0.5724 -1.0015 -3.1570
 1452SOL    HW2 5429   1.280   5.489   2.521  0.2467  0.4891  0.5451
 1453SOL     OW 5430   4.903   0.076   2.007 -0.3180 -0.3488 -0.4161
 1453SOL    HW1 5431   4.869  -0.009   1.981  0.2211 -0.5091 -0.6032
 1453SOL    HW2 5432   4.996   0.073   1.986 -0.5515  0.8295 -1.8382
 1454SOL     OW 5433   1.629   1.465   4.625  0.3137  0.3142  0.7615
 1454SOL    HW1 5434   1.669   1.467   4.538  0.9373  0.0232  1.0387
 1454SOL    HW2 5435   1.655   1.381   4.662 -0.2319  0.2900  1.1022
 1455SOL     OW 5436   7.397   3.250   1.028  0.3603  0.0226 -0.2016
 1455SOL    HW1 5437   7.309   3.212   1.031  0.4750 -0.3444 -1.1512
 1455SOL    HW2 5438   7.442   3.201   0.959  0.1252  2.6213 -2.3809
 1456SOL     OW 5439   0.371   7.906   4.548 -0.4656 -0.6355  0.0339
 1456SOL    HW1 5440   0.372   8.001   4.556  0.7786 -0.6586  0.3194
 1456SOL    HW2 5441   0.375   7.889   4.454  0.0857 -0.4014  0.0110
 1457SOL     OW 5442   4.464   3.137   5.975  0.4200  0.3490 -0.4659
 1457SOL    HW1 5443   4.457   3.079   6.050  0.0719  0.0928 -0.6932
 1457SOL    HW2 5444   4.399   3.205   5.991  1.1088  0.9102 -0.0005
 1458SOL     OW 5445   0.445   3.013   3.924  0.0822  0.0416 -0.3640
 1458SOL    HW1 5446   0.536   2.984   3.920  0.0302 -0.6133  1.8671
 1458SOL    HW2 5447   0.398   2.956   3.864  0.6774 -1.7313  0.7773
 1459SOL     OW 5448   0.878   3.529   4.192  0.0345  0.5743 -0.2613
 1459SOL    HW1 5449   0.955   3.472   4.195  0.2636  0.7519 -2.0125
 1459SOL    HW2 5450   0.858   3.538   4.099 -2.7044 -0.2199  0.1646
 1460SOL     OW 5451   7.599   6.643   4.620 -0.4808 -0.4406 -0.7114
 1460SOL    HW1 5452   7.600   6.644   4.716 -1.6648  1.6105 -0.6591
 1460SOL    HW2 5453   7.687   6.670   4.595 -0.7003  0.8814 -0.1410
 1461SOL     OW 5454   5.504   4.768   0.221  0.6541  0.0384 -0.3085
 1461SOL    HW1 5455   5.515   4.816   0.139  1.6330 -0.7209 -0.6402
 1461SOL    HW2 5456   5.503   4.676   0.195 -0.9909 -0.1523  0.3450
 1462SOL     OW 5457   2.865   5.996   2.657  1.0576 -0.3085 -0.2284
 1462SOL    HW1 5458   2.805   5.925   2.678  1.4723 -0.2533  1.2679
 1462SOL    HW2 5459   2.924   6.001   2.732  1.7402  0.8880 -0.8052
 1463SOL     OW 5460   1.924   5.958   5.451  0.2171 -0.2867  0.5237
 1463SOL    HW1 5461   1.883   5.958   5.538 -0.7297  0.5897  0.1140
 1463SOL    HW2 5462   1.986   5.886   5.453 -0.0218 -0.4831  1.8222
 1464SOL     OW 5463   3.207   2.825   7.894 -0.6514 -0.3341  0.3563
 1464SOL    HW1 5464   3.130   2.779   7.861  0.1453 -1.2679 -0.2498
 1464SOL    HW2 5465   3.203   2.812   7.989 -0.2056 -2.1257  0.1769
 1465SOL     OW 5466   2.696   0.325   2.237  0.5637  0.8575  0.5569
 1465SOL    HW1 5467   2.729   0.244   2.274 -0.9099 -1.1806 -2.2195
 1465SOL    HW2 5468   2.764   0.355   2.177 -0.5145 -0.8433 -1.6924
 1466SOL     OW 5469   1.567   7.600   3.851 -0.2840  0.2915 -0.2737
 1466SOL    HW1 5470   1.640   7.626   3.908 -0.2505  0.0212 -0.1908
 1466SOL    HW2 5471   1.495   7.656   3.878 -0.5855 -0.5585  0.7945
 1467SOL     OW 5472   5.292   7.324   2.792  0.4645  0.4385  0.5816
 1467SOL    HW1 5473   5.209   7.299   2.751  1.0162  1.0935 -1.0312
 1467SOL    HW2 5474   5.346   7.355   2.719  1.7302  1.0954  1.7560
 1468SOL     OW 5475   1.700   3.932   8.047  0.0002 -0.5285  0.2122
 1468SOL    HW1 5476   1.611   3.961   8.066  0.4603  1.3010 -0.2250
 1468SOL    HW2 5477   1.704   3.928   7.951  1.0260  1.8471  0.0684
 1469SOL     OW 5478   0.059   5.454   2.788  0.1774  0.0313 -0.6163
 1469SOL    HW1 5479   0.070   5.513   2.862  1.4898 -0.0661 -0.6992
 1469SOL    HW2 5480   0.144   5.410   2.780  0.5413  0.9936 -2.9971
 1470SOL     OW 5481   4.386   4.727   5.418 -0.2860 -0.1523  0.1395
 1470SOL    HW1 5482   4.369   4.709   5.510 -0.2573 -1.8856 -0.1526
 1470SOL    HW2 5483   4.306   4.768   5.386 -0.2257  0.6299  0.9586
 1471SOL     OW 5484   2.858   2.616   0.977  0.2113  0.0289 -0.7195
 1471SOL    HW1 5485   2.824   2.560   0.908 -1.1872 -1.6231  1.1808
 1471SOL    HW2 5486   2.953   2.608   0.971  0.1120 -0.1966 -2.3073
 1472SOL     OW 5487   5.905   1.976   6.790 -0.3031  0.0329  0.3339
 1472SOL    HW1 5488   5.820   2.021   6.792 -1.1218 -1.3791 -0.2529
 1472SOL    HW2 5489   5.882   1.883   6.794  1.2929 -0.3500  1.1667
 1473SOL     OW 5490   2.564   7.512   2.514 -0.1389  0.4263 -0.4102
 1473SOL    HW1 5491   2.594   7.503   2.605 -0.4008 -0.4227 -0.4027
 1473SOL    HW2 5492   2.605   7.439   2.468 -0.2403  0.6844 -0.9202
 1474SOL     OW 5493   0.188   5.619   3.285  0.4508 -0.5088 -0.0757
 1474SOL    HW1 5494   0.195   5.688   3.351  2.9990 -1.7195  1.0646
 1474SOL    HW2 5495   0.183   5.538   3.335 -0.4407 -1.3172 -1.3955
 1475SOL     OW 5496   2.020   0.029   1.491  0.0162  0.1328 -0.6516
 1475SOL    HW1 5497   2.012   0.106   1.547 -0.1622  1.1218 -1.9773
 1475SOL    HW2 5498   2.115   0.015   1.482  0.0455 -0.0511 -0.1070
 1476SOL     OW 5499   3.507   5.751   0.228 -0.0416 -0.3763  0.3080
 1476SOL    HW1 5500   3.422   5.712   0.211 -0.0888 -0.1162 -0.0590
 1476SOL    HW2 5501   3.548   5.693   0.293  0.2742 -1.5915 -0.9301
 1477SOL     OW 5502   7.736   7.614   5.740 -0.4224 -0.6100  0.0807
 1477SOL    HW1 5503   7.667   7.593   5.676 -1.4992  4.0113 -0.6318
 1477SOL    HW2 5504   7.809   7.647   5.687  0.0633 -0.0464  1.0716
 1478SOL     OW 5505   5.891   2.953   0.085  0.1447  0.0540 -0.3389
 1478SOL    HW1 5506   5.919   2.919   0.170  0.0308  1.1001  0.1291
 1478SOL    HW2 5507   5.798   2.972   0.095  0.5918  2.3354  0.0667
 1479SOL     OW 5508   3.734   2.719   6.858  0.1084  0.1560 -0.2552
 1479SOL    HW1 5509   3.796   2.647   6.873 -0.6813 -0.7152 -1.0260
 1479SOL    HW2 5510   3.787   2.791   6.825  0.7533 -0.4666 -0.5951
 1480SOL     OW 5511   0.698   6.990   4.847 -0.2501  0.1948  0.2703
 1480SOL    HW1 5512   0.760   6.972   4.917 -0.2216  0.2025  0.2467
 1480SOL    HW2 5513   0.751   7.027   4.776 -0.0278 -1.2118 -0.3333
 1481SOL     OW 5514   0.491   5.370   1.755  0.2329 -0.3866 -0.0328
 1481SOL    HW1 5515   0.407   5.362   1.799  0.5215  0.0897  0.6195
 1481SOL    HW2 5516   0.529   5.282   1.756 -1.5567 -1.3422 -3.0357
 1482SOL     OW 5517   3.227   5.224   1.102  0.1574 -0.1374  0.2068
 1482SOL    HW1 5518   3.218   5.211   1.197  3.6628  0.4276  0.7277
 1482SOL    HW2 5519   3.194   5.142   1.064  0.9343 -1.3929  2.0909
 1483SOL     OW 5520   1.936   2.213   0.998 -0.2643 -0.9544 -0.1524
 1483SOL    HW1 5521   2.031   2.228   0.989 -0.4656  0.1571 -0.6685
 1483SOL    HW2 5522   1.925   2.119   0.990  0.8435 -1.1365  0.2969
 1484SOL     OW 5523   0.805   1.603   2.643 -0.1011 -0.6556 -0.5641
 1484SOL    HW1 5524   0.858   1.523   2.641  2.0606  0.6875 -1.0152
 1484SOL    HW2 5525   0.857   1.664   2.696 -2.2403  0.1245  0.7393
 1485SOL     OW 5526   3.583   6.891   2.361 -0.3083 -0.4453 -0.2302
 1485SOL    HW1 5527   3.610   6.868   2.450  0.5022  3.3202  0.6363
 1485SOL    HW2 5528   3.664   6.911   2.315 -0.9267  1.2994 -0.6399
 1486SOL     OW 5529   4.741   6.941   2.796  0.1965  0.2860  0.2765
 1486SOL    HW1 5530   4.803   6.868   2.791 -1.7044 -1.4416  0.6342
 1486SOL    HW2 5531   4.751   6.975   2.884  1.9615  1.3395 -0.2713
 1487SOL     OW 5532   7.572   3.474   0.178 -0.0738 -0.2749 -0.3079
 1487SOL    HW1 5533   7.484   3.447   0.150 -1.1120  2.7599 -0.3641
 1487SOL    HW2 5534   7.595   3.544   0.117  0.0434  2.6200  2.7942
 1488SOL     OW 5535   6.649   7.104   5.084  0.2923  0.3635 -0.0207
 1488SOL    HW1 5536   6.609   7.022   5.056  3.0531 -0.2501 -2.7479
 1488SOL    HW2 5537   6.608   7.171   5.028  0.3228  0.3553 -0.0527
 1489SOL     OW 5538   7.017   4.635   4.610 -0.1225  0.0011 -0.6758
 1489SOL    HW1 5539   7.090   4.573   4.619 -1.5356 -1.7586 -0.6776
 1489SOL    HW2 5540   7.017   4.659   4.518  0.7258  0.4063 -0.5839
 1490SOL     OW 5541   4.180   2.597   4.673  0.4283 -0.2617  0.1751
 1490SOL    HW1 5542   4.105   2.649   4.704  1.5731  0.7248  1.4505
 1490SOL    HW2 5543   4.247   2.612   4.739  1.8327 -0.9570 -1.0488
 1491SOL     OW 5544   3.038   5.737   4.732  0.1533 -0.0194  0.4219
 1491SOL    HW1 5545   2.950   5.777   4.736  1.2845  2.6561  0.9031
 1491SOL    HW2 5546   3.022   5.643   4.741 -2.6596  0.3640  0.4702
 1492SOL     OW 5547   2.615   3.677   7.319  0.0937  0.1347  0.4586
 1492SOL    HW1 5548   2.534   3.628   7.306 -0.0429  0.9611 -2.9522
 1492SOL    HW2 5549   2.680   3.610   7.340 -0.8856 -0.9428  0.2119
 1493SOL     OW 5550   5.713   0.900   2.725 -0.0498 -0.5850  0.4165
 1493SOL    HW1 5551   5.714   0.992   2.752 -2.7258 -0.8396  1.6781
 1493SOL    HW2 5552   5.741   0.902   2.633  0.6003  1.3899  0.6022
 1494SOL     OW 5553   3.570   3.505   3.897  0.2131  0.0449 -0.4550
 1494SOL    HW1 5554   3.550   3.435   3.960  3.5663 -1.0694 -0.4438
 1494SOL    HW2 5555   3.636   3.559   3.940  0.3223  1.0954 -1.8505
 1495SOL     OW 5556   3.991   4.397   0.342 -0.2567 -0.3476 -0.2068
 1495SOL    HW1 5557   3.941   4.431   0.267 -0.5437  0.1413  0.1980
 1495SOL    HW2 5558   4.082   4.414   0.319 -0.4161  1.1146  0.1754
 1496SOL     OW 5559   4.761   0.032   3.697  0.4900 -0.7378  0.6801
 1496SOL    HW1 5560   4.819   0.103   3.724 -0.8205  0.7530 -0.2162
 1496SOL    HW2 5561   4.773  -0.036   3.763  2.9710 -0.3659  0.7095
 1497SOL     OW 5562   2.160   7.130   0.961 -0.2096 -0.2410 -0.0306
 1497SOL    HW1 5563   2.117   7.186   1.027 -0.2872 -0.4180  0.0683
 1497SOL    HW2 5564   2.090   7.076   0.926  0.1674 -1.5230  1.1282
 1498SOL     OW 5565   8.075   7.845   5.269 -0.3474  0.2019  0.0569
 1498SOL    HW1 5566   8.115   7.918   5.221  0.1465  0.8218  1.3619
 1498SOL    HW2 5567   7.985   7.875   5.285 -0.3999  0.1567 -0.1493
 1499SOL     OW 5568   2.598   4.289   4.689  0.0312 -0.3099 -0.1885
 1499SOL    HW1 5569   2.600   4.371   4.738 -1.2891  0.3439 -1.1577
 1499SOL    HW2 5570   2.688   4.259   4.690  0.3848  0.6995  0.9393
 1500SOL     OW 5571   6.292   7.226   1.928  0.2533 -0.2977 -0.6667
 1500SOL    HW1 5572   6.369   7.278   1.952 -1.5572  1.9802  0.6143
 1500SOL    HW2 5573   6.245   7.282   1.866 -0.5881 -1.4924 -1.1328
 1501SOL     OW 5574   8.028   4.604   6.055  0.5783 -0.2222 -0.6833
 1501SOL    HW1 5575   8.074   4.528   6.093  0.5897  0.6534  1.1254
 1501SOL    HW2 5576   8.060   4.607   5.965  1.1475 -1.9166 -0.5892
 1502SOL     OW 5577   4.034   4.380   1.755  0.0072 -0.0320  0.3228
 1502SOL    HW1 5578   3.968   4.361   1.688 -1.6717  0.5248  1.7107
 1502SOL    HW2 5579   4.089   4.302   1.758 -1.6721 -1.2685  0.2915
 1503SOL     OW 5580   3.266   4.523   4.088  0.2504  0.7919 -0.2173
 1503SOL    HW1 5581   3.340   4.463   4.085  1.2612  2.0395 -0.9185
 1503SOL    HW2 5582   3.223   4.514   4.002  0.5582  1.2394 -0.4240
 1504SOL     OW 5583   7.588   4.530   0.782  0.3316 -0.0850 -0.4279
 1504SOL    HW1 5584   7.524   4.458   0.785 -0.9287  1.0192  0.9216
 1504SOL    HW2 5585   7.536   4.608   0.800  1.7157  1.1605 -1.6216
 1505SOL     OW 5586   4.599   2.244   1.511 -0.0061 -0.4225  0.0655
 1505SOL    HW1 5587   4.592   2.338   1.498 -0.2255 -0.3397  0.7150
 1505SOL    HW2 5588   4.626   2.209   1.426  1.7226  0.3970  0.2502
 1506SOL     OW 5589   0.185   2.463   7.246 -0.4533  0.2346 -0.5049
 1506SOL    HW1 5590   0.130   2.432   7.174  0.2630  0.8251 -1.3245
 1506SOL    HW2 5591   0.123   2.489   7.314 -1.1570  0.0153 -1.0539
 1507SOL     OW 5592   6.377   6.371   2.608  0.2360 -0.3349 -0.3386
 1507SOL    HW1 5593   6.324   6.351   2.531 -1.4010  2.2262 -0.0123
 1507SOL    HW2 5594   6.314   6.404   2.672  2.0549  2.0523  0.3727
 1508SOL     OW 5595   1.092   2.818   4.350 -0.0644 -0.4827  0.2675
 1508SOL    HW1 5596   1.049   2.734   4.366  1.2073 -1.1424  0.3944
 1508SOL    HW2 5597   1.169   2.795   4.298 -0.5208  0.8090 -1.0376
 1509SOL     OW 5598   6.507   0.069   7.112  0.0580 -0.1025  0.0962
 1509SOL    HW1 5599   6.549   0.043   7.194  6.0533  1.9757 -1.7898
 1509SOL    HW2 5600   6.526  -0.003   7.052  2.3005  1.3289 -1.0649
 1510SOL     OW 5601   0.671   2.429   4.565 -0.1903 -0.2383  0.1200
 1510SOL    HW1 5602   0.701   2.346   4.602  2.7933 -0.1673 -1.8123
 1510SOL    HW2 5603   0.582   2.441   4.601  0.1371 -3.0910  2.2171
 1511SOL     OW 5604   3.387   5.446   3.679  0.2457 -0.1695  0.4965
 1511SOL    HW1 5605   3.458   5.408   3.730  2.3573  1.0957 -1.3106
 1511SOL    HW2 5606   3.406   5.540   3.677 -2.6714  0.5706  1.6377
 1512SOL     OW 5607   3.084   1.838   0.828 -0.4099 -0.0159  0.1313
 1512SOL    HW1 5608   3.155   1.887   0.868 -0.4621  0.6593 -0.5887
 1512SOL    HW2 5609   3.121   1.752   0.810 -0.5590 -0.5496  2.1525
 1513SOL     OW 5610   7.791   6.781   2.365 -0.3444  0.0416  0.5032
 1513SOL    HW1 5611   7.777   6.745   2.277  0.4102  0.1234  0.3455
 1513SOL    HW2 5612   7.704   6.777   2.406 -0.8660  0.6877 -0.4936
 1514SOL     OW 5613   4.363   5.883   3.971 -0.4669  0.1473 -0.3251
 1514SOL    HW1 5614   4.389   5.975   3.982  2.7314 -0.6760 -0.0199
 1514SOL    HW2 5615   4.380   5.843   4.056 -0.2905 -1.0261 -0.8898
 1515SOL     OW 5616   0.868   4.609   2.707 -0.0449 -0.5879  0.2939
 1515SOL    HW1 5617   0.832   4.678   2.651  2.2153 -1.5710 -2.6002
 1515SOL    HW2 5618   0.894   4.655   2.787 -1.3095  1.3191 -0.3072
 1516SOL     OW 5619   3.364   3.892   6.950  0.7379  0.7597 -0.2320
 1516SOL    HW1 5620   3.367   3.810   6.900 -0.7304 -0.4564  1.5237
 1516SOL    HW2 5621   3.294   3.942   6.909  2.0626  1.4725 -1.7164
 1517SOL     OW 5622   5.459   4.316   5.397  0.2676 -0.1589 -0.5150
 1517SOL    HW1 5623   5.380   4.368   5.407  1.4358  1.8409 -1.1037
 1517SOL    HW2 5624   5.483   4.290   5.486 -1.5041 -1.5788 -0.4101
 1518SOL     OW 5625   0.156   5.938   2.933 -0.3496 -0.2725  0.2178
 1518SOL    HW1 5626   0.146   6.002   3.003  1.5767 -0.2194  0.5094
 1518SOL    HW2 5627   0.215   5.872   2.969 -0.2424 -0.8484 -0.9555
 1519SOL     OW 5628   8.151   6.034   2.218 -0.2001 -0.0686 -0.0885
 1519SOL    HW1 5629   8.063   6.048   2.182 -0.3293  0.1908  0.3143
 1519SOL    HW2 5630   8.186   5.961   2.168 -0.6814 -0.2302 -0.1995
 1520SOL     OW 5631   2.012   2.449   4.699 -0.0253  0.4092 -0.2993
 1520SOL    HW1 5632   2.044   2.514   4.762  0.5269  0.8651 -1.0372
 1520SOL    HW2 5633   2.049   2.366   4.729  0.6114  0.6959 -0.2807
 1521SOL     OW 5634   6.940   7.935   0.884 -0.4210  0.0121  0.0614
 1521SOL    HW1 5635   6.906   7.854   0.922 -0.7667 -0.1924 -0.6625
 1521SOL    HW2 5636   6.997   7.971   0.951 -0.4592 -0.7068  0.4901
 1522SOL     OW 5637   3.112   7.549   2.144 -0.0302 -0.8022 -0.2677
 1522SOL    HW1 5638   3.035   7.495   2.127 -1.0826  0.6216 -0.1824
 1522SOL    HW2 5639   3.097   7.629   2.093  2.0340 -1.0173 -1.2971
 1523SOL     OW 5640   3.188   3.080   7.760  0.3537  0.4847  0.8896
 1523SOL    HW1 5641   3.159   3.146   7.822 -1.4712 -1.2369  2.0087
 1523SOL    HW2 5642   3.199   3.001   7.813  0.2807 -0.6637 -0.7370
 1524SOL     OW 5643   4.560   4.303   1.104  0.4207 -0.1754 -0.2729
 1524SOL    HW1 5644   4.489   4.346   1.056  1.1142  1.0625 -0.2397
 1524SOL    HW2 5645   4.521   4.223   1.138 -1.1650  0.7990  0.3260
 1525SOL     OW 5646   6.022   2.654   8.156  0.0194 -0.2649 -0.6605
 1525SOL    HW1 5647   6.060   2.571   8.125  1.0637  0.4002 -1.2083
 1525SOL    HW2 5648   6.090   2.691   8.212 -0.7929 -0.1762  0.3024
 1526SOL     OW 5649   4.612   3.658   3.930 -0.0919 -0.1084  0.1474
 1526SOL    HW1 5650   4.575   3.705   3.855  0.8886 -1.5925 -1.3596
 1526SOL    HW2 5651   4.568   3.695   4.006 -2.0340  0.6265 -1.2554
 1527SOL     OW 5652   3.444   5.406   1.075 -0.3053 -0.6578  0.6493
 1527SOL    HW1 5653   3.505   5.332   1.073 -0.2697 -0.6138 -0.0311
 1527SOL    HW2 5654   3.359   5.368   1.053  0.1902 -0.0694 -2.9332
 1528SOL     OW 5655   0.042   3.324   0.332  0.7976  0.0290 -0.4443
 1528SOL    HW1 5656   0.042   3.332   0.236  0.4037  1.2016 -0.3664
 1528SOL    HW2 5657  -0.029   3.262   0.350 -1.2362  2.0707 -0.8174
 1529SOL     OW 5658   5.485   1.771   6.852  0.2071  0.1026  0.4918
 1529SOL    HW1 5659   5.430   1.693   6.843  0.1586  0.2794 -0.8961
 1529SOL    HW2 5660   5.422   1.842   6.870  0.0043  0.2103 -0.5620
 1530SOL     OW 5661   4.149   4.457   5.580  0.1280 -0.3532 -0.2032
 1530SOL    HW1 5662   4.094   4.380   5.564  0.6566 -1.2838  2.0998
 1530SOL    HW2 5663   4.133   4.513   5.504 -0.1145 -2.7978 -2.1111
 1531SOL     OW 5664   7.734   4.173   4.951 -0.4741  0.1182 -0.5630
 1531SOL    HW1 5665   7.782   4.104   4.906 -0.3103 -0.2244  0.1248
 1531SOL    HW2 5666   7.762   4.254   4.909  0.3147 -0.1264 -0.5114
 1532SOL     OW 5667   1.397   4.790   6.704 -0.5968  0.0252 -0.1382
 1532SOL    HW1 5668   1.399   4.802   6.799 -0.0381  0.8808 -0.2487
 1532SOL    HW2 5669   1.348   4.709   6.691 -2.4069  0.9255  0.7795
 1533SOL     OW 5670   5.351   5.297   1.785 -0.1802 -0.1234  0.0385
 1533SOL    HW1 5671   5.331   5.245   1.863 -1.8776  0.8236  0.2823
 1533SOL    HW2 5672   5.266   5.328   1.754  0.5496  0.3210 -1.6496
 1534SOL     OW 5673   7.474   6.545   1.466  1.0059 -0.2050  0.0810
 1534SOL    HW1 5674   7.541   6.558   1.533 -0.0957 -0.2620  1.2304
 1534SOL    HW2 5675   7.431   6.630   1.458 -1.6698 -1.1237  2.6227
 1535SOL     OW 5676   1.662   2.294   0.885  0.1592  0.2870  0.3080
 1535SOL    HW1 5677   1.756   2.276   0.892  0.1218  0.3178  0.9533
 1535SOL    HW2 5678   1.633   2.241   0.812  0.5255 -0.3760  0.6304
 1536SOL     OW 5679   4.033   3.675   3.049  0.7304 -0.4634 -0.3739
 1536SOL    HW1 5680   4.113   3.721   3.076  0.3891 -0.4007  0.5363
 1536SOL    HW2 5681   4.011   3.619   3.123 -0.9029  0.6187  0.0117
 1537SOL     OW 5682   5.418   0.220   6.154 -0.4624 -0.2539 -0.5779
 1537SOL    HW1 5683   5.391   0.137   6.114 -0.5988 -1.0105  0.9958
 1537SOL    HW2 5684   5.340   0.252   6.199 -0.2684  0.4644 -0.7401
 1538SOL     OW 5685   3.147   7.858   2.960  0.4155  0.6078  0.4313
 1538SOL    HW1 5686   3.174   7.767   2.944 -1.3785 -0.2822  2.1490
 1538SOL    HW2 5687   3.182   7.878   3.047 -0.6965  0.9381  0.8082
 1539SOL     OW 5688   1.927   3.615   0.566  0.3319 -0.1534  0.3125
 1539SOL    HW1 5689   1.850   3.643   0.615  0.0409 -2.5185  1.3710
 1539SOL    HW2 5690   1.993   3.682   0.583 -0.2686 -0.0850  2.6659
 1540SOL     OW 5691   5.835   6.834   4.626  0.0690  0.1085  0.1255
 1540SOL    HW1 5692   5.882   6.764   4.580 -2.4048 -1.3188 -0.4347
 1540SOL    HW2 5693   5.875   6.838   4.712  0.0036 -2.3759  0.3351
 1541SOL     OW 5694   5.249   2.399   7.387 -0.3692  0.4107 -0.5902
 1541SOL    HW1 5695   5.280   2.417   7.299 -0.5448  1.7275 -0.4055
 1541SOL    HW2 5696   5.327   2.374   7.436 -0.2289 -0.0453 -1.0325
 1542SOL     OW 5697   6.806   5.487   5.411  0.2812 -0.3772  0.2823
 1542SOL    HW1 5698   6.753   5.566   5.415  0.6482 -0.1239  0.2219
 1542SOL    HW2 5699   6.869   5.496   5.483  1.5447  0.2896 -0.8482
 1543SOL     OW 5700   1.753   3.477   2.777 -0.1517 -0.1656  0.1260
 1543SOL    HW1 5701   1.754   3.397   2.829 -1.9819 -0.1853  0.2041
 1543SOL    HW2 5702   1.728   3.448   2.689 -1.6771  0.3698  0.3495
 1544SOL     OW 5703   4.996   1.857   7.470  0.5143 -0.9709 -0.4115
 1544SOL    HW1 5704   5.037   1.907   7.399 -0.7596  1.9498  0.7833
 1544SOL    HW2 5705   5.067   1.844   7.533  1.0155 -1.2385 -1.0196
 1545SOL     OW 5706   5.617   3.531   7.330 -0.4519  0.2042 -0.1254
 1545SOL    HW1 5707   5.539   3.549   7.381 -0.8563 -1.2777 -0.1763
 1545SOL    HW2 5708   5.585   3.515   7.241  0.1263  1.5442 -0.6047
 1546SOL     OW 5709   3.925   0.604   3.096 -0.0054 -0.1881 -0.5006
 1546SOL    HW1 5710   3.911   0.633   3.006  1.9616 -0.6912 -1.0094
 1546SOL    HW2 5711   3.986   0.668   3.132  0.6782 -1.0430 -0.1307
 1547SOL     OW 5712   4.275   7.714   1.604 -0.4155 -0.1220  0.7413
 1547SOL    HW1 5713   4.307   7.665   1.528 -0.6408 -1.7624  1.6630
 1547SOL    HW2 5714   4.194   7.754   1.574  0.0647  0.1744 -0.2060
 1548SOL     OW 5715   6.866   0.005   1.750 -0.1475 -0.5362 -0.0919
 1548SOL    HW1 5716   6.913  -0.077   1.740 -1.6936 -1.4822  0.0296
 1548SOL    HW2 5717   6.912   0.051   1.820  3.0348  0.4673 -2.6043
 1549SOL     OW 5718   7.479   3.461   7.971  0.2092  0.1412  0.1593
 1549SOL    HW1 5719   7.514   3.402   7.903 -2.2118 -1.2052 -0.0379
 1549SOL    HW2 5720   7.528   3.542   7.960  3.5262 -1.6534  0.2319
 1550SOL     OW 5721   3.514   3.648   3.023 -1.1193 -0.7276  0.6966
 1550SOL    HW1 5722   3.544   3.698   2.947 -0.2148 -0.9718  0.8816
 1550SOL    HW2 5723   3.492   3.715   3.088 -0.3294 -0.5449  0.7898
 1551SOL     OW 5724   7.763   2.118   0.324 -0.2498  0.1127 -0.1455
 1551SOL    HW1 5725   7.740   2.201   0.283  1.0828 -0.1503 -1.5570
 1551SOL    HW2 5726   7.707   2.054   0.280  0.0906  0.0295 -0.4654
 1552SOL     OW 5727   6.216   2.689   0.886 -0.1329  0.1176 -0.3389
 1552SOL    HW1 5728   6.135   2.737   0.866  0.6535  1.4568 -0.4430
 1552SOL    HW2 5729   6.281   2.758   0.903  0.6133 -0.9317  1.3194
 1553SOL     OW 5730   1.405   1.195   5.081 -0.3035 -0.0008 -0.0087
 1553SOL    HW1 5731   1.460   1.274   5.085  1.2976 -1.0659 -0.2022
 1553SOL    HW2 5732   1.316   1.229   5.087  0.3671  1.7156  1.9085
 1554SOL     OW 5733   7.544   4.941   4.964  0.6084  0.1868  0.1704
 1554SOL    HW1 5734   7.592   5.001   5.022 -1.7150  1.5854  0.8014
 1554SOL    HW2 5735   7.564   4.972   4.876  1.0092  0.6137  0.4042
 1555SOL     OW 5736   3.194   1.375   1.737  0.1935  0.0862  0.6156
 1555SOL    HW1 5737   3.230   1.457   1.703  0.6202  0.2068  1.3281
 1555SOL    HW2 5738   3.271   1.321   1.754 -0.1554 -1.8879 -3.1655
 1556SOL     OW 5739   0.405   7.308   5.277  0.1066 -0.0513  0.8284
 1556SOL    HW1 5740   0.369   7.316   5.189  0.8873 -0.4176  0.4623
 1556SOL    HW2 5741   0.473   7.241   5.269  2.7605  2.4509  0.8385
 1557SOL     OW 5742   5.820   6.139   7.268 -0.2093  0.2338 -0.0492
 1557SOL    HW1 5743   5.895   6.080   7.260  1.6488  2.6387 -1.8488
 1557SOL    HW2 5744   5.818   6.163   7.361  1.6202  0.5205 -0.0544
 1558SOL     OW 5745   2.121   5.901   7.772 -0.0863  0.1030 -0.2692
 1558SOL    HW1 5746   2.064   5.827   7.789 -0.5671 -0.2109 -2.8407
 1558SOL    HW2 5747   2.208   5.864   7.763 -0.5889 -0.6222 -3.5868
 1559SOL     OW 5748   5.227   3.614   4.322 -0.7153  0.0668 -0.0374
 1559SOL    HW1 5749   5.281   3.619   4.401 -0.2838  1.0020 -0.3750
 1559SOL    HW2 5750   5.140   3.590   4.354 -0.0974 -1.6475  0.4972
 1560SOL     OW 5751   6.996   4.506   8.138  1.1589 -0.2834  0.0725
 1560SOL    HW1 5752   7.012   4.413   8.155 -1.9493 -0.8360  0.6015
 1560SOL    HW2 5753   6.961   4.540   8.221 -2.1014  0.1153 -1.2834
 1561SOL     OW 5754   3.463   7.315   1.628  0.2500  0.0645 -0.4338
 1561SOL    HW1 5755   3.526   7.297   1.558  1.3575  0.7013  0.3662
 1561SOL    HW2 5756   3.387   7.261   1.606  1.3499 -1.3192 -1.0366
 1562SOL     OW 5757   8.007   7.382   2.031 -0.4100 -0.5489  0.3143
 1562SOL    HW1 5758   8.017   7.477   2.026  1.7869 -0.7723 -1.0726
 1562SOL    HW2 5759   8.047   7.357   2.114  1.2196 -0.4395 -0.4097
 1563SOL     OW 5760   2.568   8.017   1.044  0.4818 -0.1647  0.8787
 1563SOL    HW1 5761   2.638   7.952   1.034  0.0140 -0.8691  2.0608
 1563SOL    HW2 5762   2.543   8.038   0.954  1.1040 -1.1159  0.4636
 1564SOL     OW 5763   1.840   7.835   5.508  0.4378 -0.3154  0.5680
 1564SOL    HW1 5764   1.827   7.741   5.521  0.0700 -0.3323  0.1030
 1564SOL    HW2 5765   1.782   7.876   5.572  0.1017 -0.4074  0.3289
 1565SOL     OW 5766   5.358   4.938   1.210  0.4053 -0.0909  0.3490
 1565SOL    HW1 5767   5.441   4.904   1.177  1.2723  3.6100 -1.8403
 1565SOL    HW2 5768   5.292   4.905   1.149  0.8228 -0.0047 -0.1499
 1566SOL     OW 5769   4.634   6.153   6.243  0.4638  0.2674  0.2482
 1566SOL    HW1 5770   4.691   6.225   6.269 -0.1212  0.7944  0.0894
 1566SOL    HW2 5771   4.562   6.195   6.197 -1.2455 -0.1524  2.3832
 1567SOL     OW 5772   6.193   0.923   8.112 -0.4568 -0.1297 -0.3189
 1567SOL    HW1 5773   6.153   0.986   8.051 -2.4419 -1.0548 -0.0602
 1567SOL    HW2 5774   6.251   0.976   8.166 -1.5170  1.3778 -0.5771
 1568SOL     OW 5775   0.192   6.831   2.384 -0.2919  0.0174 -0.1806
 1568SOL    HW1 5776   0.124   6.840   2.452  0.2388 -1.1173  0.5194
 1568SOL    HW2 5777   0.146   6.850   2.302 -1.1404  0.5967  0.4078
 1569SOL     OW 5778   0.005   6.182   0.459  0.2833 -0.3869 -0.1844
 1569SOL    HW1 5779   0.089   6.207   0.421  0.9922 -0.7742  1.0797
 1569SOL    HW2 5780  -0.039   6.134   0.388  0.1768  1.6423 -1.5951
 1570SOL     OW 5781   1.852   0.422   5.431 -0.3207 -0.3284 -0.0261
 1570SOL    HW1 5782   1.831   0.516   5.432  0.0404 -0.2358  1.8233
 1570SOL    HW2 5783   1.907   0.411   5.353 -3.2120  0.2789 -2.3312
 1571SOL     OW 5784   1.818   7.629   2.664  0.7572 -0.0127  0.1515
 1571SOL    HW1 5785   1.858   7.663   2.745 -0.5432  0.4296  0.6409
 1571SOL    HW2 5786   1.884   7.572   2.627  1.1849 -0.6738  1.8316
 1572SOL     OW 5787   6.989   0.614   3.759 -0.0165  0.0285 -0.4919
 1572SOL    HW1 5788   7.064   0.554   3.758 -1.1330 -1.4730  1.0572
 1572SOL    HW2 5789   6.988   0.649   3.848 -0.9166  0.3646 -0.6251
 1573SOL     OW 5790   2.295   1.413   1.330 -0.2502  0.0989  0.2779
 1573SOL    HW1 5791   2.364   1.395   1.393 -0.4259  1.9527  1.0519
 1573SOL    HW2 5792   2.245   1.485   1.368 -1.0935  0.4787 -1.4238
 1574SOL     OW 5793   6.903   5.803   5.666 -0.9886 -0.2017 -0.6363
 1574SOL    HW1 5794   6.856   5.887   5.662 -0.1783  0.3740  1.2501
 1574SOL    HW2 5795   6.849   5.748   5.722  0.8090  0.7230  2.2339
 1575SOL     OW 5796   7.749   3.669   4.033  0.0265  0.0311 -0.4831
 1575SOL    HW1 5797   7.671   3.687   3.981 -0.1669 -1.9621 -0.9559
 1575SOL    HW2 5798   7.777   3.582   4.006  3.7566  1.4535 -1.9986
 1576SOL     OW 5799   5.313   0.014   6.014  0.2438  0.1555 -1.0222
 1576SOL    HW1 5800   5.244   0.061   5.967 -0.4059  1.8932  1.4397
 1576SOL    HW2 5801   5.270  -0.065   6.048 -0.9048  1.5818  1.1199
 1577SOL     OW 5802   5.706   4.621   5.079 -0.3836  0.4158  0.0958
 1577SOL    HW1 5803   5.669   4.628   5.167  0.1334 -0.7148  0.4157
 1577SOL    HW2 5804   5.665   4.543   5.041 -0.7427  0.9952 -0.7494
 1578SOL     OW 5805   0.625   4.294   7.314 -0.0679  0.3441  0.1643
 1578SOL    HW1 5806   0.553   4.342   7.356 -0.8547  0.0734 -0.8431
 1578SOL    HW2 5807   0.599   4.287   7.222  1.4916  0.6692 -0.3233
 1579SOL     OW 5808   4.177   7.281   0.895 -0.3311  0.5615 -0.5679
 1579SOL    HW1 5809   4.107   7.297   0.832 -1.0203  1.2356  0.3488
 1579SOL    HW2 5810   4.183   7.185   0.899  0.6112  0.4874 -2.5885
 1580SOL     OW 5811   7.621   6.276   4.618 -0.2560  0.4269 -0.4654
 1580SOL    HW1 5812   7.652   6.188   4.600 -1.5915 -0.2020  0.1013
 1580SOL    HW2 5813   7.694   6.319   4.663 -0.5946 -1.4156  2.0450
 1581SOL     OW 5814   0.869   5.249   0.031  0.3673  0.6327 -0.4540
 1581SOL    HW1 5815   0.838   5.220   0.117 -0.6417  1.4112 -0.5511
 1581SOL    HW2 5816   0.965   5.246   0.039  0.2886 -0.1069  0.4168
 1582SOL     OW 5817   0.650   6.626   7.668  0.7171 -0.1918  0.2037
 1582SOL    HW1 5818   0.570   6.595   7.624  0.5416 -1.0504  1.0799
 1582SOL    HW2 5819   0.645   6.587   7.755  0.6856  2.0515  1.2698
 1583SOL     OW 5820   3.860   2.036   5.557  0.3753 -0.1991 -0.8788
 1583SOL    HW1 5821   3.838   2.062   5.467  2.1706 -0.6734 -1.5033
 1583SOL    HW2 5822   3.786   1.983   5.585  0.4400 -1.3439 -2.6743
 1584SOL     OW 5823   0.088   6.556   5.636  0.1307 -0.0849 -0.2650
 1584SOL    HW1 5824   0.128   6.627   5.586  0.2626  0.3853  0.4996
 1584SOL    HW2 5825   0.154   6.487   5.636  0.6692  0.4139  0.3735
 1585SOL     OW 5826   5.767   3.327   7.844  0.1283 -0.1351  0.2489
 1585SOL    HW1 5827   5.808   3.293   7.765  0.1480 -0.1784  0.2782
 1585SOL    HW2 5828   5.742   3.417   7.821 -4.1428 -1.5100 -1.4333
 1586SOL     OW 5829   6.482   3.905   0.461  0.0486 -0.3622 -0.3765
 1586SOL    HW1 5830   6.560   3.942   0.419  1.0828 -1.2192  0.7163
 1586SOL    HW2 5831   6.417   3.975   0.456  0.6766  0.1706 -1.8341
 1587SOL     OW 5832   5.937   4.230   7.840  0.0808 -0.6400 -0.0913
 1587SOL    HW1 5833   5.851   4.270   7.821  0.5358  0.6843  0.5420
 1587SOL    HW2 5834   5.996   4.270   7.776  0.7636  0.5760  1.2574
 1588SOL     OW 5835   2.187   7.230   5.956 -0.1013  0.1279 -0.3356
 1588SOL    HW1 5836   2.250   7.278   6.009 -0.3676 -0.7446  0.8250
 1588SOL    HW2 5837   2.105   7.235   6.006 -0.3001 -0.8985 -0.5268
 1589SOL     OW 5838   6.143   7.653   2.092  0.0912 -0.1598 -0.2915
 1589SOL    HW1 5839   6.057   7.689   2.069 -0.4926 -1.2149  0.1770
 1589SOL    HW2 5840   6.124   7.567   2.129  1.3154 -0.1771  0.3454
 1590SOL     OW 5841   1.957   4.599   0.494 -0.4112 -0.0176 -0.3945
 1590SOL    HW1 5842   1.903   4.539   0.545  0.7340  0.3254  1.3625
 1590SOL    HW2 5843   1.993   4.659   0.560  1.4545  0.2356 -1.5752
 1591SOL     OW 5844   2.469   1.564   5.524 -0.6467 -0.8991 -0.1403
 1591SOL    HW1 5845   2.502   1.654   5.522  0.2003 -1.2026 -1.3830
 1591SOL    HW2 5846   2.434   1.550   5.436 -3.4052 -0.8892  0.8446
 1592SOL     OW 5847   4.088   1.148   0.864  0.1014  0.2470  0.4935
 1592SOL    HW1 5848   3.997   1.142   0.891 -0.5977  1.3041 -1.4174
 1592SOL    HW2 5849   4.084   1.181   0.774  2.3807  0.5754  0.4527
 1593SOL     OW 5850   4.182   7.753   3.064  0.0221  0.0432  0.4331
 1593SOL    HW1 5851   4.273   7.782   3.057 -0.5324  1.6391 -1.4651
 1593SOL    HW2 5852   4.132   7.835   3.071 -1.4079 -0.6131 -1.3566
 1594SOL     OW 5853   7.539   7.056   5.657 -0.2042 -0.6291 -0.2645
 1594SOL    HW1 5854   7.562   7.089   5.570  1.9340 -0.1776  0.4087
 1594SOL    HW2 5855   7.472   6.990   5.641  0.0163 -0.4313 -2.2323
 1595SOL     OW 5856   3.605   1.055   7.295  0.2935  0.3621  0.9227
 1595SOL    HW1 5857   3.663   1.078   7.368  1.5908 -0.2559  0.1302
 1595SOL    HW2 5858   3.593   0.960   7.304  1.3682  0.0844 -0.2597
 1596SOL     OW 5859   0.517   5.992   1.907 -0.2786  0.5980 -0.2096
 1596SOL    HW1 5860   0.533   6.039   1.989  0.3634  0.6144 -0.3424
 1596SOL    HW2 5861   0.487   6.059   1.846  0.3675  0.7906 -0.3185
 1597SOL     OW 5862   1.323   3.658   6.091  0.3248  0.1198  0.7209
 1597SOL    HW1 5863   1.277   3.615   6.018  0.9700  1.1862 -0.3466
 1597SOL    HW2 5864   1.382   3.591   6.124  1.0528  0.0341 -0.6808
 1598SOL     OW 5865   7.398   1.857   4.743  0.1832 -0.4363  0.1979
 1598SOL    HW1 5866   7.335   1.900   4.801  1.3270  1.9881 -0.2498
 1598SOL    HW2 5867   7.397   1.910   4.663  0.3987 -2.3121 -1.1342
 1599SOL     OW 5868   0.783   2.418   3.190  0.3722 -0.6184  0.4192
 1599SOL    HW1 5869   0.690   2.419   3.168  0.7588 -0.1401 -1.3894
 1599SOL    HW2 5870   0.825   2.376   3.115  1.8070  1.0139  0.2370
 1600SOL     OW 5871   7.943   7.491   2.933 -0.0708  0.0894 -0.4613
 1600SOL    HW1 5872   7.985   7.547   2.867 -0.1674 -1.6618 -2.0840
 1600SOL    HW2 5873   7.851   7.515   2.930  0.2128  1.4723  0.5939
 1601SOL     OW 5874   3.678   2.621   0.911 -0.1183 -0.2729  0.9469
 1601SOL    HW1 5875   3.664   2.707   0.871 -0.8224 -1.1965 -0.9046
 1601SOL    HW2 5876   3.593   2.598   0.949 -0.0910 -0.3826  0.9440
 1602SOL     OW 5877   2.493   3.281   7.033  0.1703  0.3020 -0.4159
 1602SOL    HW1 5878   2.496   3.269   6.938 -1.0487 -0.5677 -0.3662
 1602SOL    HW2 5879   2.422   3.224   7.062  1.5263 -0.6536  1.1991
 1603SOL     OW 5880   3.481   4.288   0.105  0.2554  0.0713 -0.0834
 1603SOL    HW1 5881   3.431   4.206   0.103 -0.9528  0.7931 -0.7179
 1603SOL    HW2 5882   3.465   4.325   0.191 -0.3333  0.3037 -0.2878
 1604SOL     OW 5883   6.128   8.060   4.204 -0.0049 -0.2893  0.7690
 1604SOL    HW1 5884   6.068   8.085   4.274  1.0784 -0.5739  1.8135
 1604SOL    HW2 5885   6.199   8.013   4.247  1.8793  1.5049 -0.1764
 1605SOL     OW 5886   5.643   2.104   3.880  0.5344 -0.3283  0.3011
 1605SOL    HW1 5887   5.702   2.081   3.809  0.4847  1.4484 -0.3792
 1605SOL    HW2 5888   5.699   2.149   3.944  0.0894  0.6636  0.0146
 1606SOL     OW 5889   7.524   1.746   4.247 -0.3113 -0.3654  0.2463
 1606SOL    HW1 5890   7.454   1.744   4.312  1.4072 -0.8688  2.2252
 1606SOL    HW2 5891   7.580   1.671   4.270 -0.0437 -1.0681 -2.3848
 1607SOL     OW 5892   7.053   2.909   3.795 -0.1640  0.2059 -0.2275
 1607SOL    HW1 5893   7.029   2.935   3.885  0.1748 -2.5092  0.7357
 1607SOL    HW2 5894   6.990   2.841   3.772  1.5166 -1.2188 -0.8645
 1608SOL     OW 5895   2.336   2.581   8.050  0.2899  0.2222  0.4548
 1608SOL    HW1 5896   2.257   2.628   8.075  1.4907  2.4164  0.4305
 1608SOL    HW2 5897   2.341   2.507   8.110 -1.5490  0.2667  0.7053
 1609SOL     OW 5898   2.813   0.389   2.779  0.1313  0.1568 -0.0168
 1609SOL    HW1 5899   2.872   0.344   2.839 -1.4029 -1.1438  0.5742
 1609SOL    HW2 5900   2.760   0.446   2.835 -1.4055 -1.1677 -0.0589
 1610SOL     OW 5901   1.480   1.528   6.534 -0.3822  0.2890 -0.6633
 1610SOL    HW1 5902   1.540   1.458   6.559 -1.1105 -1.0780 -2.5493
 1610SOL    HW2 5903   1.518   1.564   6.454 -1.5128  0.0805 -1.3064
 1611SOL     OW 5904   4.022   2.207   5.691  0.2556 -0.1292  0.1209
 1611SOL    HW1 5905   3.989   2.132   5.643 -1.1205 -0.4459  1.4956
 1611SOL    HW2 5906   4.021   2.279   5.628 -0.7337 -0.7053 -0.5368
 1612SOL     OW 5907   3.656   7.769   1.311  0.1364  0.2268  0.1856
 1612SOL    HW1 5908   3.571   7.812   1.317  0.3769  0.7443 -0.0338
 1612SOL    HW2 5909   3.636   7.678   1.291 -0.3953  0.1669  0.9572
 1613SOL     OW 5910   0.596   7.674   7.029 -0.3873 -0.9493  0.3518
 1613SOL    HW1 5911   0.653   7.598   7.016  0.5666 -0.4958  1.6775
 1613SOL    HW2 5912   0.649   7.749   7.004 -0.7943 -0.6032  0.5131
 1614SOL     OW 5913   5.439   2.834   6.725 -0.1082 -0.0774  0.3203
 1614SOL    HW1 5914   5.446   2.779   6.647 -1.2108 -0.4322  0.4496
 1614SOL    HW2 5915   5.418   2.921   6.691  0.1866 -0.0593  0.1843
 1615SOL     OW 5916   7.174   0.403   2.310 -0.1892  0.6584  0.4088
 1615SOL    HW1 5917   7.243   0.409   2.376  0.3817  0.0206 -0.1182
 1615SOL    HW2 5918   7.201   0.332   2.253 -1.8353 -0.3452  0.8086
 1616SOL     OW 5919   4.233   2.864   7.629 -0.3754 -0.4107 -0.2158
 1616SOL    HW1 5920   4.274   2.820   7.705  1.2344 -0.6822 -1.1830
 1616SOL    HW2 5921   4.289   2.940   7.613  0.4979 -1.4190 -2.2915
 1617SOL     OW 5922   8.011   0.060   0.014  0.3320 -0.3938  0.7969
 1617SOL    HW1 5923   8.070   0.111   0.069  1.4480 -1.5197  0.6869
 1617SOL    HW2 5924   8.060   0.046  -0.067 -0.1995 -1.1092  0.5905
 1618SOL     OW 5925   5.699   7.221   8.007 -0.2521  0.0618 -0.6599
 1618SOL    HW1 5926   5.614   7.233   8.050  0.4171 -1.3550  1.2240
 1618SOL    HW2 5927   5.715   7.127   8.012  1.3568  0.2831 -1.0866
 1619SOL     OW 5928   7.152   2.197   5.515  0.4046 -0.1972  0.8729
 1619SOL    HW1 5929   7.187   2.201   5.604 -1.5178 -2.0913  1.7942
 1619SOL    HW2 5930   7.172   2.108   5.485  0.0388  0.0458 -0.1598
 1620SOL     OW 5931   4.424   4.892   2.893  0.2969  0.0524 -0.4824
 1620SOL    HW1 5932   4.425   4.799   2.867 -0.0896 -0.0300 -0.2029
 1620SOL    HW2 5933   4.496   4.931   2.843  1.5806 -0.7493  0.6709
 1621SOL     OW 5934   1.365   5.347   7.598 -0.5276 -0.1304  0.0249
 1621SOL    HW1 5935   1.432   5.344   7.666 -2.5649  0.3430  2.1577
 1621SOL    HW2 5936   1.374   5.435   7.560 -0.8085  0.4827  1.2967
 1622SOL     OW 5937   4.443   1.843   5.906 -0.0062  0.2746  0.1730
 1622SOL    HW1 5938   4.365   1.895   5.926 -0.2695 -0.7121  1.9705
 1622SOL    HW2 5939   4.412   1.774   5.848 -0.0228  1.0804 -0.7924
 1623SOL     OW 5940   6.959   0.233   2.329 -0.4346 -1.1694 -0.4706
 1623SOL    HW1 5941   7.032   0.172   2.318 -0.4460 -1.7594  1.9522
 1623SOL    HW2 5942   7.000   0.319   2.336 -0.1113 -1.3127 -0.5985
 1624SOL     OW 5943   5.065   6.675   1.316 -0.0353  0.0256 -0.1813
 1624SOL    HW1 5944   5.041   6.610   1.249  0.7562 -0.9000  0.4100
 1624SOL    HW2 5945   4.986   6.726   1.329 -0.2646  0.0983 -1.6907
 1625SOL     OW 5946   7.938   7.033   6.531 -0.7459  0.3330  0.0289
 1625SOL    HW1 5947   7.957   7.012   6.623 -0.5635  2.7721  0.6119
 1625SOL    HW2 5948   8.003   6.984   6.482  0.2000  0.2350  1.3200
 1626SOL     OW 5949   4.890   1.479   6.274 -0.3516 -0.0824  0.0792
 1626SOL    HW1 5950   4.916   1.564   6.241  1.3358 -1.1425 -1.5222
 1626SOL    HW2 5951   4.822   1.449   6.214 -0.0340 -0.3896 -0.1318
 1627SOL     OW 5952   7.350   4.124   7.417  0.5141  0.0481 -0.0273
 1627SOL    HW1 5953   7.436   4.097   7.449 -0.2095 -0.0921  1.9948
 1627SOL    HW2 5954   7.360   4.217   7.396  1.0495  0.1543  0.6718
 1628SOL     OW 5955   3.607   3.913   0.702  0.5333  0.7361  0.5371
 1628SOL    HW1 5956   3.517   3.882   0.691  0.2501  1.8848 -0.7241
 1628SOL    HW2 5957   3.600   3.983   0.767  0.6164  0.4451  0.8621
 1629SOL     OW 5958   7.905   6.672   4.359 -0.0528  0.4101 -0.1672
 1629SOL    HW1 5959   7.973   6.739   4.356  1.0730 -0.7100 -0.7254
 1629SOL    HW2 5960   7.927   6.619   4.435 -0.0649 -0.1844 -0.5674
 1630SOL     OW 5961   0.426   7.013   2.445  0.3405 -0.0174 -0.3351
 1630SOL    HW1 5962   0.364   6.942   2.428 -0.9649  1.7061 -3.5333
 1630SOL    HW2 5963   0.511   6.978   2.417  0.3935 -1.3785  1.3225
 1631SOL     OW 5964   6.159   1.791   5.463  0.2124  0.0933  0.0960
 1631SOL    HW1 5965   6.094   1.860   5.473 -0.5516 -0.6226  0.2153
 1631SOL    HW2 5966   6.229   1.815   5.524 -1.3135 -0.6565  2.2885
 1632SOL     OW 5967   7.646   6.223   3.966  0.1999 -0.4970  0.5138
 1632SOL    HW1 5968   7.574   6.160   3.956 -0.1123 -0.2853  1.3320
 1632SOL    HW2 5969   7.605   6.308   3.953  0.7783 -0.4668 -1.4192
 1633SOL     OW 5970   4.426   7.138   0.736  0.2462  0.0334  0.4357
 1633SOL    HW1 5971   4.459   7.055   0.771 -1.6598 -0.5188  1.0513
 1633SOL    HW2 5972   4.503   7.195   0.732  1.0207 -0.6435  3.2549
 1634SOL     OW 5973   3.341   6.735   6.799 -0.2222  0.7583  0.3044
 1634SOL    HW1 5974   3.413   6.756   6.740  0.5894  0.7521  1.2653
 1634SOL    HW2 5975   3.264   6.776   6.759  0.4381  1.3776 -0.3652
 1635SOL     OW 5976   6.730   8.060   4.596  0.2990 -0.1783  0.1278
 1635SOL    HW1 5977   6.714   8.009   4.517  0.1465  0.5970 -0.3555
 1635SOL    HW2 5978   6.803   8.016   4.639  0.7275 -0.3130 -0.7153
 1636SOL     OW 5979   6.878   5.038   5.096 -0.7249  0.0497 -0.1975
 1636SOL    HW1 5980   6.896   5.012   5.187 -1.5937  0.4646  0.1050
 1636SOL    HW2 5981   6.830   4.964   5.059  0.4328 -0.5173 -0.6194
 1637SOL     OW 5982   2.521   7.397   6.830 -0.0318 -0.5032 -0.3550
 1637SOL    HW1 5983   2.426   7.412   6.836 -0.1545 -1.1427 -0.5628
 1637SOL    HW2 5984   2.549   7.450   6.756 -0.2461 -0.3738 -0.3428
 1638SOL     OW 5985   3.111   7.547   3.737 -0.4272  0.0535 -0.1364
 1638SOL    HW1 5986   3.113   7.630   3.785  0.2576  1.1665 -1.9954
 1638SOL    HW2 5987   3.200   7.536   3.705 -1.3172  0.6433 -3.1432
 1639SOL     OW 5988   2.283   5.359   1.554 -0.0282 -0.6605 -0.0809
 1639SOL    HW1 5989   2.270   5.356   1.459  0.4485  1.3765 -0.2526
 1639SOL    HW2 5990   2.196   5.343   1.590 -0.4633 -0.2435 -0.9067
 1640SOL     OW 5991   2.912   1.582   3.558  0.1842  0.0133  0.1154
 1640SOL    HW1 5992   2.840   1.642   3.542 -1.4459 -1.4449  1.4952
 1640SOL    HW2 5993   2.966   1.625   3.625  1.5016  1.7453 -1.9299
 1641SOL     OW 5994   6.353   2.037   0.125 -0.2276  0.7305  0.0542
 1641SOL    HW1 5995   6.314   2.119   0.093 -1.0656  0.3927  0.2036
 1641SOL    HW2 5996   6.279   1.983   0.150  0.3273 -0.0443  0.0587
 1642SOL     OW 5997   4.577   6.387   2.457 -0.3908 -0.2110 -0.2992
 1642SOL    HW1 5998   4.561   6.470   2.502  0.7365  0.2024 -0.6061
 1642SOL    HW2 5999   4.517   6.387   2.383 -0.0834  0.5627 -0.5614
 1643SOL     OW 6000   1.115   2.829   2.726 -0.8751 -0.5481  0.1179
 1643SOL    HW1 6001   1.149   2.775   2.655 -2.0509 -0.8042 -0.2652
 1643SOL    HW2 6002   1.080   2.767   2.789  2.4639 -0.5159  2.2751
 1644SOL     OW 6003   0.868   4.896   7.588  1.1000  0.0945 -0.4556
 1644SOL    HW1 6004   0.872   4.875   7.495  0.2700 -0.1078 -0.4567
 1644SOL    HW2 6005   0.837   4.815   7.629 -2.5801  1.2626 -0.4961
 1645SOL     OW 6006   6.403   3.447   0.895 -0.0055  0.0368  0.7019
 1645SOL    HW1 6007   6.347   3.465   0.820 -0.7072 -0.4672  1.0821
 1645SOL    HW2 6008   6.369   3.364   0.930  0.0006  0.4953  1.8417
 1646SOL     OW 6009   8.147   4.243   5.205  0.2664 -0.1918 -0.1516
 1646SOL    HW1 6010   8.152   4.155   5.170 -2.0896 -0.5531  0.2314
 1646SOL    HW2 6011   8.142   4.231   5.300 -0.0900  0.3294 -0.0980
 1647SOL     OW 6012   3.292   3.120   6.787  0.1457  0.2963 -0.0463
 1647SOL    HW1 6013   3.342   3.197   6.758 -0.2635  0.0347 -1.5566
 1647SOL    HW2 6014   3.355   3.048   6.784  0.0097  0.1968 -0.7273
 1648SOL     OW 6015   2.383   1.729   2.980 -0.5389 -0.3885  0.1744
 1648SOL    HW1 6016   2.373   1.684   2.896  0.7771 -0.9288  0.2689
 1648SOL    HW2 6017   2.346   1.816   2.966  0.4763 -0.1450 -1.2618
 1649SOL     OW 6018   3.262   1.845   5.732  0.0146 -0.5598  0.0639
 1649SOL    HW1 6019   3.206   1.802   5.797  0.4640 -0.2822  0.6484
 1649SOL    HW2 6020   3.221   1.825   5.648 -0.8662 -0.4938  0.4698
 1650SOL     OW 6021   3.125   3.744   0.421 -0.3456  0.0412 -0.4788
 1650SOL    HW1 6022   3.123   3.823   0.476  0.1392  0.1747 -0.6528
 1650SOL    HW2 6023   3.043   3.699   0.442  0.3731 -0.5194  1.2565
 1651SOL     OW 6024   6.780   5.045   1.149 -0.1853  0.3014  0.1196
 1651SOL    HW1 6025   6.855   5.045   1.089 -0.2354  1.9335  0.0371
 1651SOL    HW2 6026   6.729   5.121   1.124 -1.3009 -0.1630  0.9225
 1652SOL     OW 6027   5.370   3.543   3.555 -0.3742 -0.6538  0.1125
 1652SOL    HW1 6028   5.436   3.550   3.624 -0.2303 -1.5096  0.0787
 1652SOL    HW2 6029   5.400   3.604   3.487  0.6049 -1.3160 -0.0733
 1653SOL     OW 6030   6.016   4.181   2.350 -0.1547  0.6369  0.6065
 1653SOL    HW1 6031   6.054   4.228   2.424  0.3046 -2.0123  2.1706
 1653SOL    HW2 6032   5.925   4.166   2.376  0.5022 -2.0602  1.6906
 1654SOL     OW 6033   0.398   5.102   4.185 -0.4462  0.0164  0.4844
 1654SOL    HW1 6034   0.314   5.074   4.150  0.4023 -0.2010 -1.5115
 1654SOL    HW2 6035   0.443   5.021   4.207 -0.5211  0.1157  1.0401
 1655SOL     OW 6036   4.262   8.083   6.821  0.2743  0.2818 -0.4013
 1655SOL    HW1 6037   4.272   8.054   6.911 -1.2095 -1.5960 -0.7575
 1655SOL    HW2 6038   4.336   8.043   6.775  0.9535  1.1256 -0.0555
 1656SOL     OW 6039   6.745   0.649   1.384 -0.3942  0.4263  0.0406
 1656SOL    HW1 6040   6.817   0.596   1.420 -0.9359  1.0490  2.2171
 1656SOL    HW2 6041   6.667   0.596   1.400 -0.6784  0.8294 -0.0303
 1657SOL     OW 6042   2.185   0.906   6.728  0.4923 -0.1365  0.1243
 1657SOL    HW1 6043   2.255   0.854   6.768  0.4211  0.3527  0.8901
 1657SOL    HW2 6044   2.192   0.886   6.634  0.5832 -1.3882  0.3771
 1658SOL     OW 6045   4.725   4.332   0.338  0.5900 -0.0819 -0.5078
 1658SOL    HW1 6046   4.761   4.245   0.354 -0.5071 -0.2806  1.2552
 1658SOL    HW2 6047   4.796   4.392   0.358  0.5949 -0.5256  0.9437
 1659SOL     OW 6048   4.846   4.059   1.797  0.5468  0.1245  0.1146
 1659SOL    HW1 6049   4.921   4.001   1.782  0.0260 -0.4999 -0.0831
 1659SOL    HW2 6050   4.873   4.114   1.871  1.6748  0.7313 -0.7234
 1660SOL     OW 6051   7.446   5.210   5.214  0.0185  0.1134 -0.5955
 1660SOL    HW1 6052   7.519   5.159   5.179  0.3046  0.4787 -0.5327
 1660SOL    HW2 6053   7.485   5.293   5.240 -0.5040  0.5039 -1.0297
 1661SOL     OW 6054   5.368   7.887   4.531 -0.1429 -0.1327 -0.4798
 1661SOL    HW1 6055   5.338   7.851   4.614 -0.0818 -3.1875 -1.6494
 1661SOL    HW2 6056   5.288   7.917   4.488 -0.0603  2.5209  1.0327
 1662SOL     OW 6057   5.861   1.333   6.267 -0.1964  0.3429  0.5361
 1662SOL    HW1 6058   5.930   1.312   6.204 -0.7777 -3.0024  0.8604
 1662SOL    HW2 6059   5.785   1.284   6.236 -1.2326  0.6640  2.4630
 1663SOL     OW 6060   4.517   5.799   3.554  0.6171 -0.3361 -0.0253
 1663SOL    HW1 6061   4.523   5.836   3.466  2.2168 -0.2309  0.1138
 1663SOL    HW2 6062   4.607   5.786   3.582  0.1571 -0.1192  1.7167
 1664SOL     OW 6063   6.398   7.701   1.839 -0.4634  0.8603  0.2544
 1664SOL    HW1 6064   6.438   7.711   1.925 -2.1903 -1.7885  1.4908
 1664SOL    HW2 6065   6.359   7.614   1.840  2.1480 -0.7074 -4.3871
 1665SOL     OW 6066   4.016   4.639   3.680 -0.4579 -0.3554  0.1768
 1665SOL    HW1 6067   4.105   4.660   3.649 -0.5738  0.4996  0.3864
 1665SOL    HW2 6068   3.989   4.565   3.627  0.1778 -0.2748 -0.2740
 1666SOL     OW 6069   7.683   0.864   4.650  0.2053  0.2955 -0.5707
 1666SOL    HW1 6070   7.610   0.803   4.659  0.8955 -0.4107  0.4411
 1666SOL    HW2 6071   7.658   0.921   4.577  0.5926 -2.7203 -3.2773
 1667SOL     OW 6072   4.189   0.967   3.883  0.4634  0.2095  0.5283
 1667SOL    HW1 6073   4.211   0.927   3.799  0.2702  1.1514  0.0127
 1667SOL    HW2 6074   4.103   1.008   3.869  1.2430  1.9556  0.6056
 1668SOL     OW 6075   2.094   1.094   7.615  0.4216 -0.2938  0.1038
 1668SOL    HW1 6076   1.999   1.083   7.621  0.2382  1.6231  1.5799
 1668SOL    HW2 6077   2.130   1.019   7.662 -0.2617 -1.7194 -1.5274
 1669SOL     OW 6078   5.660   8.026   1.179 -1.0196 -0.2407  0.5821
 1669SOL    HW1 6079   5.706   7.963   1.234 -0.7808 -0.0168  0.6422
 1669SOL    HW2 6080   5.644   8.101   1.236  0.6901  0.6739 -0.0588
 1670SOL     OW 6081   7.587   1.679   0.047  0.5265  0.5191  0.3232
 1670SOL    HW1 6082   7.660   1.618   0.059  1.2527  1.0285 -1.2869
 1670SOL    HW2 6083   7.588   1.700  -0.047 -2.6798 -0.7031 -0.1148
 1671SOL     OW 6084   4.263   4.441   2.765  0.3757  0.0092  0.5872
 1671SOL    HW1 6085   4.313   4.359   2.756 -0.7248 -0.6471  0.3492
 1671SOL    HW2 6086   4.208   4.444   2.687  0.7334  1.2195  0.3699
 1672SOL     OW 6087   2.491   2.188   0.406  0.0972 -0.3568 -0.6387
 1672SOL    HW1 6088   2.441   2.114   0.372  0.7651 -0.5968 -1.1272
 1672SOL    HW2 6089   2.582   2.160   0.398  0.3863  0.7452 -1.3766
 1673SOL     OW 6090   3.993   5.243   5.079  0.0301  0.3258  0.2383
 1673SOL    HW1 6091   4.015   5.168   5.023  2.0812 -0.4161  1.9126
 1673SOL    HW2 6092   4.043   5.316   5.042 -1.7294  0.8596 -1.2084
 1674SOL     OW 6093   1.657   6.666   2.049  0.1403  0.0589  0.5989
 1674SOL    HW1 6094   1.578   6.611   2.052  0.6028 -0.5902  1.2324
 1674SOL    HW2 6095   1.723   6.616   2.098  0.7819  0.8536  0.5673
 1675SOL     OW 6096   6.236   4.949   5.452  0.7928 -0.0694  0.0205
 1675SOL    HW1 6097   6.197   4.934   5.366  2.4652  0.0699 -0.7965
 1675SOL    HW2 6098   6.294   4.874   5.465  1.6753  0.6494  0.3468
 1676SOL     OW 6099   7.848   3.431   5.802 -0.6668  0.3336 -0.0800
 1676SOL    HW1 6100   7.843   3.363   5.735  0.2847 -0.4027  0.5641
 1676SOL    HW2 6101   7.849   3.383   5.885  1.5125  0.9959  0.3522
 1677SOL     OW 6102   4.715   2.832   3.782  0.0535 -0.2561 -0.1457
 1677SOL    HW1 6103   4.632   2.844   3.736 -0.0375 -1.5783 -0.3637
 1677SOL    HW2 6104   4.697   2.861   3.871 -0.0321  1.4451 -0.6648
 1678SOL     OW 6105   4.594   3.576   2.163 -0.1935  0.4995 -0.0605
 1678SOL    HW1 6106   4.639   3.563   2.079 -0.8618  0.7646 -0.4728
 1678SOL    HW2 6107   4.650   3.535   2.228  0.3311  0.2850 -0.6458
 1679SOL     OW 6108   6.473   8.028   1.211 -0.0965  0.4243 -0.4258
 1679SOL    HW1 6109   6.564   8.018   1.184  0.2643  0.9069  0.5510
 1679SOL    HW2 6110   6.459   8.123   1.215 -0.6412  0.3554 -0.5398
 1680SOL     OW 6111   6.346   7.521   7.676  0.5780  0.0698 -0.7330
 1680SOL    HW1 6112   6.322   7.461   7.747 -0.9218  0.7466 -0.6350
 1680SOL    HW2 6113   6.438   7.499   7.657  0.9088 -0.3908  1.1392
 1681SOL     OW 6114   3.871   1.058   5.924  0.0258 -0.0734 -0.5694
 1681SOL    HW1 6115   3.800   1.121   5.915 -1.0243 -1.3263 -1.4547
 1681SOL    HW2 6116   3.941   1.092   5.869  0.3497  1.4306  0.6910
 1682SOL     OW 6117   3.330   5.265   0.342 -0.3514  0.1322 -0.7949
 1682SOL    HW1 6118   3.337   5.334   0.277 -0.7084 -0.9154 -1.9946
 1682SOL    HW2 6119   3.407   5.276   0.398  0.9284  0.0265 -2.4562
 1683SOL     OW 6120   2.845   7.614   3.637  0.4720  0.3336 -0.0165
 1683SOL    HW1 6121   2.929   7.588   3.675 -0.1832 -0.6492  0.8150
 1683SOL    HW2 6122   2.784   7.613   3.711 -0.3275  0.7782 -0.6577
 1684SOL     OW 6123   2.877   6.644   5.798 -0.6563  0.7331  0.0735
 1684SOL    HW1 6124   2.890   6.731   5.835 -0.0493  0.0040  1.6399
 1684SOL    HW2 6125   2.910   6.652   5.708  0.2733  1.8700  0.4881
 1685SOL     OW 6126   0.277   4.761   0.695  0.7270 -0.0952 -0.4614
 1685SOL    HW1 6127   0.196   4.711   0.711 -0.0355  0.9463 -0.9798
 1685SOL    HW2 6128   0.342   4.694   0.675 -0.1666 -0.9229 -0.6897
 1686SOL     OW 6129   4.771   0.876   0.892 -0.0006 -0.3127  0.6736
 1686SOL    HW1 6130   4.716   0.918   0.826  0.1154 -0.1972  0.6491
 1686SOL    HW2 6131   4.859   0.877   0.855  0.3554  1.1662  1.4673
 1687SOL     OW 6132   3.146   5.797   6.873 -0.4793 -0.2424  0.4673
 1687SOL    HW1 6133   3.126   5.854   6.798  0.6425  0.2984  0.5690
 1687SOL    HW2 6134   3.232   5.760   6.853 -0.6749 -0.9856  0.9645
 1688SOL     OW 6135   4.489   1.745   4.963  0.7200 -0.0466  0.0626
 1688SOL    HW1 6136   4.462   1.825   4.918  1.1370 -0.2387 -0.5419
 1688SOL    HW2 6137   4.529   1.776   5.045 -1.4397  0.2335  1.0709
 1689SOL     OW 6138   6.075   3.598   3.802  0.0956  0.3671 -0.1665
 1689SOL    HW1 6139   6.032   3.545   3.735  0.0518 -0.3405  0.3981
 1689SOL    HW2 6140   6.067   3.545   3.882  0.3783  1.0698  0.3351
 1690SOL     OW 6141   1.860   7.996   0.158 -0.0598  0.7968 -0.2473
 1690SOL    HW1 6142   1.864   7.958   0.070 -1.2458 -0.4995  0.2265
 1690SOL    HW2 6143   1.952   8.005   0.184  0.2970 -1.3064 -0.5977
 1691SOL     OW 6144   4.434   2.670   2.623  0.4480  0.1630 -0.0015
 1691SOL    HW1 6145   4.411   2.600   2.562 -0.0016  0.7825 -0.5585
 1691SOL    HW2 6146   4.427   2.629   2.710 -1.1301 -0.1343 -0.2372
 1692SOL     OW 6147   3.983   6.162   7.035 -0.1956  0.4700  0.0763
 1692SOL    HW1 6148   4.009   6.214   7.111  1.0157  1.0146 -0.6701
 1692SOL    HW2 6149   4.063   6.116   7.010 -1.0454 -1.1590  0.2257
 1693SOL     OW 6150   3.167   0.834   0.433 -0.0536  0.0760  0.3075
 1693SOL    HW1 6151   3.211   0.877   0.507 -0.3588  0.8020  0.0769
 1693SOL    HW2 6152   3.083   0.879   0.425  0.3795  0.6920 -1.1021
 1694SOL     OW 6153   7.210   5.910   1.105  0.1902 -0.1855  0.3455
 1694SOL    HW1 6154   7.300   5.894   1.078  0.4964 -0.5929  1.5613
 1694SOL    HW2 6155   7.212   5.905   1.200 -1.3117 -1.2331  0.3528
 1695SOL     OW 6156   7.570   6.497   4.003 -0.4778 -0.4201  0.0936
 1695SOL    HW1 6157   7.507   6.540   3.945  0.6953 -0.2955 -1.1015
 1695SOL    HW2 6158   7.605   6.568   4.057  0.0221 -0.1812 -0.5391
 1696SOL     OW 6159   3.954   5.156   7.902  0.1373 -0.4241 -0.3881
 1696SOL    HW1 6160   3.938   5.250   7.908 -0.3450 -0.5022 -0.4510
 1696SOL    HW2 6161   3.871   5.119   7.873 -0.5923 -1.1860  2.3938
 1697SOL     OW 6162   6.250   5.696   4.853  0.1837  0.6326 -0.1059
 1697SOL    HW1 6163   6.183   5.644   4.897  0.4382  0.8098  0.5139
 1697SOL    HW2 6164   6.255   5.777   4.905  1.7805  0.0887  0.6604
 1698SOL     OW 6165   3.821   3.733   6.200 -0.4411 -0.3875 -0.0016
 1698SOL    HW1 6166   3.726   3.723   6.201 -0.4764 -0.0432  0.2934
 1698SOL    HW2 6167   3.853   3.660   6.253 -0.5574 -0.3310  0.1473
 1699SOL     OW 6168   6.424   1.757   6.436 -0.6296 -0.2298 -0.0687
 1699SOL    HW1 6169   6.405   1.797   6.521  1.7487  1.0102 -0.0101
 1699SOL    HW2 6170   6.403   1.825   6.372 -1.7466 -0.9113 -0.4655
 1700SOL     OW 6171   0.835   6.527   1.679 -0.2782  0.5861  0.5621
 1700SOL    HW1 6172   0.806   6.437   1.666 -0.3380  0.7432 -0.4351
 1700SOL    HW2 6173   0.779   6.580   1.622 -1.5753  1.5017  2.5817
 1701SOL     OW 6174   7.518   5.893   3.777  0.7686  0.4745 -0.3147
 1701SOL    HW1 6175   7.453   5.823   3.780  1.9146 -0.7454 -2.0264
 1701SOL    HW2 6176   7.480   5.963   3.829 -0.8533 -1.0569  0.6767
 1702SOL     OW 6177   7.672   7.872   4.248 -0.6610  0.0345  0.2308
 1702SOL    HW1 6178   7.740   7.919   4.297 -0.7363  1.9391 -1.3640
 1702SOL    HW2 6179   7.721   7.813   4.191 -0.4746 -0.3556  0.7807
 1703SOL     OW 6180   7.821   4.395   0.907 -0.0952  0.0736 -0.1213
 1703SOL    HW1 6181   7.730   4.375   0.884 -0.4841 -0.6949  1.9271
 1703SOL    HW2 6182   7.872   4.329   0.860 -0.5216  0.6834 -1.5173
 1704SOL     OW 6183   1.019   5.982   7.722  0.0667 -0.0046 -0.9155
 1704SOL    HW1 6184   1.094   6.015   7.672 -0.9968  0.9981 -1.9267
 1704SOL    HW2 6185   0.991   6.057   7.774  0.3320 -0.6592  0.1955
 1705SOL     OW 6186   2.956   1.918   3.486 -0.1844  0.2440  0.3630
 1705SOL    HW1 6187   2.921   1.853   3.424 -1.4606  0.1766  1.1116
 1705SOL    HW2 6188   3.049   1.922   3.466 -0.1364 -1.5485  0.0286
 1706SOL     OW 6189   7.912   7.710   7.894 -0.3040  0.3769 -0.0859
 1706SOL    HW1 6190   7.844   7.685   7.956 -0.7836 -0.2044 -0.8205
 1706SOL    HW2 6191   7.965   7.774   7.941 -1.5982  1.1549  0.3654
 1707SOL     OW 6192   6.002   7.002   4.019 -0.3503 -0.6562 -0.5289
 1707SOL    HW1 6193   5.931   7.022   3.959 -0.7503  1.5825  0.5811
 1707SOL    HW2 6194   6.051   7.084   4.027  0.6531 -1.3493  0.9360
 1708SOL     OW 6195   7.049   8.022   5.036  0.4591 -0.2058 -0.1200
 1708SOL    HW1 6196   7.021   7.930   5.045  2.0125 -0.5745  1.7459
 1708SOL    HW2 6197   6.985   8.071   5.088 -0.2453 -0.2418 -0.9376
 1709SOL     OW 6198   3.923   1.769   6.750 -0.4398 -0.0368  0.3980
 1709SOL    HW1 6199   4.003   1.718   6.733 -1.8252 -1.5273 -2.4261
 1709SOL    HW2 6200   3.898   1.746   6.839  2.3234  0.6343  1.4359
 1710SOL     OW 6201   1.763   1.769   2.581 -0.9059  0.6236 -0.2151
 1710SOL    HW1 6202   1.738   1.853   2.621  0.6845  0.6129  0.9094
 1710SOL    HW2 6203   1.859   1.768   2.586 -0.8892 -1.2517 -0.2332
 1711SOL     OW 6204   2.867   0.723   4.761  0.6352  0.2000 -0.0021
 1711SOL    HW1 6205   2.801   0.654   4.774  0.4538  0.4749  0.6005
 1711SOL    HW2 6206   2.818   0.795   4.722  0.3788  0.7167  1.2310
 1712SOL     OW 6207   4.094   2.290   7.793  0.3173  0.2024  0.1634
 1712SOL    HW1 6208   4.101   2.325   7.705 -1.3074  2.9617  1.0204
 1712SOL    HW2 6209   4.087   2.195   7.781 -0.0398  0.5187 -2.6664
 1713SOL     OW 6210   3.098   0.405   7.784  0.8411  0.2723 -0.2683
 1713SOL    HW1 6211   3.130   0.447   7.864  0.8181 -0.7850  0.3277
 1713SOL    HW2 6212   3.024   0.459   7.756  1.0296  0.8196  0.2624
 1714SOL     OW 6213   5.025   7.973   0.917 -0.0347  0.4390 -0.4422
 1714SOL    HW1 6214   5.060   7.915   0.985  0.0938  0.5295 -0.4307
 1714SOL    HW2 6215   5.101   8.002   0.868 -0.0848  0.6823 -0.3816
 1715SOL     OW 6216   4.714   7.818   2.164  0.6123 -0.2876  0.0651
 1715SOL    HW1 6217   4.627   7.810   2.204  1.7762 -0.5165  2.8016
 1715SOL    HW2 6218   4.752   7.730   2.172  0.0477 -1.1047 -4.1049
 1716SOL     OW 6219   2.361   1.516   5.281 -0.0090 -0.0705  0.0204
 1716SOL    HW1 6220   2.347   1.605   5.250 -0.8074 -0.2196 -0.0652
 1716SOL    HW2 6221   2.431   1.482   5.226  0.0528  0.3823 -0.1864
 1717SOL     OW 6222   3.638   5.847   5.147 -0.1161  0.3700 -1.4106
 1717SOL    HW1 6223   3.674   5.816   5.064  0.1348 -2.1756 -0.4399
 1717SOL    HW2 6224   3.715   5.866   5.201 -0.1372 -1.6821 -0.5383
 1718SOL     OW 6225   3.681   5.146   1.640 -0.1654 -0.3220 -0.0174
 1718SOL    HW1 6226   3.676   5.076   1.706  1.6359  0.0175  0.5178
 1718SOL    HW2 6227   3.773   5.152   1.617 -0.5241  0.7157 -1.3693
 1719SOL     OW 6228   2.967   3.172   1.979 -0.1523  0.0152  0.5846
 1719SOL    HW1 6229   2.985   3.263   1.954 -0.5212 -0.5094 -1.8069
 1719SOL    HW2 6230   2.918   3.180   2.061 -1.1654  2.0624 -0.1329
 1720SOL     OW 6231   3.950   5.685   3.612 -0.0936 -0.1191 -0.2072
 1720SOL    HW1 6232   3.998   5.606   3.586  0.6762 -0.0953  1.0861
 1720SOL    HW2 6233   3.934   5.674   3.706 -2.6535 -0.1170 -0.5635
 1721SOL     OW 6234   5.616   7.426   5.264  0.1007  0.4389 -0.0219
 1721SOL    HW1 6235   5.701   7.416   5.222  0.2707  0.8413  0.2152
 1721SOL    HW2 6236   5.592   7.337   5.291 -0.0843  0.1519 -1.0832
 1722SOL     OW 6237   6.215   7.059   1.431 -0.1359 -0.2584  0.1747
 1722SOL    HW1 6238   6.309   7.074   1.419 -0.3809  0.4719 -1.1142
 1722SOL    HW2 6239   6.176   7.088   1.348 -1.4622 -0.9140  0.5416
 1723SOL     OW 6240   5.106   4.879   2.322 -0.6476  0.1937 -0.4086
 1723SOL    HW1 6241   5.077   4.817   2.255 -2.4713  0.7069 -0.1496
 1723SOL    HW2 6242   5.138   4.954   2.272 -1.4209  0.3242 -0.7283
 1724SOL     OW 6243   1.577   7.660   3.529  0.2749 -0.4295 -0.2394
 1724SOL    HW1 6244   1.544   7.600   3.595 -0.5797 -0.8525 -1.0306
 1724SOL    HW2 6245   1.502   7.715   3.507  0.8986  0.5915  0.0823
 1725SOL     OW 6246   1.183   2.017   8.000  0.0301  0.3575 -0.1241
 1725SOL    HW1 6247   1.217   2.097   7.960  1.8355 -0.3606 -0.1093
 1725SOL    HW2 6248   1.224   1.946   7.950 -0.6561 -0.5729  0.5909
 1726SOL     OW 6249   6.712   2.945   3.599 -0.5190 -0.7520 -0.1128
 1726SOL    HW1 6250   6.656   3.016   3.632 -1.2600 -2.0313  1.4932
 1726SOL    HW2 6251   6.736   2.895   3.676  0.5070 -1.9214 -1.1433
 1727SOL     OW 6252   5.637   1.820   2.537  0.1620 -0.1719  0.6380
 1727SOL    HW1 6253   5.590   1.836   2.619  1.1711 -2.7297  1.8211
 1727SOL    HW2 6254   5.724   1.856   2.551 -0.1036  0.7269  0.0751
 1728SOL     OW 6255   7.324   1.541   0.958  0.0804  0.3985  0.4855
 1728SOL    HW1 6256   7.231   1.562   0.971  0.1758  1.6234 -0.5157
 1728SOL    HW2 6257   7.352   1.502   1.040 -1.6504 -1.2917  0.3499
 1729SOL     OW 6258   5.012   5.839   5.151  0.1472  0.2791 -0.0582
 1729SOL    HW1 6259   4.989   5.747   5.143  0.6892  0.2768 -2.3406
 1729SOL    HW2 6260   5.065   5.844   5.231 -1.8036 -0.9274  1.3876
 1730SOL     OW 6261   5.884   6.605   3.008  0.3189  0.1869  0.0705
 1730SOL    HW1 6262   5.960   6.633   3.058 -0.3757  0.8225  0.7900
 1730SOL    HW2 6263   5.824   6.680   3.010 -0.9669 -0.8104  0.8107
 1731SOL     OW 6264   5.535   6.295   7.956 -0.1844  0.7455 -0.0959
 1731SOL    HW1 6265   5.444   6.266   7.968  0.4353 -1.6280 -0.5716
 1731SOL    HW2 6266   5.582   6.259   8.031  0.3541  2.2328  0.3192
 1732SOL     OW 6267   1.328   2.486   3.623  0.5185 -0.0706 -0.1797
 1732SOL    HW1 6268   1.386   2.452   3.691  1.3503 -0.3641 -1.0099
 1732SOL    HW2 6269   1.304   2.410   3.571  1.3493  0.3912 -1.2785
 1733SOL     OW 6270   1.377   2.576   5.343  0.2572  0.2612 -0.0839
 1733SOL    HW1 6271   1.447   2.640   5.352 -0.8128  1.4668 -0.0762
 1733SOL    HW2 6272   1.358   2.573   5.249  0.1833  0.0896 -0.0656
 1734SOL     OW 6273   8.046   7.732   5.833 -0.3103 -0.2918 -0.3036
 1734SOL    HW1 6274   8.030   7.807   5.775  2.2916  1.0381  0.5087
 1734SOL    HW2 6275   8.012   7.761   5.918 -2.1202 -1.3458 -0.6350
 1735SOL     OW 6276   8.126   3.272   2.406  0.0491 -0.2556 -0.6985
 1735SOL    HW1 6277   8.145   3.327   2.482 -2.8971 -0.0974  0.0493
 1735SOL    HW2 6278   8.206   3.222   2.391  0.8763  0.0475  2.2346
 1736SOL     OW 6279   5.150   2.985   4.591 -0.0034  0.2943 -0.2776
 1736SOL    HW1 6280   5.063   2.946   4.583  0.4697 -0.5247 -1.8698
 1736SOL    HW2 6281   5.153   3.050   4.520  0.6925  0.2780 -0.2633
 1737SOL     OW 6282   4.328   1.758   7.672 -0.1814  0.4284  0.1208
 1737SOL    HW1 6283   4.380   1.680   7.694 -0.3391  0.4023  0.4199
 1737SOL    HW2 6284   4.253   1.723   7.624  0.3445  0.5232 -0.7779
 1738SOL     OW 6285   5.078   0.039   7.006  0.7189 -0.0736 -0.3236
 1738SOL    HW1 6286   5.041   0.122   7.034 -1.2539  0.2518 -3.4029
 1738SOL    HW2 6287   5.164   0.036   7.047 -1.1979  0.8032  4.3787
 1739SOL     OW 6288   2.590   2.400   1.307 -0.0243 -0.3400  0.0176
 1739SOL    HW1 6289   2.539   2.478   1.284 -0.4169  0.2041  2.4637
 1739SOL    HW2 6290   2.678   2.417   1.274 -0.2180  0.9546  0.1247
 1740SOL     OW 6291   7.708   0.058   8.149  0.2382 -0.5481  0.0513
 1740SOL    HW1 6292   7.788   0.106   8.133 -1.5538  2.9764  0.7660
 1740SOL    HW2 6293   7.708  -0.011   8.082  3.6554 -0.5605 -0.1039
 1741SOL     OW 6294   7.214   2.075   0.281  0.2504 -0.5501  0.2529
 1741SOL    HW1 6295   7.155   2.138   0.240  1.5125  0.6727  0.2235
 1741SOL    HW2 6296   7.165   2.043   0.357 -0.7977 -0.2920 -0.2883
 1742SOL     OW 6297   7.866   7.343   5.451  0.1257  0.7928 -0.0606
 1742SOL    HW1 6298   7.950   7.342   5.404 -0.5800  3.8014 -1.6568
 1742SOL    HW2 6299   7.886   7.382   5.536  0.3705  1.4605 -0.4181
 1743SOL     OW 6300   6.975   8.103   8.035 -0.4659  0.1555 -0.1827
 1743SOL    HW1 6301   7.032   8.117   8.111  0.1274 -2.7137  0.0313
 1743SOL    HW2 6302   6.900   8.161   8.051  0.3263  0.7320  1.8300
 1744SOL     OW 6303   2.302   0.278   1.436  0.2689  0.5235  0.1991
 1744SOL    HW1 6304   2.278   0.188   1.455  0.5507  0.1670 -1.0519
 1744SOL    HW2 6305   2.386   0.291   1.480  1.3589 -0.5676 -1.4452
 1745SOL     OW 6306   7.172   1.895   7.820  0.6341 -0.5137 -0.2747
 1745SOL    HW1 6307   7.080   1.876   7.837 -0.0902  0.7548 -2.4024
 1745SOL    HW2 6308   7.210   1.907   7.907 -1.2600 -0.7738  0.6478
 1746SOL     OW 6309   1.721   4.359   3.347 -0.5037 -0.2332  0.5183
 1746SOL    HW1 6310   1.640   4.408   3.364  0.5137  1.7260 -0.0226
 1746SOL    HW2 6311   1.693   4.267   3.347 -2.6418  0.3516  0.8023
 1747SOL     OW 6312   3.904   4.821   7.095 -0.2192 -0.1271  0.0579
 1747SOL    HW1 6313   3.879   4.858   7.010  1.1106  0.5258 -0.0678
 1747SOL    HW2 6314   3.995   4.847   7.107 -0.3316 -0.3581  1.6096
 1748SOL     OW 6315   3.652   5.379   5.471 -0.3907  0.1989 -0.5701
 1748SOL    HW1 6316   3.687   5.337   5.392 -1.3604 -2.0985  0.1164
 1748SOL    HW2 6317   3.714   5.355   5.540 -1.1512 -0.4646 -0.0989
 1749SOL     OW 6318   3.206   0.644   6.099  0.0168 -0.5090  0.1941
 1749SOL    HW1 6319   3.268   0.716   6.110  0.1617 -0.7403  0.8785
 1749SOL    HW2 6320   3.231   0.604   6.016  1.0034 -0.8170  0.6362
 1750SOL     OW 6321   1.029   1.635   5.355 -0.5236 -0.6039  0.0756
 1750SOL    HW1 6322   1.008   1.644   5.262  0.2301 -0.5937 -0.1012
 1750SOL    HW2 6323   0.998   1.716   5.395  1.0375  0.3450 -0.5375
 1751SOL     OW 6324   1.057   0.904   5.676  0.3324 -0.3438 -0.1596
 1751SOL    HW1 6325   1.110   0.983   5.685  0.6309 -0.5791  0.1868
 1751SOL    HW2 6326   1.059   0.863   5.762 -0.3542 -0.3993 -0.1606
 1752SOL     OW 6327   1.044   0.551   5.550  0.0702  0.0335  0.1953
 1752SOL    HW1 6328   1.111   0.482   5.553  0.5869  0.5359  2.3397
 1752SOL    HW2 6329   1.080   0.617   5.491  0.9664 -0.2179  0.4339
 1753SOL     OW 6330   5.510   5.383   5.937 -0.1059 -0.1536  0.0469
 1753SOL    HW1 6331   5.489   5.291   5.917 -0.3001 -0.0207 -0.3751
 1753SOL    HW2 6332   5.593   5.379   5.984 -1.1435 -0.7113  1.9426
 1754SOL     OW 6333   4.451   0.730   6.149  0.1872 -0.1975 -0.1630
 1754SOL    HW1 6334   4.389   0.741   6.222  0.9509 -0.7294  0.5806
 1754SOL    HW2 6335   4.397   0.699   6.076 -0.9239  2.1154 -0.4172
 1755SOL     OW 6336   6.673   5.604   0.357 -0.3537 -0.9041 -0.0180
 1755SOL    HW1 6337   6.747   5.583   0.415  0.5857 -0.1733 -0.9122
 1755SOL    HW2 6338   6.622   5.668   0.406  1.4922  1.2196 -0.6827
 1756SOL     OW 6339   2.834   6.405   5.912  0.3262  0.0714 -0.4663
 1756SOL    HW1 6340   2.857   6.485   5.866  1.9984  1.2722  2.1810
 1756SOL    HW2 6341   2.749   6.423   5.950  0.5384  0.4801 -0.1748
 1757SOL     OW 6342   7.214   2.200   5.769 -0.2953  0.5761 -0.3895
 1757SOL    HW1 6343   7.149   2.135   5.795 -0.0521 -0.7090 -2.6426
 1757SOL    HW2 6344   7.291   2.179   5.822  0.2152 -1.9582 -1.9265
 1758SOL     OW 6345   1.383   6.512   7.196 -0.5579  0.5513 -0.0812
 1758SOL    HW1 6346   1.453   6.537   7.136  0.4529 -0.2820  0.7174
 1758SOL    HW2 6347   1.308   6.565   7.169  0.7231  2.4003 -0.1431
 1759SOL     OW 6348   5.011   5.255   6.820  0.1163 -0.4869 -0.2107
 1759SOL    HW1 6349   4.923   5.217   6.826 -0.3085  0.5219  0.2609
 1759SOL    HW2 6350   5.036   5.272   6.911 -0.1547  1.3170 -0.4358
 1760SOL     OW 6351   8.018   2.991   1.967  0.2887  0.3734  0.6286
 1760SOL    HW1 6352   8.095   3.034   2.004  0.8533 -0.0379 -0.0536
 1760SOL    HW2 6353   7.993   3.046   1.893  1.1888 -0.5798 -0.4306
 1761SOL     OW 6354   4.286   4.766   6.908  0.2802  0.0491  0.0100
 1761SOL    HW1 6355   4.221   4.709   6.950  0.8454 -0.1649  0.6346
 1761SOL    HW2 6356   4.246   4.793   6.826  0.0628 -1.4200 -0.4004
 1762SOL     OW 6357   0.690   7.346   4.062 -0.2520  0.6834 -0.1112
 1762SOL    HW1 6358   0.783   7.344   4.038 -0.6925 -0.2900 -1.8898
 1762SOL    HW2 6359   0.690   7.350   4.158  1.6082  0.1987 -0.0551
 1763SOL     OW 6360   6.854   1.775   4.010  0.6227  0.0347 -0.4508
 1763SOL    HW1 6361   6.913   1.719   4.061  3.5163  1.5907 -1.8244
 1763SOL    HW2 6362   6.802   1.821   4.076  1.3389 -0.9761  0.8852
 1764SOL     OW 6363   6.378   7.190   4.121  0.0030  0.8742  0.4109
 1764SOL    HW1 6364   6.288   7.222   4.127 -0.6810 -0.6542 -0.8539
 1764SOL    HW2 6365   6.396   7.190   4.027  0.3972 -1.1661  0.4503
 1765SOL     OW 6366   1.247   6.079   7.561 -0.8843  0.0161 -0.3347
 1765SOL    HW1 6367   1.296   6.153   7.525  1.2574 -1.1026  0.1321
 1765SOL    HW2 6368   1.175   6.066   7.499  0.4884  0.5437 -2.1316
 1766SOL     OW 6369   2.280   4.615   3.978  0.2058  0.2770 -0.2141
 1766SOL    HW1 6370   2.373   4.623   3.954  0.1394  0.2511 -0.4747
 1766SOL    HW2 6371   2.236   4.684   3.928  0.3421  1.5359  1.3142
 1767SOL     OW 6372   3.402   2.167   2.370 -0.5483  0.0927  0.0966
 1767SOL    HW1 6373   3.452   2.085   2.369  1.3532  1.1673  0.5511
 1767SOL    HW2 6374   3.467   2.234   2.392 -2.1936  1.6286  0.5538
 1768SOL     OW 6375   4.159   0.979   0.563 -0.0300 -0.0207 -0.1973
 1768SOL    HW1 6376   4.172   0.962   0.470 -0.4326  1.6525 -0.5786
 1768SOL    HW2 6377   4.064   0.980   0.574 -0.0129 -2.1330  0.6418
 1769SOL     OW 6378   1.080   6.381   3.167  0.1991 -0.0362  0.4906
 1769SOL    HW1 6379   1.137   6.309   3.138  0.9817  1.0987 -0.8957
 1769SOL    HW2 6380   1.120   6.412   3.248  0.3478 -0.6159  0.6417
 1770SOL     OW 6381   3.499   2.114   8.160  0.1020 -0.1307  0.0363
 1770SOL    HW1 6382   3.512   2.178   8.230  2.5738 -0.0307 -0.4172
 1770SOL    HW2 6383   3.540   2.034   8.193 -0.3932 -0.6425 -0.5589
 1771SOL     OW 6384   5.875   1.628   6.254  0.2900 -0.0127 -0.3525
 1771SOL    HW1 6385   5.793   1.621   6.206  0.4878  1.1964 -0.8864
 1771SOL    HW2 6386   5.894   1.538   6.281 -0.5284 -0.5027 -1.3391
 1772SOL     OW 6387   3.014   1.032   5.221  0.0349 -0.5575 -0.1319
 1772SOL    HW1 6388   3.033   0.945   5.257 -1.5461 -0.0489  2.0983
 1772SOL    HW2 6389   3.066   1.092   5.274 -1.8153  0.1527  0.9549
 1773SOL     OW 6390   5.586   3.338   8.042 -0.1493 -0.0056 -0.2093
 1773SOL    HW1 6391   5.630   3.296   8.116 -0.9134 -1.8824 -0.7639
 1773SOL    HW2 6392   5.651   3.337   7.972 -0.1615 -0.2623 -0.2178
 1774SOL     OW 6393   1.256   7.490   5.129  0.4933  0.5399  0.0924
 1774SOL    HW1 6394   1.346   7.524   5.130  1.4449 -1.6457  3.4739
 1774SOL    HW2 6395   1.246   7.452   5.042  3.0539  0.3484 -0.1865
 1775SOL     OW 6396   1.119   8.130   5.063  0.6226  0.5175  0.6383
 1775SOL    HW1 6397   1.197   8.077   5.051  1.2804  1.5043  0.3625
 1775SOL    HW2 6398   1.142   8.191   5.133  0.1695  0.9196  0.4464
 1776SOL     OW 6399   0.307   4.519   2.543 -0.4233  0.2895 -0.2448
 1776SOL    HW1 6400   0.378   4.522   2.479 -1.1755 -0.9152 -1.1708
 1776SOL    HW2 6401   0.237   4.569   2.503 -0.2833  1.0666  0.4581
 1777SOL     OW 6402   1.796   0.097   4.828  0.2407  0.4212 -0.3702
 1777SOL    HW1 6403   1.734   0.157   4.870  0.7172  0.4165  0.3467
 1777SOL    HW2 6404   1.782   0.013   4.871  0.4480  0.3183 -0.5025
 1778SOL     OW 6405   2.875   6.141   0.038 -0.2824  0.2279 -0.0771
 1778SOL    HW1 6406   2.815   6.123   0.110 -0.8065  0.8864 -0.3339
 1778SOL    HW2 6407   2.898   6.055   0.003 -0.9008 -0.0397  0.1699
 1779SOL     OW 6408   5.362   6.580   5.439  0.4022 -0.2947 -0.5602
 1779SOL    HW1 6409   5.427   6.525   5.483  0.0224 -0.3079 -0.0123
 1779SOL    HW2 6410   5.388   6.578   5.347 -0.5541 -2.7207 -0.8534
 1780SOL     OW 6411   1.395   7.181   1.312  0.8124 -1.1863 -0.2822
 1780SOL    HW1 6412   1.374   7.244   1.380  1.1380 -2.4967  1.0750
 1780SOL    HW2 6413   1.405   7.234   1.232  0.7132  0.4105  0.7298
 1781SOL     OW 6414   4.657   0.572   5.040  0.0950 -0.2356  0.1892
 1781SOL    HW1 6415   4.649   0.488   5.086 -0.8443 -0.0156  0.4589
 1781SOL    HW2 6416   4.721   0.621   5.091 -0.1414 -0.3974  0.6492
 1782SOL     OW 6417   6.134   2.422   5.508  0.0154  0.6188 -0.2523
 1782SOL    HW1 6418   6.211   2.366   5.505  0.4590  1.2509 -0.9074
 1782SOL    HW2 6419   6.064   2.365   5.539  0.8294  0.1407  0.7729
 1783SOL     OW 6420   0.933   7.056   3.952  1.0570 -0.6212 -0.4208
 1783SOL    HW1 6421   0.988   7.126   3.915 -0.7815  0.4286 -1.2674
 1783SOL    HW2 6422   0.918   6.996   3.879 -0.2929 -0.0046 -0.6744
 1784SOL     OW 6423   6.437   1.786   0.056 -0.8196 -0.1326  0.4486
 1784SOL    HW1 6424   6.458   1.811  -0.034  3.0373  0.3079  1.2648
 1784SOL    HW2 6425   6.408   1.867   0.098  2.2398  1.0084  0.6775
 1785SOL     OW 6426   0.180   3.293   7.373  0.4165  0.0726 -0.3039
 1785SOL    HW1 6427   0.186   3.323   7.464  1.5636  0.6827 -0.5640
 1785SOL    HW2 6428   0.102   3.237   7.372  0.8102 -0.5753  1.2248
 1786SOL     OW 6429   4.133   2.875   2.457  0.0971  0.2046  0.3176
 1786SOL    HW1 6430   4.134   2.963   2.494  1.2232 -0.0170  0.8678
 1786SOL    HW2 6431   4.139   2.817   2.533  0.3867 -0.3116 -0.0866
 1787SOL     OW 6432   2.270   6.002   5.936 -0.1681  0.1894  0.0393
 1787SOL    HW1 6433   2.271   6.086   5.891  1.6099  0.1020 -0.1701
 1787SOL    HW2 6434   2.267   5.937   5.865  1.5108  0.0682  0.0385
 1788SOL     OW 6435   1.116   1.310   5.949  0.3010  0.9348 -0.1341
 1788SOL    HW1 6436   1.080   1.241   6.005  2.2047 -0.7524 -0.8873
 1788SOL    HW2 6437   1.039   1.353   5.912 -0.9808 -1.6106 -0.6496
 1789SOL     OW 6438   4.748   6.409   6.257 -0.1010  0.0608  0.6233
 1789SOL    HW1 6439   4.805   6.415   6.180  0.0014 -0.1344  0.6825
 1789SOL    HW2 6440   4.679   6.473   6.241 -1.0837 -1.2148 -0.4813
 1790SOL     OW 6441   2.760   2.122   0.088  0.3846 -0.1863 -0.1278
 1790SOL    HW1 6442   2.679   2.167   0.065 -0.5400 -0.6077  2.1004
 1790SOL    HW2 6443   2.761   2.044   0.033 -0.4259  0.1244 -0.5974
 1791SOL     OW 6444   6.849   7.297   7.115 -0.1225  0.0562  0.1629
 1791SOL    HW1 6445   6.920   7.243   7.148 -0.0125  0.6635  0.9774
 1791SOL    HW2 6446   6.888   7.383   7.101 -0.2418 -0.1172 -1.3303
 1792SOL     OW 6447   5.443   6.379   7.357  0.1226 -0.6044  0.1830
 1792SOL    HW1 6448   5.390   6.440   7.408  2.0930 -1.1568  3.1391
 1792SOL    HW2 6449   5.512   6.432   7.319 -0.2644 -0.4757 -0.3518
 1793SOL     OW 6450   6.900   0.845   7.318  0.3011 -0.1574  0.4980
 1793SOL    HW1 6451   6.876   0.934   7.291 -0.1246 -0.7276 -1.1127
 1793SOL    HW2 6452   6.982   0.856   7.367  0.1730  1.1228  0.4666
 1794SOL     OW 6453   5.412   4.681   7.462 -0.2318 -0.3723 -0.2721
 1794SOL    HW1 6454   5.356   4.609   7.433 -0.2092  0.0508 -1.4094
 1794SOL    HW2 6455   5.501   4.649   7.447 -0.0725 -1.2891  2.1058
 1795SOL     OW 6456   0.407   0.555   3.730 -0.1977  0.0625  0.5308
 1795SOL    HW1 6457   0.478   0.617   3.749 -1.4268  2.5214 -2.1153
 1795SOL    HW2 6458   0.332   0.589   3.780 -0.6043  0.1228 -0.1083
 1796SOL     OW 6459   3.728   6.740   0.461 -0.1921 -0.0904  0.3844
 1796SOL    HW1 6460   3.691   6.805   0.521 -0.0609  0.6965 -0.3563
 1796SOL    HW2 6461   3.816   6.774   0.441  0.3028 -1.0783  0.8404
 1797SOL     OW 6462   0.561   0.952   1.789  0.3375  0.1153 -0.2358
 1797SOL    HW1 6463   0.474   0.989   1.801 -0.5962 -1.7962 -0.6886
 1797SOL    HW2 6464   0.557   0.908   1.704  1.7786  0.0756 -0.3085
 1798SOL     OW 6465   1.740   2.088   7.653  0.6665 -0.0948 -0.3592
 1798SOL    HW1 6466   1.801   2.015   7.648 -1.1508 -1.7063 -0.2999
 1798SOL    HW2 6467   1.656   2.051   7.624 -0.1753  2.1609 -1.0134
 1799SOL     OW 6468   0.352   3.053   4.176  0.0027  0.3984 -0.0994
 1799SOL    HW1 6469   0.425   3.039   4.237  0.8959  0.9011 -1.0040
 1799SOL    HW2 6470   0.392   3.043   4.089 -1.4299 -1.2737 -0.6232
 1800SOL     OW 6471   7.863   5.155   4.502 -0.7656  0.2191 -0.1647
 1800SOL    HW1 6472   7.930   5.149   4.434 -1.2042  0.4363 -0.6210
 1800SOL    HW2 6473   7.860   5.248   4.525  1.0998 -0.1520  1.9137
 1801SOL     OW 6474   4.804   5.635   5.717  0.2446  0.5085 -0.6542
 1801SOL    HW1 6475   4.862   5.560   5.705  1.1755  0.8921  1.0935
 1801SOL    HW2 6476   4.744   5.608   5.787  0.7196  1.4443  0.1387
 1802SOL     OW 6477   0.422   5.682   0.664  0.1469  0.2957 -0.0825
 1802SOL    HW1 6478   0.512   5.652   0.676  0.2029  0.2237 -0.6639
 1802SOL    HW2 6479   0.378   5.609   0.621 -0.8223 -0.6499  2.3207
 1803SOL     OW 6480   2.492   1.050   1.425  0.1151  0.2894 -0.2313
 1803SOL    HW1 6481   2.541   1.059   1.506 -0.8303  1.4631  0.2572
 1803SOL    HW2 6482   2.459   0.960   1.426  0.6697  0.0889  0.3490
 1804SOL     OW 6483   3.485   1.789   7.904  0.5707 -0.6982 -0.1938
 1804SOL    HW1 6484   3.481   1.724   7.834 -0.2383 -1.4697  0.5461
 1804SOL    HW2 6485   3.509   1.739   7.982 -1.1074 -0.3276  0.6085
 1805SOL     OW 6486   3.444   1.770   1.743  0.1677  0.3586 -0.5311
 1805SOL    HW1 6487   3.410   1.696   1.694  1.2971  0.8069 -2.0687
 1805SOL    HW2 6488   3.498   1.731   1.812  1.3042 -0.2965 -1.7309
 1806SOL     OW 6489   1.212   7.885   1.198 -0.0450 -0.5188  0.0750
 1806SOL    HW1 6490   1.196   7.906   1.106  0.9185 -1.9647 -0.4594
 1806SOL    HW2 6491   1.125   7.876   1.236 -0.4558  0.3381 -0.6347
 1807SOL     OW 6492   1.668   5.513   4.515 -0.4767  0.1059 -0.0188
 1807SOL    HW1 6493   1.616   5.553   4.445 -1.3405  0.1819  0.6466
 1807SOL    HW2 6494   1.736   5.577   4.535 -0.5281  0.2957 -0.4388
 1808SOL     OW 6495   5.712   0.093   2.477  0.1687  0.7991 -0.2719
 1808SOL    HW1 6496   5.628   0.093   2.431 -0.1146 -0.6003  0.1968
 1808SOL    HW2 6497   5.751   0.008   2.455  0.4308  0.4820  1.3437
 1809SOL     OW 6498   6.242   1.546   6.814  0.1898 -0.2196 -0.6727
 1809SOL    HW1 6499   6.317   1.549   6.873  0.5412  0.7988 -1.1395
 1809SOL    HW2 6500   6.279   1.525   6.728 -0.0233  0.4992 -0.9465
 1810SOL     OW 6501   7.200   5.586   4.066 -0.0553  0.2247  0.2736
 1810SOL    HW1 6502   7.219   5.512   4.009 -0.3912  0.5108 -0.2212
 1810SOL    HW2 6503   7.280   5.598   4.118 -0.1020 -0.6646  0.5784
 1811SOL     OW 6504   7.110   6.096   8.052 -0.1351 -0.1669 -0.3235
 1811SOL    HW1 6505   7.138   6.009   8.081 -1.0364  0.0024  1.1694
 1811SOL    HW2 6506   7.191   6.139   8.023  0.4220 -1.2478 -0.4371
 1812SOL     OW 6507   7.852   3.836   2.328 -0.5434  0.2388  0.0022
 1812SOL    HW1 6508   7.834   3.925   2.298  1.8183  0.3934 -1.1746
 1812SOL    HW2 6509   7.933   3.811   2.284 -0.0955 -1.7862  1.7759
 1813SOL     OW 6510   3.646   6.553   2.309 -0.4593 -0.4549 -0.5597
 1813SOL    HW1 6511   3.625   6.526   2.220 -0.1815 -2.4868 -0.0480
 1813SOL    HW2 6512   3.563   6.583   2.346 -1.8714 -4.5387  0.1247
 1814SOL     OW 6513   0.904   7.664   4.286  0.1044 -0.1610 -0.3341
 1814SOL    HW1 6514   0.950   7.667   4.203 -0.3340  0.1154 -0.5705
 1814SOL    HW2 6515   0.811   7.667   4.263 -0.0227 -0.0968  0.1609
 1815SOL     OW 6516   0.048   6.602   1.818  0.3727 -0.1878 -0.0708
 1815SOL    HW1 6517   0.051   6.517   1.774 -0.9350  0.4271 -1.4875
 1815SOL    HW2 6518   0.025   6.663   1.748  3.1362  1.6614  0.4918
 1816SOL     OW 6519   1.072   7.349   7.639 -0.5426  0.0056  0.0082
 1816SOL    HW1 6520   1.020   7.280   7.598  0.7192 -0.5392 -0.7131
 1816SOL    HW2 6521   1.077   7.418   7.573  0.9024 -0.5827 -0.5378
 1817SOL     OW 6522   4.815   4.125   6.564  0.0181  0.2685  0.6146
 1817SOL    HW1 6523   4.752   4.099   6.498 -0.5515  1.1517  0.7971
 1817SOL    HW2 6524   4.883   4.057   6.560 -0.2694  0.0224 -0.4965
 1818SOL     OW 6525   2.961   7.551   7.750 -0.1191  0.0842  0.0488
 1818SOL    HW1 6526   3.006   7.597   7.822  3.8539  0.3576 -2.3132
 1818SOL    HW2 6527   3.003   7.465   7.747 -0.3235  0.0094 -1.7878
 1819SOL     OW 6528   7.691   0.434   2.325 -0.2192 -0.1474 -0.1692
 1819SOL    HW1 6529   7.636   0.473   2.258 -0.2347  1.4261  0.7125
 1819SOL    HW2 6530   7.681   0.490   2.401  1.0787 -0.9383  0.6449
 1820SOL     OW 6531   5.169   0.458   1.833  0.1310  0.2716 -0.0627
 1820SOL    HW1 6532   5.077   0.461   1.858  0.0158 -0.9427 -0.2587
 1820SOL    HW2 6533   5.186   0.365   1.817  2.0637  0.0885  2.4584
 1821SOL     OW 6534   6.081   0.894   4.141 -0.0351  0.1880  0.2853
 1821SOL    HW1 6535   6.059   0.804   4.115 -0.9299  0.5470 -0.2528
 1821SOL    HW2 6536   6.134   0.927   4.068 -1.3537  0.7271 -0.4605
 1822SOL     OW 6537   1.645   3.210   4.970  0.0503 -0.1971 -0.0992
 1822SOL    HW1 6538   1.658   3.272   4.897  1.2235 -0.7350 -0.3771
 1822SOL    HW2 6539   1.564   3.164   4.948  0.4484 -0.4386 -1.1595
 1823SOL     OW 6540   3.043   0.969   2.512  0.2100  0.5477  0.1840
 1823SOL    HW1 6541   3.096   1.045   2.491 -0.9585  1.3306 -0.0422
 1823SOL    HW2 6542   3.098   0.916   2.569  1.0256  1.5923  0.3940
 1824SOL     OW 6543   5.949   4.417   1.060 -0.3015  0.0174  0.1756
 1824SOL    HW1 6544   5.981   4.507   1.071 -1.0418  0.0431  3.0115
 1824SOL    HW2 6545   5.854   4.425   1.072 -0.3669 -1.1278  0.5453
 1825SOL     OW 6546   4.821   1.654   4.486 -0.3295  0.1663  0.4935
 1825SOL    HW1 6547   4.895   1.594   4.501 -0.4287  0.0784  0.6377
 1825SOL    HW2 6548   4.854   1.740   4.512 -0.7545 -0.1101  2.0337
 1826SOL     OW 6549   6.016   1.813   3.775  0.0102 -0.2489 -0.0072
 1826SOL    HW1 6550   5.930   1.840   3.744 -0.9148  0.8137  3.1886
 1826SOL    HW2 6551   6.001   1.731   3.821  0.8571 -0.4686 -0.1039
 1827SOL     OW 6552   6.813   4.319   3.874 -0.3020  0.1382 -0.3224
 1827SOL    HW1 6553   6.741   4.282   3.823 -0.1235  0.1462 -0.5787
 1827SOL    HW2 6554   6.847   4.245   3.925 -1.1814  0.3503  0.6232
 1828SOL     OW 6555   3.593   5.830   8.119 -0.5069  0.3312  0.2033
 1828SOL    HW1 6556   3.581   5.826   8.214  2.8203 -2.1822  0.6930
 1828SOL    HW2 6557   3.546   5.754   8.085  3.7701 -2.9952  0.8762
 1829SOL     OW 6558   7.203   5.388   8.110  0.8749  0.3347  0.0839
 1829SOL    HW1 6559   7.186   5.332   8.033 -0.3375  1.9842 -0.8971
 1829SOL    HW2 6560   7.120   5.389   8.157  0.9456  1.1507  0.1888
 1830SOL     OW 6561   4.482   5.870   3.286 -0.4688 -0.1502 -0.7370
 1830SOL    HW1 6562   4.439   5.829   3.212  0.5864  0.0247 -1.4811
 1830SOL    HW2 6563   4.470   5.964   3.271 -0.2056 -0.1137 -0.7326
 1831SOL     OW 6564   5.645   4.122   7.051 -0.6677  0.5730 -0.4081
 1831SOL    HW1 6565   5.730   4.078   7.046 -1.5482 -1.3568  0.6330
 1831SOL    HW2 6566   5.662   4.200   7.103  0.4633  0.2351 -0.2347
 1832SOL     OW 6567   2.887   1.960   6.032 -0.6877 -0.3149 -0.5135
 1832SOL    HW1 6568   2.886   1.930   6.122 -0.0660 -0.4681 -0.5526
 1832SOL    HW2 6569   2.877   1.880   5.980 -1.0785 -0.2238 -0.5794
 1833SOL     OW 6570   6.617   3.677   3.186  0.4988  0.5082 -0.4928
 1833SOL    HW1 6571   6.620   3.726   3.269 -0.5270  0.8756 -0.6529
 1833SOL    HW2 6572   6.570   3.735   3.126 -1.8151 -1.0821 -0.3699
 1834SOL     OW 6573   5.601   1.226   5.085  0.8632  0.4073  0.8638
 1834SOL    HW1 6574   5.656   1.182   5.020  0.1065 -0.4645  0.8011
 1834SOL    HW2 6575   5.623   1.183   5.168 -0.8590 -1.1043  0.6031
 1835SOL     OW 6576   4.025   1.328   5.282  0.1264  0.1914  0.7805
 1835SOL    HW1 6577   3.945   1.377   5.302  0.5393  0.7202  1.1840
 1835SOL    HW2 6578   4.093   1.372   5.334  0.6342 -0.3913  0.6172
 1836SOL     OW 6579   4.493   6.586   7.916  0.5157  0.1902  0.2469
 1836SOL    HW1 6580   4.457   6.652   7.857 -0.4314 -1.1756 -0.7569
 1836SOL    HW2 6581   4.588   6.600   7.914  0.7780 -1.0786 -3.2884
 1837SOL     OW 6582   0.997   0.822   2.701 -0.4584 -0.2869 -0.0027
 1837SOL    HW1 6583   1.012   0.845   2.609  2.6500 -0.0795  0.4559
 1837SOL    HW2 6584   1.042   0.738   2.712 -1.2892 -0.6064  1.2352
 1838SOL     OW 6585   0.918   0.022   1.160  0.2898 -0.3980  0.1296
 1838SOL    HW1 6586   0.995   0.068   1.127 -1.1973  1.4005 -1.0378
 1838SOL    HW2 6587   0.902   0.059   1.246  0.9841 -1.1389  0.5929
 1839SOL     OW 6588   4.925   6.332   3.464 -0.4393  0.1874 -0.2006
 1839SOL    HW1 6589   5.011   6.291   3.474 -1.1929 -1.4961 -0.2532
 1839SOL    HW2 6590   4.944   6.426   3.461  1.6262 -0.1917 -2.6145
 1840SOL     OW 6591   7.730   7.140   6.689  0.6349 -0.5945  0.6747
 1840SOL    HW1 6592   7.655   7.182   6.646 -0.6590 -1.9082  1.5322
 1840SOL    HW2 6593   7.788   7.115   6.616  1.8436  3.1629  0.1684
 1841SOL     OW 6594   6.722   4.066   0.637  0.1355  0.2229 -0.0228
 1841SOL    HW1 6595   6.720   3.992   0.698 -1.2607 -0.1433 -0.4751
 1841SOL    HW2 6596   6.787   4.126   0.674  0.7768 -0.8927  0.7367
 1842SOL     OW 6597   3.267   5.879   5.962  0.0894  0.6261  0.0695
 1842SOL    HW1 6598   3.222   5.831   6.031  2.0438 -0.3122  0.7484
 1842SOL    HW2 6599   3.216   5.861   5.883 -1.3394  0.5322  0.9726
 1843SOL     OW 6600   2.983   4.169   6.768  0.9673  1.0004  0.4506
 1843SOL    HW1 6601   2.956   4.082   6.797  0.1617  0.3609 -2.0375
 1843SOL    HW2 6602   2.930   4.229   6.822 -1.3317 -0.1473 -0.4082
 1844SOL     OW 6603   4.701   3.386   4.445  0.3519 -0.0693 -0.3294
 1844SOL    HW1 6604   4.672   3.303   4.481  1.1076  0.0512  0.5908
 1844SOL    HW2 6605   4.676   3.451   4.511  0.2506  0.3623 -0.7893
 1845SOL     OW 6606   3.600   6.810   1.664  0.1701  0.2105 -0.2309
 1845SOL    HW1 6607   3.642   6.786   1.581 -1.0245  0.8400 -1.0641
 1845SOL    HW2 6608   3.506   6.801   1.646 -0.2175  2.4158  0.3535
 1846SOL     OW 6609   3.254   1.711   4.275 -0.7219  0.1828 -0.4743
 1846SOL    HW1 6610   3.241   1.753   4.190 -0.0214 -1.0171 -1.2055
 1846SOL    HW2 6611   3.324   1.647   4.260 -2.5768 -2.1564  0.2280
 1847SOL     OW 6612   0.735   4.706   6.428 -0.2118 -0.4252 -0.2678
 1847SOL    HW1 6613   0.728   4.658   6.511  2.6678  0.5343  0.6550
 1847SOL    HW2 6614   0.828   4.725   6.419 -0.7439  1.6519 -2.5327
 1848SOL     OW 6615   2.764   5.797   4.784 -0.4236 -0.5101  0.2767
 1848SOL    HW1 6616   2.723   5.780   4.700 -1.3300 -1.3755  0.8653
 1848SOL    HW2 6617   2.719   5.738   4.845  2.0052 -1.8954  0.8725
 1849SOL     OW 6618   3.862   1.419   5.891 -0.0280  0.6788 -0.0283
 1849SOL    HW1 6619   3.865   1.463   5.977  0.2493 -1.8302  1.3284
 1849SOL    HW2 6620   3.769   1.402   5.876 -0.0322  0.6541  0.0240
 1850SOL     OW 6621   8.074   0.900   2.898  0.1220 -0.5628 -0.7249
 1850SOL    HW1 6622   8.105   0.978   2.945  0.5923 -1.1959  0.0538
 1850SOL    HW2 6623   7.982   0.918   2.881 -0.2532 -0.5878  1.0848
 1851SOL     OW 6624   8.142   7.685   2.850  0.5908 -0.3666  0.2798
 1851SOL    HW1 6625   8.175   7.636   2.924  2.0854 -0.0941 -0.1688
 1851SOL    HW2 6626   8.218   7.735   2.819 -0.5197  1.1151 -0.1467
 1852SOL     OW 6627   3.153   2.600   7.203 -0.9336 -0.1393  0.0271
 1852SOL    HW1 6628   3.130   2.579   7.293  0.1757  1.0570  0.6185
 1852SOL    HW2 6629   3.229   2.657   7.210 -1.1106  0.3620 -1.6608
 1853SOL     OW 6630   3.707   1.045   6.730 -0.2860  0.4740 -0.1564
 1853SOL    HW1 6631   3.717   0.958   6.691 -0.7639  0.4649 -0.2646
 1853SOL    HW2 6632   3.796   1.079   6.736 -0.1954  0.4691 -1.2467
 1854SOL     OW 6633   2.564   7.233   7.040 -0.3365  0.1516 -0.1380
 1854SOL    HW1 6634   2.612   7.242   7.122  1.3983 -0.2921 -1.0575
 1854SOL    HW2 6635   2.590   7.309   6.989  2.0712 -1.6735 -1.8906
 1855SOL     OW 6636   3.601   6.266   7.417  0.2303  0.3261 -0.1805
 1855SOL    HW1 6637   3.627   6.341   7.363 -0.6602 -0.6392 -2.0635
 1855SOL    HW2 6638   3.510   6.283   7.441  0.4508  0.4855  0.5611
 1856SOL     OW 6639   5.334   6.729   6.465  0.1679  0.1053 -0.4369
 1856SOL    HW1 6640   5.280   6.711   6.388 -0.5021 -0.5989  0.1842
 1856SOL    HW2 6641   5.337   6.647   6.513  2.1229  0.0117 -0.6297
 1857SOL     OW 6642   7.155   6.933   8.074  0.5920 -0.3689  0.3035
 1857SOL    HW1 6643   7.247   6.908   8.082  0.2963 -1.9749 -0.7438
 1857SOL    HW2 6644   7.126   6.949   8.164  1.3519 -2.0415  0.8955
 1858SOL     OW 6645   7.762   5.798   3.907  0.5002  0.2590 -0.2576
 1858SOL    HW1 6646   7.724   5.831   3.988  0.1361  0.5201 -0.5288
 1858SOL    HW2 6647   7.702   5.828   3.839  1.1024  0.5222 -0.6771
 1859SOL     OW 6648   7.451   4.089   6.736  0.3444 -0.4366  0.2616
 1859SOL    HW1 6649   7.512   4.060   6.668  0.9516 -2.3155  1.5063
 1859SOL    HW2 6650   7.394   4.014   6.751  0.3959 -0.1928  1.9610
 1860SOL     OW 6651   0.867   2.325   2.159  0.6534 -0.0019 -0.4543
 1860SOL    HW1 6652   0.900   2.354   2.244  2.0608 -1.1913 -0.5577
 1860SOL    HW2 6653   0.858   2.406   2.109  0.6048  0.6360  0.5543
 1861SOL     OW 6654   4.271   7.369   6.107  0.1144  0.0281 -0.4527
 1861SOL    HW1 6655   4.340   7.362   6.041  1.5360 -3.1687  1.1357
 1861SOL    HW2 6656   4.214   7.294   6.090 -0.0359 -0.2951  1.3201
 1862SOL     OW 6657   2.099   7.329   4.655  0.1477 -0.3889  0.1257
 1862SOL    HW1 6658   2.090   7.291   4.743  1.9299 -0.2388  0.4267
 1862SOL    HW2 6659   2.181   7.291   4.622  0.4567  0.9833 -0.7350
 1863SOL     OW 6660   6.267   4.102   6.058 -0.4852 -0.3858  0.2863
 1863SOL    HW1 6661   6.244   4.051   6.135  0.6543  0.4990  1.2490
 1863SOL    HW2 6662   6.263   4.039   5.986  0.8789 -1.8755  1.4261
 1864SOL     OW 6663   3.765   2.385   1.093 -0.1805  0.4546  1.1986
 1864SOL    HW1 6664   3.713   2.433   1.029  1.8099  0.2248 -0.6868
 1864SOL    HW2 6665   3.814   2.453   1.140  1.3622  0.4722 -0.3238
 1865SOL     OW 6666   5.227   8.085   1.389 -0.3981  0.6748 -0.3609
 1865SOL    HW1 6667   5.139   8.064   1.357 -0.3745  1.1350 -0.7354
 1865SOL    HW2 6668   5.274   8.002   1.383 -0.4895  0.6719 -1.2308
 1866SOL     OW 6669   7.117   5.154   1.447 -0.0080 -0.0518  0.4750
 1866SOL    HW1 6670   7.053   5.083   1.451 -1.5532  1.2948  0.8733
 1866SOL    HW2 6671   7.140   5.169   1.539  1.2843 -0.8334  0.3044
 1867SOL     OW 6672   7.741   6.515   7.448  0.0811 -0.0204 -0.2036
 1867SOL    HW1 6673   7.646   6.529   7.444  0.1321  0.8615  1.0432
 1867SOL    HW2 6674   7.752   6.437   7.503  0.0970  0.4287  0.4419
 1868SOL     OW 6675   3.019   3.647   3.045 -0.3061 -0.3395 -0.0852
 1868SOL    HW1 6676   3.029   3.676   3.135  0.6727 -0.3455 -0.1817
 1868SOL    HW2 6677   3.073   3.708   2.994  1.2408 -1.8742 -0.3694
 1869SOL     OW 6678   0.949   3.568   5.959  0.5541  0.0698  0.4076
 1869SOL    HW1 6679   1.005   3.612   5.895  0.2069 -1.6664 -1.1868
 1869SOL    HW2 6680   0.990   3.483   5.973 -0.4549 -0.3469  0.9596
 1870SOL     OW 6681   6.713   2.220   6.001 -0.1932  0.6694 -0.1504
 1870SOL    HW1 6682   6.712   2.234   6.096  0.3699 -0.0541 -0.0354
 1870SOL    HW2 6683   6.680   2.131   5.990 -1.9073  1.3315 -0.7580
 1871SOL     OW 6684   2.022   3.824   4.057  0.2383  0.1136 -0.4290
 1871SOL    HW1 6685   1.955   3.765   4.023 -0.7079  1.2353 -0.5459
 1871SOL    HW2 6686   2.037   3.886   3.986  1.2407  0.0154 -0.3148
 1872SOL     OW 6687   8.065   0.283   1.774  0.7048 -0.3537 -0.1536
 1872SOL    HW1 6688   8.110   0.368   1.767 -1.5104  0.9070 -0.1024
 1872SOL    HW2 6689   8.037   0.263   1.685  2.5708 -1.9012 -0.4583
 1873SOL     OW 6690   6.291   1.256   1.007  0.3777  0.1964  0.2601
 1873SOL    HW1 6691   6.275   1.167   0.973  1.6528 -0.0138  0.1265
 1873SOL    HW2 6692   6.336   1.242   1.090  0.9916  0.7118  0.0234
 1874SOL     OW 6693   4.656   6.120   7.478 -0.0524  0.7322 -0.3705
 1874SOL    HW1 6694   4.694   6.081   7.400 -0.0835 -0.0785  0.0056
 1874SOL    HW2 6695   4.566   6.088   7.480 -0.2891  1.3905 -0.4280
 1875SOL     OW 6696   2.763   7.698   4.085  0.3129  0.1552 -0.2966
 1875SOL    HW1 6697   2.769   7.741   4.170 -2.3476  0.8440 -0.3659
 1875SOL    HW2 6698   2.718   7.615   4.102 -1.2480  0.7867 -1.1088
 1876SOL     OW 6699   0.995   6.525   6.657  0.6293  0.5524 -0.1162
 1876SOL    HW1 6700   1.087   6.519   6.631  0.4204 -0.8390 -0.5999
 1876SOL    HW2 6701   0.958   6.591   6.599  1.5329  1.9135  0.7895
 1877SOL     OW 6702   6.782   5.676   1.704  0.1446  0.3436  0.3091
 1877SOL    HW1 6703   6.747   5.760   1.734  0.2988  0.2770  0.6915
 1877SOL    HW2 6704   6.752   5.614   1.771 -0.1431  0.0609 -0.0820
 1878SOL     OW 6705   6.797   3.139   7.428  0.3567  0.0245  0.5219
 1878SOL    HW1 6706   6.838   3.147   7.514  0.9048 -2.1341  0.5350
 1878SOL    HW2 6707   6.864   3.165   7.366  1.1871 -1.6848  0.6373
 1879SOL     OW 6708   5.490   7.920   2.854 -0.0662  0.3190  0.0598
 1879SOL    HW1 6709   5.466   7.961   2.771  0.3242 -0.7087 -0.5690
 1879SOL    HW2 6710   5.407   7.913   2.901 -0.0306  2.6662  0.6024
 1880SOL     OW 6711   0.493   1.287   0.301  0.1639 -0.5240 -0.1417
 1880SOL    HW1 6712   0.469   1.208   0.252 -0.5407 -1.1800  1.1985
 1880SOL    HW2 6713   0.409   1.322   0.331  0.6009 -0.5151  1.1280
 1881SOL     OW 6714   1.279   4.514   7.873 -0.0648  0.1507  0.1492
 1881SOL    HW1 6715   1.266   4.420   7.859  0.1947 -0.0242  1.0550
 1881SOL    HW2 6716   1.199   4.554   7.838 -0.0476 -0.3767 -0.5208
 1882SOL     OW 6717   5.895   6.524   4.278 -0.6508 -0.0799  0.0504
 1882SOL    HW1 6718   5.877   6.610   4.239 -0.5710  0.0401  0.2731
 1882SOL    HW2 6719   5.962   6.486   4.221 -2.0638 -0.8172 -1.1737
 1883SOL     OW 6720   5.066   0.370   5.892  0.0827 -0.0872 -0.1452
 1883SOL    HW1 6721   5.077   0.367   5.797 -0.7466  0.7404 -0.2846
 1883SOL    HW2 6722   5.152   0.399   5.925  0.6900 -1.3899 -0.5426
 1884SOL     OW 6723   0.958   4.115   3.489  0.3530  0.6928  0.1279
 1884SOL    HW1 6724   0.977   4.208   3.474  3.0498  0.1234 -0.4302
 1884SOL    HW2 6725   0.955   4.077   3.402  0.2603  0.0669  0.4001
 1885SOL     OW 6726   5.771   6.260   0.370 -0.4868 -0.0509 -0.2110
 1885SOL    HW1 6727   5.739   6.265   0.460  0.1309 -0.2079  0.0197
 1885SOL    HW2 6728   5.725   6.186   0.332  0.6905 -1.2160  0.5669
 1886SOL     OW 6729   2.071   6.200   1.997 -0.6861 -0.5081 -0.0229
 1886SOL    HW1 6730   2.162   6.228   2.000 -0.3897 -1.4864  0.5549
 1886SOL    HW2 6731   2.029   6.261   1.936  0.3588 -0.0885 -0.3457
 1887SOL     OW 6732   4.169   6.937   6.283  0.6364 -0.5394 -0.1551
 1887SOL    HW1 6733   4.207   7.002   6.224 -0.9697 -0.0637 -0.7282
 1887SOL    HW2 6734   4.096   6.899   6.233 -0.0764 -0.9124  1.1144
 1888SOL     OW 6735   2.531   0.677   2.628 -0.7736 -0.5949  0.7474
 1888SOL    HW1 6736   2.546   0.590   2.591 -1.8887 -0.7361  0.6018
 1888SOL    HW2 6737   2.531   0.735   2.552  0.5322 -0.3666  0.8950
 1889SOL     OW 6738   5.640   7.114   7.716 -0.9444  0.1871 -0.5795
 1889SOL    HW1 6739   5.559   7.067   7.735  0.1914 -0.9462  1.8172
 1889SOL    HW2 6740   5.701   7.087   7.784  1.3982  1.2338 -2.1160
 1890SOL     OW 6741   2.204   0.807   8.118  0.0432 -0.4723  0.3544
 1890SOL    HW1 6742   2.153   0.828   8.196  1.7700  1.2307  1.0976
 1890SOL    HW2 6743   2.140   0.808   8.047 -0.8930  2.6001  1.0911
 1891SOL     OW 6744   0.707   2.381   7.004  0.2281  0.3078 -0.2935
 1891SOL    HW1 6745   0.707   2.353   6.912 -1.0358 -1.1349  0.1111
 1891SOL    HW2 6746   0.790   2.427   7.015  1.1432 -0.9066 -1.7532
 1892SOL     OW 6747   2.408   7.679   7.145 -0.0375  0.0771 -0.1648
 1892SOL    HW1 6748   2.332   7.650   7.194  1.0669 -2.3318  0.2614
 1892SOL    HW2 6749   2.480   7.678   7.208  0.9071 -0.5498 -1.2035
 1893SOL     OW 6750   7.563   6.057   7.376  0.3373  0.7827  0.5138
 1893SOL    HW1 6751   7.543   5.995   7.305  2.7348  1.0743 -0.5320
 1893SOL    HW2 6752   7.518   6.138   7.351 -0.2938  0.3679  0.2762
 1894SOL     OW 6753   0.378   2.939   7.111 -0.0736  0.1582 -0.1792
 1894SOL    HW1 6754   0.333   2.947   7.027  0.0583  0.8457 -0.1960
 1894SOL    HW2 6755   0.323   2.989   7.172 -0.4113 -0.7234  0.2456
 1895SOL     OW 6756   4.479   5.413   0.756  0.9336  0.2674 -0.6698
 1895SOL    HW1 6757   4.410   5.468   0.719  1.2195  0.5783 -0.7460
 1895SOL    HW2 6758   4.482   5.437   0.848  3.0136  2.5381 -1.2165
 1896SOL     OW 6759   0.613   6.428   3.893  0.4933 -0.1542 -0.9233
 1896SOL    HW1 6760   0.623   6.393   3.982  3.0150  0.6335 -0.8208
 1896SOL    HW2 6761   0.591   6.520   3.907 -2.0480 -0.6353 -1.1979
 1897SOL     OW 6762   3.380   5.486   4.350 -0.4313 -0.3573  0.3048
 1897SOL    HW1 6763   3.360   5.500   4.442 -1.3014 -2.3819  0.4665
 1897SOL    HW2 6764   3.466   5.444   4.349 -0.4675 -0.4302  0.1918
 1898SOL     OW 6765   1.398   1.523   4.296  0.6981  0.4140  0.6264
 1898SOL    HW1 6766   1.388   1.432   4.267  0.4800  0.0921  1.6481
 1898SOL    HW2 6767   1.452   1.564   4.229 -0.8878  0.0810 -0.9380
 1899SOL     OW 6768   7.384   4.029   1.744 -0.5033 -0.1546  0.9066
 1899SOL    HW1 6769   7.330   4.076   1.681 -1.6442 -2.3257  0.1733
 1899SOL    HW2 6770   7.324   3.967   1.786  0.7235 -0.3174  2.5144
 1900SOL     OW 6771   8.160   7.167   7.098  0.7253  0.1452 -0.0855
 1900SOL    HW1 6772   8.229   7.232   7.085  1.5213 -0.7761 -0.5724
 1900SOL    HW2 6773   8.203   7.083   7.082  0.2858 -0.6992  2.6519
 1901SOL     OW 6774   4.611   7.874   0.893 -0.6061  0.2794 -0.2149
 1901SOL    HW1 6775   4.626   7.863   0.987  1.2068 -1.9981 -0.6890
 1901SOL    HW2 6776   4.697   7.897   0.857 -0.9532 -0.3219 -1.5014
 1902SOL     OW 6777   0.617   7.355   0.130 -0.4146 -0.1722 -0.1784
 1902SOL    HW1 6778   0.631   7.303   0.051  0.8128 -1.3748  0.7776
 1902SOL    HW2 6779   0.609   7.290   0.200 -1.2227  0.8776  0.7379
 1903SOL     OW 6780   4.382   5.943   1.674  0.4521  0.0478  0.4450
 1903SOL    HW1 6781   4.467   5.945   1.720  0.1886 -0.1042  0.9520
 1903SOL    HW2 6782   4.318   5.952   1.744  0.0137 -0.8804  0.1746
 1904SOL     OW 6783   0.715   4.268   4.217 -0.2727 -0.2432  0.2838
 1904SOL    HW1 6784   0.785   4.213   4.252 -1.7653 -1.8678  0.9062
 1904SOL    HW2 6785   0.640   4.252   4.275 -0.9030  2.2211  0.2644
 1905SOL     OW 6786   7.282   7.534   0.981  0.1139 -0.9412 -0.2691
 1905SOL    HW1 6787   7.252   7.444   0.990  1.9599 -1.6008 -0.1953
 1905SOL    HW2 6788   7.346   7.531   0.910 -1.5510  0.8261 -1.9877
 1906SOL     OW 6789   0.655   4.769   1.704  0.5201 -0.0227 -0.2855
 1906SOL    HW1 6790   0.719   4.708   1.740  0.8910 -0.6362 -1.8785
 1906SOL    HW2 6791   0.696   4.800   1.623 -0.1730  1.4562 -0.1064
 1907SOL     OW 6792   3.798   0.469   2.238  0.2546 -0.1879 -0.4497
 1907SOL    HW1 6793   3.722   0.484   2.294 -0.1161  0.3794 -1.0942
 1907SOL    HW2 6794   3.865   0.527   2.274  1.2239 -2.4383  1.6495
 1908SOL     OW 6795   4.061   2.902   0.108 -0.4099 -0.1875 -0.0219
 1908SOL    HW1 6796   4.010   2.825   0.132 -0.4630  0.2656  1.4091
 1908SOL    HW2 6797   4.102   2.930   0.190  0.6511  0.5512 -0.7729
 1909SOL     OW 6798   4.364   5.270   4.377  0.1827 -0.4356 -0.3041
 1909SOL    HW1 6799   4.431   5.213   4.415 -0.0283 -0.7217 -0.3657
 1909SOL    HW2 6800   4.357   5.342   4.440 -1.0928 -1.5552  0.8931
 1910SOL     OW 6801   6.127   7.310   4.048 -0.0558  0.4970  0.2032
 1910SOL    HW1 6802   6.139   7.400   4.079 -0.4453  0.9548 -0.9201
 1910SOL    HW2 6803   6.048   7.314   3.993  0.4568 -0.3311 -0.6215
 1911SOL     OW 6804   8.098   5.049   5.382 -0.2523  0.0144  0.3266
 1911SOL    HW1 6805   8.158   4.996   5.329  1.0911  1.1702  0.6323
 1911SOL    HW2 6806   8.035   5.083   5.319 -1.8116 -2.6836  0.2504
 1912SOL     OW 6807   1.381   2.297   1.469  0.1006 -0.1669  0.4096
 1912SOL    HW1 6808   1.474   2.284   1.451 -0.2199 -1.9055 -0.1712
 1912SOL    HW2 6809   1.379   2.351   1.548  1.6078 -1.1109  1.1344
 1913SOL     OW 6810   6.999   7.446   2.704 -0.9167 -0.2338 -0.2720
 1913SOL    HW1 6811   7.094   7.450   2.694 -0.7235 -0.1227  1.3739
 1913SOL    HW2 6812   6.965   7.468   2.617  0.5520 -0.6778 -0.9955
 1914SOL     OW 6813   0.223   7.685   7.736 -0.4627  0.2392 -0.4821
 1914SOL    HW1 6814   0.132   7.697   7.707 -0.5076 -0.3899 -0.6338
 1914SOL    HW2 6815   0.273   7.676   7.654 -0.3525  0.0345 -0.3951
 1915SOL     OW 6816   2.398   7.950   4.296  0.8173  0.1311 -0.8470
 1915SOL    HW1 6817   2.482   7.919   4.330 -0.6166 -1.9378  1.0201
 1915SOL    HW2 6818   2.399   7.924   4.204  1.5253 -1.4833 -0.4234
 1916SOL     OW 6819   7.793   5.259   2.288 -0.1591 -0.1325 -0.1504
 1916SOL    HW1 6820   7.757   5.190   2.344 -0.1613  0.0511  0.0767
 1916SOL    HW2 6821   7.721   5.285   2.232 -0.5812  0.6855  0.7387
 1917SOL     OW 6822   3.756   0.331   6.327  0.2992 -0.2432 -0.6311
 1917SOL    HW1 6823   3.735   0.417   6.364  0.9379 -0.9875  1.5954
 1917SOL    HW2 6824   3.849   0.318   6.345  0.5394 -0.8995 -2.1124
 1918SOL     OW 6825   6.258   5.756   1.655 -0.1286  0.5698 -0.1139
 1918SOL    HW1 6826   6.165   5.778   1.658 -0.0678  0.8301 -0.1415
 1918SOL    HW2 6827   6.287   5.784   1.568 -0.3990 -1.0157 -0.7497
 1919SOL     OW 6828   2.346   6.486   5.491 -0.6442 -0.3304 -0.6231
 1919SOL    HW1 6829   2.436   6.517   5.496 -0.1599 -1.7955  0.4318
 1919SOL    HW2 6830   2.334   6.433   5.570 -1.7238 -1.9667 -1.8242
 1920SOL     OW 6831   3.963   5.623   4.118 -0.0792 -0.1573 -0.1523
 1920SOL    HW1 6832   3.878   5.631   4.160  0.6252 -0.0902  1.3150
 1920SOL    HW2 6833   4.006   5.551   4.164  0.9004  0.2154 -0.4499
 1921SOL     OW 6834   1.333   6.899   1.132  0.3263  0.3875 -0.1434
 1921SOL    HW1 6835   1.341   6.978   1.078 -0.7766 -0.2494 -1.2896
 1921SOL    HW2 6836   1.335   6.931   1.222  1.8396  1.5178 -0.5376
 1922SOL     OW 6837   7.845   6.297   2.418  0.4442  0.1595  0.0865
 1922SOL    HW1 6838   7.841   6.366   2.483  0.3024  1.5243 -1.3069
 1922SOL    HW2 6839   7.939   6.279   2.407  0.5005  0.4131  0.1718
 1923SOL     OW 6840   7.810   2.010   2.783  0.1756  0.0700 -1.0465
 1923SOL    HW1 6841   7.761   2.090   2.766  1.5200  0.7804 -1.6954
 1923SOL    HW2 6842   7.864   1.997   2.705  1.9841  0.0383  0.1563
 1924SOL     OW 6843   6.869   6.529   7.727 -0.0214  0.4684  0.2080
 1924SOL    HW1 6844   6.951   6.547   7.773 -0.4061  0.7425  0.7896
 1924SOL    HW2 6845   6.882   6.566   7.640  0.1675  1.2379  0.5585
 1925SOL     OW 6846   2.804   2.815   7.549  0.2237 -0.0610  0.6759
 1925SOL    HW1 6847   2.838   2.887   7.496  0.6516  0.1712  1.2502
 1925SOL    HW2 6848   2.877   2.790   7.606 -0.0465 -0.6878  0.7565
 1926SOL     OW 6849   6.597   5.529   0.648 -0.3855  0.2961  0.8785
 1926SOL    HW1 6850   6.556   5.602   0.603  2.0637  0.2497 -1.7008
 1926SOL    HW2 6851   6.671   5.567   0.693  1.6827 -0.5906 -1.5324
 1927SOL     OW 6852   5.789   7.821   2.775  0.5477 -0.1607 -0.6418
 1927SOL    HW1 6853   5.882   7.799   2.787  0.2129 -0.8377  1.0164
 1927SOL    HW2 6854   5.778   7.829   2.681  2.3379  0.1225 -0.8636
 1928SOL     OW 6855   4.613   0.242   0.391  0.5638 -0.1965  0.1383
 1928SOL    HW1 6856   4.651   0.202   0.469  0.5245 -0.7576 -0.1230
 1928SOL    HW2 6857   4.613   0.336   0.409  0.4775 -0.3286  0.8449
 1929SOL     OW 6858   3.282   6.924   0.573  0.2411  0.3228 -0.1481
 1929SOL    HW1 6859   3.198   6.968   0.558  0.6089  0.5841 -1.6060
 1929SOL    HW2 6860   3.305   6.888   0.487  1.3880 -0.1761  0.3527
 1930SOL     OW 6861   1.560   6.238   3.765  0.6936 -0.0922 -0.2483
 1930SOL    HW1 6862   1.520   6.308   3.816 -0.2310 -1.4363  0.9353
 1930SOL    HW2 6863   1.637   6.211   3.815 -0.4382 -1.6871  0.7323
 1931SOL     OW 6864   3.166   6.523   6.741 -0.2667 -0.4441 -0.0369
 1931SOL    HW1 6865   3.158   6.561   6.829 -0.5779 -0.9568  0.1607
 1931SOL    HW2 6866   3.254   6.548   6.712 -0.1917 -0.2061  0.3876
 1932SOL     OW 6867   7.146   0.935   5.677  0.3363  0.5464  0.1397
 1932SOL    HW1 6868   7.080   0.893   5.623  0.5601 -0.1944  0.4246
 1932SOL    HW2 6869   7.134   1.028   5.663 -0.7320  0.4162  0.1412
 1933SOL     OW 6870   5.555   4.360   7.595 -0.1997  0.5385  0.2592
 1933SOL    HW1 6871   5.586   4.299   7.662  1.1128  0.8219 -0.0566
 1933SOL    HW2 6872   5.466   4.331   7.575  0.2094 -0.9448  0.4896
 1934SOL     OW 6873   6.451   4.781   2.524 -0.3885 -0.3300 -0.1643
 1934SOL    HW1 6874   6.530   4.819   2.563 -0.7337 -0.0748  0.2863
 1934SOL    HW2 6875   6.442   4.695   2.567 -1.6129  0.5618  1.4616
 1935SOL     OW 6876   1.394   2.982   1.186 -0.2710 -0.2977 -0.7823
 1935SOL    HW1 6877   1.299   2.977   1.171 -0.4911 -0.3373  0.4701
 1935SOL    HW2 6878   1.425   2.893   1.174 -0.8180 -0.8037  1.2112
 1936SOL     OW 6879   2.072   0.209   4.774  0.0691 -0.6769 -0.4115
 1936SOL    HW1 6880   1.983   0.181   4.752 -0.2036 -0.7229  0.6922
 1936SOL    HW2 6881   2.104   0.142   4.835  0.4983 -0.1634 -0.0583
 1937SOL     OW 6882   7.345   2.822   6.794  0.2224  0.0772  0.4683
 1937SOL    HW1 6883   7.392   2.759   6.848  0.8790  0.7416  0.6814
 1937SOL    HW2 6884   7.386   2.906   6.814  1.3124  0.1906 -1.9847
 1938SOL     OW 6885   1.480   7.659   5.474 -0.0880 -0.2726 -0.6044
 1938SOL    HW1 6886   1.566   7.617   5.481  0.7058  1.2508 -0.7327
 1938SOL    HW2 6887   1.430   7.622   5.547  1.3276  0.2438  0.6925
 1939SOL     OW 6888   7.652   0.175   2.743  0.3282  0.2207 -0.1587
 1939SOL    HW1 6889   7.719   0.239   2.769  1.0368  0.2068 -1.8070
 1939SOL    HW2 6890   7.601   0.221   2.676 -0.2951 -0.3491 -0.0824
 1940SOL     OW 6891   0.006   6.911   2.550  0.2243  0.4603  0.0076
 1940SOL    HW1 6892  -0.005   7.004   2.529  0.6878  0.6503  0.5763
 1940SOL    HW2 6893  -0.010   6.906   2.644 -1.2100 -0.2766 -0.2395
 1941SOL     OW 6894   2.289   5.024   3.477 -0.8892 -0.1367  0.2610
 1941SOL    HW1 6895   2.266   5.075   3.555 -1.8592 -0.9983  0.5603
 1941SOL    HW2 6896   2.381   5.000   3.490  0.2568  3.1431 -0.8173
 1942SOL     OW 6897   5.326   0.306   2.295  0.1509 -0.4559  0.2308
 1942SOL    HW1 6898   5.354   0.395   2.275 -0.5381 -0.1777  0.4531
 1942SOL    HW2 6899   5.308   0.308   2.389 -0.4684 -0.6467  0.1231
 1943SOL     OW 6900   2.828   0.499   5.351  0.6346 -0.3187 -0.7859
 1943SOL    HW1 6901   2.851   0.411   5.384  1.6255  0.0311 -0.4897
 1943SOL    HW2 6902   2.760   0.483   5.287 -0.3309 -1.1711  0.3969
 1944SOL     OW 6903   3.051   3.520   1.745  0.1537 -0.6141 -0.4460
 1944SOL    HW1 6904   3.113   3.487   1.810  0.4849 -3.0135 -1.8790
 1944SOL    HW2 6905   2.971   3.468   1.759 -0.0949 -0.4885 -1.3129
 1945SOL     OW 6906   7.547   4.567   3.903 -0.0620 -0.6405 -0.6713
 1945SOL    HW1 6907   7.637   4.535   3.908  1.4274  3.1632  1.3659
 1945SOL    HW2 6908   7.513   4.559   3.993 -1.8455 -2.0151 -1.3990
 1946SOL     OW 6909   1.352   0.297   6.449  0.4511  0.9017  0.1700
 1946SOL    HW1 6910   1.286   0.309   6.516  0.9126 -0.3181  0.8802
 1946SOL    HW2 6911   1.414   0.368   6.463 -0.8945  2.3082 -0.7778
 1947SOL     OW 6912   2.203   4.214   4.272  0.1947  0.2149  0.3878
 1947SOL    HW1 6913   2.177   4.185   4.184  0.9793  1.3591 -0.2610
 1947SOL    HW2 6914   2.284   4.167   4.289  0.0908  0.0606  0.4518
 1948SOL     OW 6915   5.385   0.560   4.039  0.8967  0.2836 -0.0108
 1948SOL    HW1 6916   5.475   0.534   4.057  0.1625 -1.4728  1.4001
 1948SOL    HW2 6917   5.360   0.508   3.962 -0.1955 -2.5441  2.1144
 1949SOL     OW 6918   5.603   5.832   5.692 -0.1101 -0.8992 -0.4404
 1949SOL    HW1 6919   5.618   5.901   5.628  0.4604 -0.8267 -0.2361
 1949SOL    HW2 6920   5.653   5.860   5.769 -0.9105 -0.9038  0.0932
 1950SOL     OW 6921   0.064   0.369   7.624 -0.6087  0.5143  0.0201
 1950SOL    HW1 6922  -0.014   0.327   7.661  0.1123 -0.4448  0.4870
 1950SOL    HW2 6923   0.032   0.415   7.546 -1.6439  0.1717  0.2300
 1951SOL     OW 6924   0.206   1.195   8.151 -0.0623 -0.5730  0.1224
 1951SOL    HW1 6925   0.294   1.171   8.181  0.3095  2.8764  2.3548
 1951SOL    HW2 6926   0.217   1.211   8.058  1.9938  0.5923  0.4808
 1952SOL     OW 6927   7.286   5.190   7.934  0.6937 -0.3428 -0.4200
 1952SOL    HW1 6928   7.367   5.218   7.978  1.4340 -2.3545 -0.3765
 1952SOL    HW2 6929   7.290   5.094   7.937 -0.4815 -0.5184 -2.6526
 1953SOL     OW 6930   1.251   1.603   3.602  0.5261  0.2938 -0.6942
 1953SOL    HW1 6931   1.219   1.691   3.584 -1.5722 -0.1656  0.5374
 1953SOL    HW2 6932   1.201   1.574   3.678 -1.1165 -3.0910 -2.8235
 1954SOL     OW 6933   0.732   1.120   0.140 -0.2377 -1.2514 -0.1318
 1954SOL    HW1 6934   0.734   1.201   0.190  2.7236 -1.7632  0.8191
 1954SOL    HW2 6935   0.716   1.148   0.050 -2.4049  0.0096  0.5772
 1955SOL     OW 6936   2.275   6.842   2.123 -0.0147  0.5698 -0.3098
 1955SOL    HW1 6937   2.247   6.933   2.112 -0.3339  0.4199 -0.7416
 1955SOL    HW2 6938   2.194   6.792   2.129  0.1403  0.1608 -1.3404
 1956SOL     OW 6939   7.850   5.561   5.699 -0.3879 -0.7917  0.3023
 1956SOL    HW1 6940   7.945   5.560   5.689 -0.2140  0.8375  1.4576
 1956SOL    HW2 6941   7.835   5.557   5.793 -1.3666  1.0033  0.2771
 1957SOL     OW 6942   1.927   4.452   5.897 -0.4767  0.0547 -0.4063
 1957SOL    HW1 6943   2.017   4.479   5.878 -0.3952  0.3719  0.3720
 1957SOL    HW2 6944   1.890   4.427   5.812  0.3594 -0.1240 -0.7221
 1958SOL     OW 6945   6.022   5.875   1.615 -0.0934  0.3910  0.2191
 1958SOL    HW1 6946   5.957   5.857   1.547 -0.4106  0.3485  0.5350
 1958SOL    HW2 6947   6.032   5.970   1.615  0.4763  0.3413 -0.4146
 1959SOL     OW 6948   0.374   4.015   6.456  0.1728  0.4973 -0.1962
 1959SOL    HW1 6949   0.311   3.972   6.398 -0.3117 -0.1546  0.7659
 1959SOL    HW2 6950   0.416   3.943   6.503  1.3444  0.9530 -0.5110
 1960SOL     OW 6951   6.784   1.972   5.690 -0.3356 -0.2442  0.1819
 1960SOL    HW1 6952   6.756   1.889   5.651 -0.9777 -0.1386  0.4049
 1960SOL    HW2 6953   6.800   2.029   5.614 -1.7935  0.0293  0.0458
 1961SOL     OW 6954   0.364   5.213   3.739  0.8427 -0.4683  0.0841
 1961SOL    HW1 6955   0.392   5.155   3.669  0.1391  0.7778 -1.3063
 1961SOL    HW2 6956   0.271   5.194   3.749  0.8193 -0.2491  0.2806
 1962SOL     OW 6957   5.331   4.201   0.279  0.0889  0.1156  0.2923
 1962SOL    HW1 6958   5.402   4.152   0.320 -0.0725  0.5686  1.1309
 1962SOL    HW2 6959   5.344   4.187   0.185 -0.1056 -1.7214  0.5072
 1963SOL     OW 6960   7.545   4.929   0.099  0.2870 -0.0782  0.7646
 1963SOL    HW1 6961   7.468   4.985   0.108  0.1179 -0.0233 -0.8043
 1963SOL    HW2 6962   7.539   4.893   0.011  1.5251 -0.8870  0.9809
 1964SOL     OW 6963   3.288   4.347   0.928  0.6931 -0.2239 -0.1884
 1964SOL    HW1 6964   3.346   4.419   0.903  0.6160 -0.0115  0.2331
 1964SOL    HW2 6965   3.213   4.356   0.869 -0.5506  1.6715  1.5580
 1965SOL     OW 6966   3.258   0.160   0.168  0.3578  0.3615  0.1240
 1965SOL    HW1 6967   3.180   0.207   0.196 -0.2089 -0.0095 -0.7939
 1965SOL    HW2 6968   3.262   0.084   0.226 -0.4574 -0.0738 -0.3678
 1966SOL     OW 6969   4.024   7.694   2.608 -0.3317  0.0036 -0.1363
 1966SOL    HW1 6970   4.079   7.620   2.633  0.0512 -0.0495 -1.0946
 1966SOL    HW2 6971   3.950   7.690   2.667  0.6106 -0.0256  1.0754
 1967SOL     OW 6972   5.980   4.204   6.421  0.5577  0.1459 -0.3613
 1967SOL    HW1 6973   5.931   4.149   6.361  0.5271  0.9895 -1.1362
 1967SOL    HW2 6974   6.012   4.144   6.488  0.6241 -0.8309 -1.2373
 1968SOL     OW 6975   4.304   0.503   0.137  0.4334  0.7307 -0.6662
 1968SOL    HW1 6976   4.294   0.435   0.204  4.1807  1.5980  1.0633
 1968SOL    HW2 6977   4.248   0.575   0.168  0.6137  0.3966  0.4760
 1969SOL     OW 6978   6.841   2.023   1.730  0.0328  0.1017  0.3132
 1969SOL    HW1 6979   6.899   2.028   1.806  1.0160 -0.4763 -0.3782
 1969SOL    HW2 6980   6.796   2.107   1.729  1.0004  0.6411  0.7701
 1970SOL     OW 6981   0.489   1.049   7.527  0.1996 -0.5394  0.4473
 1970SOL    HW1 6982   0.439   1.084   7.453  0.5461 -0.5737  0.1934
 1970SOL    HW2 6983   0.423   1.008   7.583  0.0734 -1.7784 -0.5514
 1971SOL     OW 6984   4.379   2.263   5.014  0.7169 -0.6685  0.2410
 1971SOL    HW1 6985   4.315   2.329   4.989  1.5445  0.1014  0.1317
 1971SOL    HW2 6986   4.359   2.188   4.958  0.7180  0.0168 -0.6932
 1972SOL     OW 6987   5.426   5.105   2.472 -0.4521  0.0339  0.4100
 1972SOL    HW1 6988   5.480   5.177   2.506 -0.0605 -0.1802  0.2461
 1972SOL    HW2 6989   5.412   5.127   2.380  0.6860 -0.6925  0.0359
 1973SOL     OW 6990   7.021   4.885   0.705  0.0705 -0.4149  0.3018
 1973SOL    HW1 6991   7.048   4.969   0.668 -1.8001 -0.0543 -0.3809
 1973SOL    HW2 6992   6.982   4.838   0.632 -0.0423 -1.3610  0.9490
 1974SOL     OW 6993   0.388   0.998   5.424  0.1118  0.2422 -0.1114
 1974SOL    HW1 6994   0.296   0.989   5.400 -0.0472 -0.1510  0.6200
 1974SOL    HW2 6995   0.401   0.934   5.495  0.9467  0.2833 -0.2177
 1975SOL     OW 6996   1.787   7.235   0.988 -0.1980 -0.3785 -0.2921
 1975SOL    HW1 6997   1.878   7.208   0.976 -0.0299 -0.2060  0.5201
 1975SOL    HW2 6998   1.746   7.162   1.034 -0.0011  0.2904  0.9801
 1976SOL     OW 6999   4.561   1.852   5.533 -0.0107  0.1536  0.5300
 1976SOL    HW1 7000   4.559   1.946   5.516 -1.7140  0.6172  2.9189
 1976SOL    HW2 7001   4.627   1.841   5.601  0.8280 -0.5596 -0.3566
 1977SOL     OW 7002   2.891   0.808   2.082 -0.1197 -0.3103 -1.0446
 1977SOL    HW1 7003   2.874   0.803   2.176 -1.0551  0.3027 -1.1645
 1977SOL    HW2 7004   2.942   0.888   2.071 -1.5633  0.6277 -1.2343
 1978SOL     OW 7005   1.027   0.870   0.681  0.4601 -0.2773  0.3966
 1978SOL    HW1 7006   1.047   0.843   0.591  0.6336  0.1795  0.2944
 1978SOL    HW2 7007   0.935   0.849   0.692  0.6961 -1.3310  0.4776
 1979SOL     OW 7008   7.840   4.064   6.423 -0.1799 -0.5264  0.4068
 1979SOL    HW1 7009   7.875   4.090   6.338 -1.1037 -1.4886 -0.3065
 1979SOL    HW2 7010   7.853   4.140   6.480  0.7100  0.0287 -0.5168
 1980SOL     OW 7011   3.034   5.411   6.980 -0.3363 -0.0447  0.6370
 1980SOL    HW1 7012   3.112   5.446   7.023  1.8147 -1.2479 -1.9874
 1980SOL    HW2 7013   3.033   5.318   7.003 -0.7492 -0.1113  0.3593
 1981SOL     OW 7014   7.604   3.464   3.171 -0.6670  0.2890 -0.4791
 1981SOL    HW1 7015   7.622   3.554   3.199 -2.9903  0.0569  2.0726
 1981SOL    HW2 7016   7.663   3.411   3.224 -1.3470  0.1671  0.1709
 1982SOL     OW 7017   5.471   0.818   4.403  0.2818  0.4261  0.2999
 1982SOL    HW1 7018   5.522   0.885   4.448  1.3025  0.9603 -1.5518
 1982SOL    HW2 7019   5.533   0.746   4.390  0.6162  1.0375 -1.8695
 1983SOL     OW 7020   6.286   2.665   4.292  0.2399 -0.1432  0.1331
 1983SOL    HW1 7021   6.368   2.704   4.264 -0.2109  1.6659  1.1885
 1983SOL    HW2 7022   6.270   2.594   4.229  2.3434 -0.2406 -0.3538
 1984SOL     OW 7023   5.541   5.898   4.541  0.1707  0.1581  0.2122
 1984SOL    HW1 7024   5.634   5.899   4.566  0.0753  0.5830  0.5607
 1984SOL    HW2 7025   5.494   5.907   4.624 -0.1716  0.6710 -0.0387
 1985SOL     OW 7026   6.407   5.149   7.897  0.5679  0.3452  0.7998
 1985SOL    HW1 7027   6.389   5.146   7.991  0.0486 -0.0539  0.6893
 1985SOL    HW2 7028   6.437   5.060   7.875  0.2163  0.2991  0.4959
 1986SOL     OW 7029   2.181   5.943   1.608  0.0306 -0.0440 -0.1828
 1986SOL    HW1 7030   2.224   5.912   1.529 -0.4289 -1.7261  0.1828
 1986SOL    HW2 7031   2.110   5.881   1.622  0.6259 -0.3062  2.0229
 1987SOL     OW 7032   7.851   0.879   0.435 -0.0865 -0.3818  0.5171
 1987SOL    HW1 7033   7.780   0.848   0.491 -0.1482 -0.4284  0.4130
 1987SOL    HW2 7034   7.817   0.869   0.346 -1.0976  2.3225  0.5045
 1988SOL     OW 7035   2.409   6.741   2.378 -0.2053  0.0621 -0.2379
 1988SOL    HW1 7036   2.443   6.675   2.439  0.2340  0.1890 -0.3424
 1988SOL    HW2 7037   2.475   6.747   2.309  0.7733  2.0364  0.7798
 1989SOL     OW 7038   6.058   7.707   3.599  0.2742  0.2789 -0.0491
 1989SOL    HW1 7039   6.124   7.648   3.562  0.1851  0.6518 -0.8098
 1989SOL    HW2 7040   5.997   7.724   3.527 -2.8269 -2.9685  1.4991
 1990SOL     OW 7041   0.038   3.598   3.153  0.1450 -0.0983  0.5498
 1990SOL    HW1 7042   0.017   3.689   3.175 -0.6956 -0.8458  3.2684
 1990SOL    HW2 7043  -0.045   3.552   3.159  0.7506 -1.2556  0.4055
 1991SOL     OW 7044   4.136   2.207   7.512  0.1183 -0.5680 -0.1655
 1991SOL    HW1 7045   4.184   2.142   7.564  0.0347  0.1514  0.8467
 1991SOL    HW2 7046   4.203   2.268   7.482 -0.1854  1.0536  2.1476
 1992SOL     OW 7047   4.035   6.744   1.748  0.8993 -0.3445  0.3095
 1992SOL    HW1 7048   4.004   6.744   1.657 -0.4718  0.0631  0.7510
 1992SOL    HW2 7049   4.127   6.717   1.742  0.2857 -2.4443 -1.0044
 1993SOL     OW 7050   7.624   0.891   2.176  0.6865  0.6683 -0.1033
 1993SOL    HW1 7051   7.716   0.873   2.193  0.4472  0.9376  1.6293
 1993SOL    HW2 7052   7.622   0.981   2.144  0.9410  1.0624  0.9491
 1994SOL     OW 7053   3.536   5.958   3.631  0.2831 -0.3157 -0.0373
 1994SOL    HW1 7054   3.575   5.949   3.544  0.6389 -2.2573  0.2540
 1994SOL    HW2 7055   3.446   5.984   3.615  0.8674  1.3275 -0.8696
 1995SOL     OW 7056   4.745   6.742   1.502  0.0042 -0.3059  0.2299
 1995SOL    HW1 7057   4.782   6.653   1.498 -1.0322 -0.7128 -1.2896
 1995SOL    HW2 7058   4.804   6.795   1.448 -0.5241 -0.5465 -0.6084
 1996SOL     OW 7059   7.835   3.753   3.272 -0.1223  0.2813  0.0387
 1996SOL    HW1 7060   7.844   3.847   3.256 -0.4504  0.2907 -0.1103
 1996SOL    HW2 7061   7.748   3.731   3.237 -0.3629  0.0709  0.7504
 1997SOL     OW 7062   0.140   3.999   2.957 -0.2664 -0.0755 -0.8603
 1997SOL    HW1 7063   0.208   4.055   2.921  0.9021 -1.1688 -0.4114
 1997SOL    HW2 7064   0.180   3.957   3.033 -1.7040 -0.1353 -0.0904
 1998SOL     OW 7065   6.781   3.118   4.244  0.2969  0.1556  0.5569
 1998SOL    HW1 7066   6.769   3.041   4.300 -0.8601  0.9904  1.4809
 1998SOL    HW2 7067   6.751   3.089   4.158  1.7004 -1.0098  0.4051
 1999SOL     OW 7068   0.554   1.530   7.439 -0.0441  0.1653 -0.1252
 1999SOL    HW1 7069   0.640   1.558   7.470  0.2434  0.3278 -1.0376
 1999SOL    HW2 7070   0.512   1.492   7.517  0.4364  1.0431  0.5785
 2000SOL     OW 7071   0.664   0.757   4.251 -0.5495  0.4088  0.4405
 2000SOL    HW1 7072   0.703   0.759   4.339 -3.8837 -2.0912  2.1666
 2000SOL    HW2 7073   0.677   0.668   4.221 -1.6138  0.5784 -0.5669
 2001SOL     OW 7074   6.992   6.005   1.794  0.2735  0.5319  0.3434
 2001SOL    HW1 7075   6.993   5.946   1.869  0.3984 -0.3132 -0.3064
 2001SOL    HW2 7076   7.067   6.063   1.807  2.3954 -1.7567 -0.7626
 2002SOL     OW 7077   6.260   2.567   7.221 -0.1661 -0.2849  0.3029
 2002SOL    HW1 7078   6.187   2.532   7.272 -0.0975  1.5665  1.7823
 2002SOL    HW2 7079   6.219   2.600   7.141 -0.7680 -0.3887  0.5601
 2003SOL     OW 7080   5.622   3.961   4.528  0.1107 -0.1212 -0.2059
 2003SOL    HW1 7081   5.651   3.876   4.561 -0.1095 -0.5344 -1.0526
 2003SOL    HW2 7082   5.540   3.978   4.574  2.2665  1.7708  3.3832
 2004SOL     OW 7083   4.235   2.956   0.316 -0.4174 -0.1721 -0.8217
 2004SOL    HW1 7084   4.203   2.950   0.406  1.0980 -2.6734 -0.3706
 2004SOL    HW2 7085   4.287   3.037   0.315 -0.6272  0.0057  0.4681
 2005SOL     OW 7086   1.697   3.447   4.788 -0.4700  0.0395  0.0555
 2005SOL    HW1 7087   1.713   3.427   4.696  0.1391 -0.8513  0.3402
 2005SOL    HW2 7088   1.692   3.542   4.792 -0.3139  0.0923 -0.8612
 2006SOL     OW 7089   6.317   5.840   0.697  0.3500  0.1007 -0.6163
 2006SOL    HW1 7090   6.280   5.765   0.742  1.2686 -0.3119 -0.5278
 2006SOL    HW2 7091   6.290   5.915   0.751 -1.4889 -0.0161 -1.2914
 2007SOL     OW 7092   0.324   8.018   7.709 -0.2198 -0.8839  0.7851
 2007SOL    HW1 7093   0.271   8.021   7.630 -0.4187 -0.9349  0.9152
 2007SOL    HW2 7094   0.414   8.010   7.678 -0.3070 -1.0229  0.5669
 2008SOL     OW 7095   3.449   1.875   3.288  0.2362  0.2543 -0.7804
 2008SOL    HW1 7096   3.510   1.886   3.361  1.5521  0.8093 -1.9066
 2008SOL    HW2 7097   3.467   1.788   3.254 -1.2507 -0.5164  0.2695
 2009SOL     OW 7098   6.117   4.370   2.504 -0.0950  0.0296  0.3639
 2009SOL    HW1 7099   6.125   4.367   2.599  2.4990  0.4028  0.2345
 2009SOL    HW2 7100   6.097   4.462   2.485  0.3249  0.1492  0.4976
 2010SOL     OW 7101   7.869   1.290   2.051 -0.2289  0.6327  0.4484
 2010SOL    HW1 7102   7.951   1.246   2.072 -0.3784  0.5660  0.9032
 2010SOL    HW2 7103   7.837   1.245   1.973 -0.1658  0.2152  0.6613
 2011SOL     OW 7104   6.970   4.302   4.638 -0.0241  0.4154  0.5533
 2011SOL    HW1 7105   6.944   4.267   4.553 -0.0093  2.5667 -0.4150
 2011SOL    HW2 7106   7.055   4.343   4.621 -0.1015  1.0146  1.5470
 2012SOL     OW 7107   0.782   4.934   1.148  0.8124 -0.1232  0.0105
 2012SOL    HW1 7108   0.772   4.844   1.116  0.8184 -0.2272  0.2978
 2012SOL    HW2 7109   0.757   4.989   1.074 -1.2482 -0.3641  0.4850
 2013SOL     OW 7110   4.924   0.488   7.855 -0.2896 -0.7899 -0.3388
 2013SOL    HW1 7111   4.997   0.540   7.890  0.0035 -1.4377  0.0380
 2013SOL    HW2 7112   4.874   0.463   7.933 -1.2904  0.1821 -0.6426
 2014SOL     OW 7113   1.726   4.975   6.585 -0.3369 -0.5766 -0.0148
 2014SOL    HW1 7114   1.749   4.957   6.493 -1.0582 -0.3093 -0.2512
 2014SOL    HW2 7115   1.710   4.888   6.622 -0.6421 -0.6483 -0.3062
 2015SOL     OW 7116   0.082   1.245   4.790 -0.1598  0.6785  0.0912
 2015SOL    HW1 7117   0.177   1.249   4.780 -0.2169  1.4869 -0.2494
 2015SOL    HW2 7118   0.053   1.179   4.727  0.3171 -0.8951  1.4397
 2016SOL     OW 7119   5.165   6.543   6.008 -0.1148 -0.5336 -0.0512
 2016SOL    HW1 7120   5.098   6.490   6.050 -2.1615  1.0096 -1.2002
 2016SOL    HW2 7121   5.132   6.559   5.919  0.4555  2.4683  0.1783
 2017SOL     OW 7122   6.706   8.018   4.896  0.7188  0.1571  0.5415
 2017SOL    HW1 7123   6.668   8.061   4.819 -0.7101 -1.5485  0.2452
 2017SOL    HW2 7124   6.797   8.002   4.873  0.7982  1.3502 -0.0352
 2018SOL     OW 7125   5.008   6.017   0.465  0.4360 -0.6458  0.1762
 2018SOL    HW1 7126   5.000   5.982   0.377 -0.0047  0.5155 -0.2666
 2018SOL    HW2 7127   4.921   6.054   0.484  1.2477  1.4530  0.0369
 2019SOL     OW 7128   3.625   5.660   0.995 -0.3704 -0.5574  0.3595
 2019SOL    HW1 7129   3.641   5.713   1.074  2.3326  0.4680 -0.7437
 2019SOL    HW2 7130   3.678   5.582   1.007  0.1573 -0.3411 -0.4423
 2020SOL     OW 7131   3.994   7.320   4.346  0.3347  0.3407 -0.1719
 2020SOL    HW1 7132   4.064   7.358   4.293  0.1131  0.0870 -0.6523
 2020SOL    HW2 7133   4.007   7.357   4.434  0.0148  1.6770 -0.6597
 2021SOL     OW 7134   2.569   2.280   0.739  0.2754 -0.0915 -0.4725
 2021SOL    HW1 7135   2.511   2.233   0.679  0.9714 -0.9684 -0.4957
 2021SOL    HW2 7136   2.514   2.303   0.814 -0.1324 -0.7834 -0.5509
 2022SOL     OW 7137   3.353   2.988   0.635 -0.2714 -0.3025  0.0584
 2022SOL    HW1 7138   3.260   3.007   0.624 -0.2289  0.6906  1.2728
 2022SOL    HW2 7139   3.381   3.044   0.707  0.7954 -2.1581  1.1543
 2023SOL     OW 7140   1.538   4.134   2.629  0.2451 -0.2268  0.3547
 2023SOL    HW1 7141   1.559   4.209   2.573  0.2824  0.2779  1.0371
 2023SOL    HW2 7142   1.557   4.057   2.574  0.3083  0.2561 -0.3109
 2024SOL     OW 7143   5.106   7.388   6.099  0.5630 -0.1484 -0.3531
 2024SOL    HW1 7144   5.042   7.411   6.032  0.6353 -0.3537 -0.4947
 2024SOL    HW2 7145   5.055   7.348   6.169  0.3808  0.7850  0.0736
 2025SOL     OW 7146   6.147   3.153   0.368 -0.4657  0.0235  0.6125
 2025SOL    HW1 7147   6.196   3.082   0.410 -1.6166 -0.5669  1.0069
 2025SOL    HW2 7148   6.086   3.182   0.435 -0.4933  0.9148  0.2088
 2026SOL     OW 7149   1.816   3.141   1.706 -0.2971 -0.2158 -0.1249
 2026SOL    HW1 7150   1.814   3.236   1.708  1.1904 -0.0923 -1.6570
 2026SOL    HW2 7151   1.736   3.115   1.662 -0.8614  0.2866  0.5849
 2027SOL     OW 7152   1.635   6.739   0.071 -0.0712 -0.5653 -0.5779
 2027SOL    HW1 7153   1.728   6.726   0.049  0.9996  0.8163  2.6178
 2027SOL    HW2 7154   1.603   6.651   0.090  0.9475 -0.9304 -0.4555
 2028SOL     OW 7155   2.904   4.929   6.051 -0.6748  0.1549  0.2428
 2028SOL    HW1 7156   2.871   4.995   5.990  1.6366  0.4549 -0.7991
 2028SOL    HW2 7157   2.998   4.922   6.030 -0.7412 -3.2534  0.5025
 2029SOL     OW 7158   2.356   3.077   3.037  0.0073 -0.1887  0.1743
 2029SOL    HW1 7159   2.361   3.001   2.978 -0.0986  0.3071 -0.4856
 2029SOL    HW2 7160   2.439   3.123   3.023 -0.4016  0.4262 -0.2808
 2030SOL     OW 7161   6.907   0.132   3.811 -0.0948  0.3287 -0.8935
 2030SOL    HW1 7162   6.846   0.113   3.882 -0.9352 -0.9398 -1.8998
 2030SOL    HW2 7163   6.894   0.225   3.793  0.0089  0.6328  0.4672
 2031SOL     OW 7164   2.159   7.912   7.705  0.4202 -0.0202  0.7301
 2031SOL    HW1 7165   2.233   7.900   7.645  0.3298 -1.2037  0.8358
 2031SOL    HW2 7166   2.177   7.853   7.778 -1.0367 -1.0313  0.3439
 2032SOL     OW 7167   0.539   5.039   1.005  0.6427 -0.4502  0.3360
 2032SOL    HW1 7168   0.502   5.038   0.917 -0.8976  2.2391  0.8525
 2032SOL    HW2 7169   0.517   4.953   1.042 -1.1998 -0.5613 -0.9166
 2033SOL     OW 7170   3.076   5.357   2.499 -0.3128  0.0053 -0.0423
 2033SOL    HW1 7171   3.137   5.284   2.484  1.1316  1.5755 -2.7574
 2033SOL    HW2 7172   2.992   5.326   2.466 -0.4740 -1.4029  1.5971
 2034SOL     OW 7173   4.959   7.266   0.706 -0.2911 -0.1369  0.3652
 2034SOL    HW1 7174   4.870   7.237   0.723 -0.2832 -0.6960 -0.5070
 2034SOL    HW2 7175   4.967   7.349   0.753 -0.6733 -0.9749  1.9985
 2035SOL     OW 7176   1.236   5.184   7.400 -0.3447 -0.1298 -0.2638
 2035SOL    HW1 7177   1.272   5.207   7.485 -0.7938 -0.1975 -0.0498
 2035SOL    HW2 7178   1.142   5.202   7.408 -0.3193  0.3295 -0.9034
 2036SOL     OW 7179   1.842   5.768   0.098 -0.2951  0.2444  0.1303
 2036SOL    HW1 7180   1.830   5.857   0.131  0.1971  0.2313  0.3495
 2036SOL    HW2 7181   1.934   5.748   0.115 -0.1921 -0.0019 -0.6622
 2037SOL     OW 7182   0.581   0.391   0.863  0.2742 -0.3995  0.3637
 2037SOL    HW1 7183   0.503   0.338   0.848  0.6541 -0.8380 -0.1121
 2037SOL    HW2 7184   0.565   0.434   0.947 -1.2353  0.8868 -0.5205
 2038SOL     OW 7185   0.126   4.371   6.926  0.1089  0.2358  0.1938
 2038SOL    HW1 7186   0.081   4.355   6.843 -1.1497  0.4229  0.8051
 2038SOL    HW2 7187   0.100   4.298   6.982  1.1690 -0.0365  0.3455
 2039SOL     OW 7188   7.907   7.677   2.530 -0.3288  0.2043 -0.3511
 2039SOL    HW1 7189   7.887   7.744   2.596 -0.5731 -0.8398  0.6669
 2039SOL    HW2 7190   8.001   7.663   2.538 -0.5547 -0.8609  0.7323
 2040SOL     OW 7191   5.532   4.996   7.171  0.3498  0.1961 -0.6246
 2040SOL    HW1 7192   5.606   5.023   7.117  1.7829  0.8843  1.5225
 2040SOL    HW2 7193   5.521   4.903   7.153  1.8018  0.0688 -0.9395
 2041SOL     OW 7194   6.222   0.823   6.909 -0.1486  0.1958 -0.2090
 2041SOL    HW1 7195   6.316   0.820   6.926  0.0609 -0.3415 -1.3591
 2041SOL    HW2 7196   6.202   0.916   6.901 -0.1412  0.4584  2.0923
 2042SOL     OW 7197   3.930   7.737   5.007  0.3395 -0.3863  0.0811
 2042SOL    HW1 7198   3.862   7.704   4.949  1.3549 -3.3471  0.4261
 2042SOL    HW2 7199   3.893   7.726   5.095  1.0750 -1.5627  0.2465
 2043SOL     OW 7200   4.529   2.758   5.757  0.5422 -0.0253 -0.5617
 2043SOL    HW1 7201   4.440   2.763   5.793  1.2203 -0.5437  1.3032
 2043SOL    HW2 7202   4.554   2.666   5.767  0.6574 -0.2733 -2.7544
 2044SOL     OW 7203   1.800   7.168   5.341 -0.4031 -0.3373  0.0059
 2044SOL    HW1 7204   1.858   7.093   5.325 -0.0986  0.1659 -1.3490
 2044SOL    HW2 7205   1.854   7.229   5.392  0.7242  0.6295 -2.2118
 2045SOL     OW 7206   5.987   0.551   1.178  0.6147 -0.6003 -0.1960
 2045SOL    HW1 7207   5.953   0.478   1.125 -1.3113 -0.5514  0.8704
 2045SOL    HW2 7208   5.987   0.626   1.119 -0.0745 -0.8764 -0.5620
 2046SOL     OW 7209   0.297   3.773   2.720 -0.9128  0.3803  1.3439
 2046SOL    HW1 7210   0.265   3.739   2.637 -3.1788  0.8298  1.9591
 2046SOL    HW2 7211   0.253   3.721   2.786  1.4394 -0.4915  2.3387
 2047SOL     OW 7212   6.085   5.105   2.446  0.4408  0.0695  0.0100
 2047SOL    HW1 7213   6.018   5.055   2.398  0.2565  1.3324 -1.1147
 2047SOL    HW2 7214   6.134   5.039   2.495 -0.5419 -1.0726 -0.5046
 2048SOL     OW 7215   1.782   7.250   1.313  0.4490  0.0534  0.5737
 2048SOL    HW1 7216   1.745   7.212   1.393  0.1378  1.1569  0.9679
 2048SOL    HW2 7217   1.727   7.325   1.294  1.7726  1.0393  0.5062
 2049SOL     OW 7218   1.735   2.821   1.206 -0.6317 -0.1696  0.2243
 2049SOL    HW1 7219   1.701   2.808   1.118  0.4569 -0.4083 -0.1755
 2049SOL    HW2 7220   1.717   2.913   1.226 -3.3716 -0.7491  0.8724
 2050SOL     OW 7221   6.958   0.109   0.442  0.6266  0.1694  0.1065
 2050SOL    HW1 7222   6.914   0.168   0.381 -0.4257 -1.2232 -0.5505
 2050SOL    HW2 7223   6.954   0.154   0.526  0.1831  1.1882 -0.4434
 2051SOL     OW 7224   7.280   0.263   0.471 -0.1955 -0.4542 -0.4289
 2051SOL    HW1 7225   7.199   0.315   0.471 -0.7821 -1.3194 -1.3962
 2051SOL    HW2 7226   7.296   0.244   0.564 -0.1299  1.1689 -0.0823
 2052SOL     OW 7227   7.215   1.086   3.339  0.3546 -0.5139 -0.0294
 2052SOL    HW1 7228   7.196   1.173   3.375 -1.2314 -0.5613 -0.6525
 2052SOL    HW2 7229   7.237   1.103   3.247  0.8045 -0.7102  0.0407
 2053SOL     OW 7230   1.321   5.019   0.368 -0.4115  0.2292  0.3461
 2053SOL    HW1 7231   1.255   4.972   0.316  0.3795  0.9618 -1.3956
 2053SOL    HW2 7232   1.291   5.110   0.368 -0.4854  0.2145  1.3543
 2054SOL     OW 7233   1.569   4.770   0.777  0.7873  0.7035 -0.1379
 2054SOL    HW1 7234   1.622   4.842   0.743  2.0030 -0.3534 -0.5722
 2054SOL    HW2 7235   1.491   4.769   0.722  0.4178  2.1119  0.3253
 2055SOL     OW 7236   4.115   6.508   7.972  0.1903 -0.0381 -0.8018
 2055SOL    HW1 7237   4.144   6.475   7.887 -1.4019 -1.9669 -0.6572
 2055SOL    HW2 7238   4.024   6.480   7.979 -0.5692  2.4878  0.3907
 2056SOL     OW 7239   2.370   5.485   0.470  0.3056  0.1123  0.6802
 2056SOL    HW1 7240   2.335   5.453   0.387 -1.2980  2.8206  0.2009
 2056SOL    HW2 7241   2.465   5.491   0.455 -0.1363  2.8877 -1.9717
 2057SOL     OW 7242   6.585   2.051   2.901  0.0182  0.6324  0.4360
 2057SOL    HW1 7243   6.546   1.970   2.868  0.8062  0.6695 -0.6611
 2057SOL    HW2 7244   6.558   2.056   2.993 -0.0024 -0.8880  0.5302
 2058SOL     OW 7245   7.933   0.940   5.778 -0.1077 -0.6737 -0.1617
 2058SOL    HW1 7246   7.947   0.993   5.700  1.6925  0.6784  1.0014
 2058SOL    HW2 7247   7.988   0.863   5.765  0.1730 -0.4607 -0.2313
 2059SOL     OW 7248   7.412   6.056   6.437  1.4339  0.3806  0.1197
 2059SOL    HW1 7249   7.411   5.965   6.466 -0.0719  0.1052 -0.7067
 2059SOL    HW2 7250   7.425   6.106   6.518 -0.0202 -0.4897  0.9378
 2060SOL     OW 7251   1.399   1.924   2.385  0.4410  0.2209  0.1305
 2060SOL    HW1 7252   1.453   1.892   2.313 -0.9593  0.2008 -0.9585
 2060SOL    HW2 7253   1.460   1.971   2.443  1.3934  1.5206 -1.8219
 2061SOL     OW 7254   6.064   3.948   0.268  0.2703 -0.1514 -0.1913
 2061SOL    HW1 7255   6.052   4.009   0.196  2.5993  0.4284 -0.1409
 2061SOL    HW2 7256   6.152   3.914   0.258 -0.1026 -1.6863  1.1861
 2062SOL     OW 7257   4.164   4.259   6.995  0.0818 -0.5592 -0.1220
 2062SOL    HW1 7258   4.137   4.350   6.983 -2.1292 -0.8707  1.7614
 2062SOL    HW2 7259   4.102   4.208   6.945 -0.2711 -1.1224  0.8602
 2063SOL     OW 7260   7.028   5.822   3.267  0.3299  0.1548  0.3202
 2063SOL    HW1 7261   6.979   5.753   3.313 -0.3621  0.1017 -0.4668
 2063SOL    HW2 7262   7.046   5.887   3.334 -0.0725 -0.2290  0.8147
 2064SOL     OW 7263   3.845   1.460   0.976  0.0202  0.3406  0.4358
 2064SOL    HW1 7264   3.802   1.391   0.926 -1.1292  0.7991  0.7474
 2064SOL    HW2 7265   3.912   1.494   0.917  1.4136 -1.7827  0.6887
 2065SOL     OW 7266   7.866   3.190   4.762 -0.1601 -0.2149  0.1988
 2065SOL    HW1 7267   7.953   3.185   4.723 -0.7872  0.4182 -1.3467
 2065SOL    HW2 7268   7.822   3.110   4.733 -0.3945 -0.0834  0.1845
 2066SOL     OW 7269   0.589   5.619   1.711 -0.7343 -0.2808 -0.0156
 2066SOL    HW1 7270   0.557   5.530   1.729  0.8786 -0.3388  3.3071
 2066SOL    HW2 7271   0.620   5.651   1.796  1.0310  2.5333 -1.5782
 2067SOL     OW 7272   0.310   4.699   1.790 -0.0583 -0.3013  0.6748
 2067SOL    HW1 7273   0.316   4.759   1.715 -1.2457 -0.8312  0.1148
 2067SOL    HW2 7274   0.392   4.649   1.788  2.0780  2.7963  2.5658
 2068SOL     OW 7275   1.312   2.143   5.411  0.4976  0.6658  0.1097
 2068SOL    HW1 7276   1.273   2.211   5.468 -0.3794  0.1117  0.2003
 2068SOL    HW2 7277   1.400   2.174   5.393  0.2776  1.5903  0.5598
 2069SOL     OW 7278   6.437   6.480   3.466  0.8037 -0.1915 -0.6307
 2069SOL    HW1 7279   6.486   6.516   3.541 -0.6608  0.4765  0.0456
 2069SOL    HW2 7280   6.495   6.495   3.391  1.4123  1.0734  0.0550
 2070SOL     OW 7281   6.058   2.723   3.115 -0.0406 -0.1962  0.5590
 2070SOL    HW1 7282   6.048   2.719   3.020 -0.8382 -0.4927  0.6506
 2070SOL    HW2 7283   5.986   2.779   3.145  0.3185  0.0550  0.9760
 2071SOL     OW 7284   0.515   7.242   0.539  0.0602 -0.2940 -0.1882
 2071SOL    HW1 7285   0.534   7.234   0.445  0.9648  1.5301 -0.2086
 2071SOL    HW2 7286   0.596   7.278   0.576 -0.0930 -1.4859  1.4033
 2072SOL     OW 7287   6.280   3.194   1.659  0.4917 -0.0606  0.0743
 2072SOL    HW1 7288   6.308   3.181   1.750  0.7883  1.2696  0.1865
 2072SOL    HW2 7289   6.253   3.107   1.630 -0.2984 -0.3902  1.6712
 2073SOL     OW 7290   4.623   6.413   4.931  0.0277 -0.0182 -0.0399
 2073SOL    HW1 7291   4.575   6.377   4.856  0.7996  0.5271 -0.8170
 2073SOL    HW2 7292   4.662   6.337   4.974  0.7132 -0.2311 -1.0125
 2074SOL     OW 7293   1.287   0.125   7.906  0.2619 -0.0494  0.1366
 2074SOL    HW1 7294   1.285   0.135   7.811  0.8332 -0.4521  0.0740
 2074SOL    HW2 7295   1.294   0.030   7.920  0.3793  0.0194  0.5747
 2075SOL     OW 7296   2.404   7.601   4.787  0.3588  0.4815 -0.2027
 2075SOL    HW1 7297   2.337   7.608   4.719  0.0591 -2.8229 -0.4109
 2075SOL    HW2 7298   2.366   7.645   4.863 -0.4693  1.8325 -1.3465
 2076SOL     OW 7299   5.752   4.870   3.662 -0.5633  0.3853 -0.2602
 2076SOL    HW1 7300   5.691   4.901   3.595 -3.0389 -1.1155  1.1481
 2076SOL    HW2 7301   5.781   4.784   3.630  1.3681  1.3137 -1.1826
 2077SOL     OW 7302   7.916   5.194   5.718 -0.5648  0.3280  0.2364
 2077SOL    HW1 7303   7.992   5.137   5.705  0.5907  1.7421  0.4965
 2077SOL    HW2 7304   7.911   5.207   5.813 -1.4023 -0.0949  0.2559
 2078SOL     OW 7305   5.168   7.040   7.989  0.0348  0.2199  0.5391
 2078SOL    HW1 7306   5.245   6.999   8.029  0.0498  0.5321  0.8340
 2078SOL    HW2 7307   5.096   6.979   8.007 -0.0476  0.5697  1.4354
 2079SOL     OW 7308   5.197   3.085   6.392  0.5072  0.0235  0.1227
 2079SOL    HW1 7309   5.104   3.103   6.404  0.6832  0.5961  0.6893
 2079SOL    HW2 7310   5.218   3.119   6.305  0.4386  0.9821  0.4669
 2080SOL     OW 7311   2.071   0.719   4.966  0.4133 -0.5376 -0.6902
 2080SOL    HW1 7312   2.083   0.630   4.999  1.2304  0.5217  2.1375
 2080SOL    HW2 7313   2.157   0.745   4.934  0.7087 -0.0450  0.4786
 2081SOL     OW 7314   2.109   4.306   2.355 -0.3480  0.0836  0.0629
 2081SOL    HW1 7315   2.124   4.262   2.439 -0.0174 -0.9577 -0.5362
 2081SOL    HW2 7316   2.195   4.339   2.330 -0.4264  0.2995  0.0748
 2082SOL     OW 7317   4.205   2.037   3.588  0.7354  0.1705 -0.6769
 2082SOL    HW1 7318   4.153   1.985   3.649 -0.9393 -0.2863 -2.3827
 2082SOL    HW2 7319   4.153   2.116   3.572  1.3214  0.4639 -1.2199
 2083SOL     OW 7320   5.819   3.603   6.547 -0.1747 -0.0263  0.1861
 2083SOL    HW1 7321   5.761   3.678   6.561 -0.1201  0.2019 -0.7417
 2083SOL    HW2 7322   5.768   3.527   6.577 -0.8633  0.1968 -0.4106
 2084SOL     OW 7323   6.675   6.182   5.442 -0.0559 -0.2201  0.3829
 2084SOL    HW1 7324   6.683   6.276   5.457 -1.2799 -0.1889  0.9325
 2084SOL    HW2 7325   6.628   6.175   5.359 -0.1454 -0.3521  0.4448
 2085SOL     OW 7326   7.401   2.589   6.065  0.2922 -0.1621 -0.1115
 2085SOL    HW1 7327   7.437   2.666   6.109  1.5312 -1.1973  0.7392
 2085SOL    HW2 7328   7.361   2.538   6.135  0.0743 -0.6276 -0.5653
 2086SOL     OW 7329   6.894   1.694   2.589  0.1118 -0.2479 -0.3650
 2086SOL    HW1 7330   6.853   1.749   2.522 -0.3352 -1.3497 -1.0190
 2086SOL    HW2 7331   6.837   1.701   2.665 -0.3438 -0.3897 -0.6908
 2087SOL     OW 7332   5.187   3.146   5.612 -0.1886  0.3000 -0.2684
 2087SOL    HW1 7333   5.268   3.193   5.593  1.0900 -1.2109  1.1549
 2087SOL    HW2 7334   5.174   3.158   5.706 -0.0132 -1.8020  0.0766
 2088SOL     OW 7335   0.904   0.551   3.062 -0.4498 -0.0875  0.1283
 2088SOL    HW1 7336   0.887   0.505   3.144 -0.8286  0.0075  0.1045
 2088SOL    HW2 7337   0.911   0.481   2.997  0.5056 -0.2032  0.3476
 2089SOL     OW 7338   0.007   7.510   6.835  0.5178  0.1352  0.2126
 2089SOL    HW1 7339  -0.069   7.456   6.813  1.3175 -0.9211 -0.0546
 2089SOL    HW2 7340   0.082   7.454   6.818  1.3674  1.1288  0.5501
 2090SOL     OW 7341   0.409   2.448   3.447 -0.1460 -0.0317  0.6414
 2090SOL    HW1 7342   0.453   2.415   3.525 -3.2886 -2.2688  1.6146
 2090SOL    HW2 7343   0.345   2.512   3.479 -1.0165 -0.4708 -0.1634
 2091SOL     OW 7344   8.023   5.871   3.484 -0.4431 -0.0508 -0.2977
 2091SOL    HW1 7345   8.087   5.897   3.550  0.4294 -0.6947 -0.8788
 2091SOL    HW2 7346   8.024   5.942   3.419  1.2407 -1.0376 -1.3928
 2092SOL     OW 7347   0.970   6.123   3.370  0.4529  0.4055  0.1836
 2092SOL    HW1 7348   0.930   6.062   3.308  1.3042  0.5387 -0.5044
 2092SOL    HW2 7349   1.064   6.107   3.363  0.5644  0.3356  1.5423
 2093SOL     OW 7350   0.726   0.355   7.111  0.5083  0.1706  0.1326
 2093SOL    HW1 7351   0.648   0.410   7.103 -0.0045 -0.3592  1.2084
 2093SOL    HW2 7352   0.691   0.268   7.130  1.3589 -0.1579  0.2242
 2094SOL     OW 7353   5.859   0.746   3.900  0.2862  0.5538 -0.3366
 2094SOL    HW1 7354   5.863   0.699   3.816  2.4144  0.0505 -0.0091
 2094SOL    HW2 7355   5.933   0.712   3.950 -2.2629 -0.8980  2.7266
 2095SOL     OW 7356   1.734   2.711   1.453  0.4089 -0.2155  0.5302
 2095SOL    HW1 7357   1.701   2.625   1.429  0.1535 -0.2231  0.9082
 2095SOL    HW2 7358   1.722   2.764   1.374 -1.3928  0.0415  0.9380
 2096SOL     OW 7359   5.295   7.317   4.600 -0.1752 -0.5056  0.3052
 2096SOL    HW1 7360   5.323   7.372   4.528  0.3420 -0.8848  0.2145
 2096SOL    HW2 7361   5.355   7.338   4.672 -1.7485  1.1708  1.2334
 2097SOL     OW 7362   3.100   1.523   4.677 -0.1715 -0.6115  0.0320
 2097SOL    HW1 7363   3.103   1.507   4.583 -2.0567 -1.4189  0.0651
 2097SOL    HW2 7364   3.064   1.612   4.685 -0.6822 -0.8085 -0.0190
 2098SOL     OW 7365   2.949   1.133   2.043  0.3365  0.6759 -0.1368
 2098SOL    HW1 7366   3.042   1.133   2.066  0.5370 -1.2796 -0.7386
 2098SOL    HW2 7367   2.944   1.185   1.962  0.9998  0.3430 -0.4004
 2099SOL     OW 7368   2.633   8.136   3.142  0.0208  0.0747 -0.2900
 2099SOL    HW1 7369   2.675   8.119   3.226 -1.0568  1.2504  0.5143
 2099SOL    HW2 7370   2.548   8.173   3.164 -0.9967 -1.1744 -1.8954
 2100SOL     OW 7371   5.023   1.677   5.310  0.0984  0.0730  0.0675
 2100SOL    HW1 7372   4.961   1.604   5.314 -0.4149  0.4886 -0.2339
 2100SOL    HW2 7373   4.971   1.750   5.277  0.7647  0.4111 -0.2363
 2101SOL     OW 7374   2.278   2.865   6.531 -0.0515 -0.1338 -0.1829
 2101SOL    HW1 7375   2.304   2.954   6.554 -0.1768 -0.2905  0.5945
 2101SOL    HW2 7376   2.357   2.812   6.544  0.3652  0.0492 -1.8337
 2102SOL     OW 7377   4.263   1.332   0.089 -0.1335  0.1480  0.0971
 2102SOL    HW1 7378   4.331   1.363   0.029 -1.3495 -0.3452 -1.6064
 2102SOL    HW2 7379   4.206   1.408   0.101 -1.5791 -0.5760 -1.8626
 2103SOL     OW 7380   4.987   6.093   1.223  0.2947 -0.3545  0.5903
 2103SOL    HW1 7381   4.924   6.149   1.268 -0.3633  0.5320 -1.3477
 2103SOL    HW2 7382   4.940   6.012   1.207  0.6890 -0.8558  1.8801
 2104SOL     OW 7383   6.491   3.569   7.129 -0.1326 -0.5107 -0.0506
 2104SOL    HW1 7384   6.536   3.614   7.057 -1.4771  1.1618  0.0919
 2104SOL    HW2 7385   6.487   3.478   7.101  1.4383 -0.3205 -1.0178
 2105SOL     OW 7386   1.948   6.579   1.545  0.6321  0.2572  0.0355
 2105SOL    HW1 7387   2.010   6.611   1.479  2.0474  0.0398  1.2167
 2105SOL    HW2 7388   1.977   6.619   1.627 -1.0430  0.4582  0.5836
 2106SOL     OW 7389   5.495   0.544   3.424  0.3660 -0.4656 -0.3525
 2106SOL    HW1 7390   5.457   0.456   3.431 -0.0836 -0.2763 -0.3746
 2106SOL    HW2 7391   5.456   0.592   3.497 -0.1147 -0.0250 -0.8937
 2107SOL     OW 7392   4.102   6.365   2.535  0.1854 -0.0220  0.0232
 2107SOL    HW1 7393   4.030   6.423   2.510 -0.0207  0.4381  1.5992
 2107SOL    HW2 7394   4.122   6.388   2.626  1.3678 -1.1352  0.0839
 2108SOL     OW 7395   3.665   6.815   1.401  0.0665  0.1243 -0.5983
 2108SOL    HW1 7396   3.680   6.897   1.353 -0.9410  1.8280  1.8202
 2108SOL    HW2 7397   3.584   6.780   1.364 -1.7256  2.3644  0.9037
 2109SOL     OW 7398   4.435   6.078   5.860 -0.5307 -0.1820 -0.3053
 2109SOL    HW1 7399   4.467   5.993   5.830 -2.6441 -0.1347 -2.9356
 2109SOL    HW2 7400   4.481   6.142   5.806 -0.1360  0.3045  0.5710
 2110SOL     OW 7401   4.025   5.888   3.848 -0.1090  0.5141 -0.3473
 2110SOL    HW1 7402   4.089   5.817   3.841  0.4587  0.7535  1.8063
 2110SOL    HW2 7403   3.954   5.862   3.789  0.1514 -1.7641  0.2545
 2111SOL     OW 7404   2.523   0.149   6.893 -0.0138 -0.0950 -0.2789
 2111SOL    HW1 7405   2.554   0.186   6.976 -1.4883  2.3454 -0.7008
 2111SOL    HW2 7406   2.588   0.178   6.829 -0.3362  0.4538 -0.3674
 2112SOL     OW 7407   2.112   6.670   4.528 -0.4084 -0.3945  0.2808
 2112SOL    HW1 7408   2.107   6.700   4.438 -1.0733 -0.0553  0.4237
 2112SOL    HW2 7409   2.166   6.591   4.524  0.5165  0.2437 -0.2435
 2113SOL     OW 7410   4.002   7.158   3.140  0.0913 -0.5047  0.3473
 2113SOL    HW1 7411   4.023   7.101   3.214 -0.5781  0.6044  1.4380
 2113SOL    HW2 7412   3.907   7.156   3.135  0.0306  0.7834  0.6490
 2114SOL     OW 7413   3.837   4.087   1.393  0.5870  0.4146 -0.5632
 2114SOL    HW1 7414   3.856   4.168   1.439 -0.0082 -0.0566  0.5596
 2114SOL    HW2 7415   3.922   4.049   1.372  0.9607 -0.5171  2.2829
 2115SOL     OW 7416   1.529   5.091   2.526  1.0623  0.5923 -0.7090
 2115SOL    HW1 7417   1.479   5.156   2.476  0.4031  0.6179 -0.0365
 2115SOL    HW2 7418   1.502   5.007   2.490  0.6301  0.6137 -0.4451
 2116SOL     OW 7419   0.293   5.410   0.205 -0.1437 -0.6486 -0.1856
 2116SOL    HW1 7420   0.200   5.393   0.220 -0.2214  0.4397  0.6423
 2116SOL    HW2 7421   0.295   5.489   0.151  0.3004  0.1292  0.9203
 2117SOL     OW 7422   7.264   1.269   2.457  0.0589  0.3436  0.2333
 2117SOL    HW1 7423   7.211   1.349   2.462 -0.8139 -0.1891 -0.2388
 2117SOL    HW2 7424   7.270   1.251   2.363  0.1037 -0.2534  0.3502
 2118SOL     OW 7425   3.590   6.671   0.182 -0.2612 -0.1008 -0.6097
 2118SOL    HW1 7426   3.617   6.737   0.117  1.3719 -2.7370 -2.8128
 2118SOL    HW2 7427   3.652   6.682   0.254 -1.8445  2.6008  0.5260
 2119SOL     OW 7428   5.238   5.746   6.932 -0.6393 -0.2632  0.2338
 2119SOL    HW1 7429   5.210   5.658   6.910 -3.0263  0.6724 -0.8947
 2119SOL    HW2 7430   5.168   5.780   6.987  1.3739  0.1957  2.7029
 2120SOL     OW 7431   4.642   7.892   3.962  0.4641 -0.4693 -0.4158
 2120SOL    HW1 7432   4.602   7.903   4.048  0.4289  1.5943 -0.6434
 2120SOL    HW2 7433   4.720   7.947   3.964 -0.5723  1.2167 -2.3062
 2121SOL     OW 7434   5.483   8.016   4.110 -0.0707 -0.4152  0.5251
 2121SOL    HW1 7435   5.491   8.090   4.170  1.8281 -0.5059  0.4590
 2121SOL    HW2 7436   5.568   7.972   4.116 -0.4834 -1.4574 -0.8905
 2122SOL     OW 7437   4.932   6.145   2.978 -0.0827 -0.1824 -0.4576
 2122SOL    HW1 7438   4.919   6.054   3.005 -0.1555 -0.2241 -0.6292
 2122SOL    HW2 7439   5.021   6.146   2.942  1.7995  0.8249  3.7202
 2123SOL     OW 7440   7.582   6.182   0.632  0.1909 -0.1487  0.1164
 2123SOL    HW1 7441   7.510   6.240   0.608  0.0240 -0.0945  0.7217
 2123SOL    HW2 7442   7.605   6.207   0.721  0.8919 -0.2380 -0.0288
 2124SOL     OW 7443   4.305   1.425   1.974  0.0691 -0.0007  0.1690
 2124SOL    HW1 7444   4.319   1.516   1.947 -0.5767 -0.2074 -0.9321
 2124SOL    HW2 7445   4.392   1.384   1.966  1.4190  1.3727  4.5838
 2125SOL     OW 7446   7.518   7.566   2.649  0.0220 -0.0141 -0.6400
 2125SOL    HW1 7447   7.522   7.658   2.620 -1.2486  0.3039  0.1161
 2125SOL    HW2 7448   7.586   7.559   2.715 -0.5893  0.7059  0.0940
 2126SOL     OW 7449   7.587   3.193   7.560  0.5109  0.1710 -0.0838
 2126SOL    HW1 7450   7.665   3.149   7.526  1.9323  2.0366  0.5449
 2126SOL    HW2 7451   7.549   3.238   7.485  0.5659 -0.0274 -0.2294
 2127SOL     OW 7452   4.739   7.270   0.917  0.3824  0.0720  0.1977
 2127SOL    HW1 7453   4.646   7.294   0.908  0.2818 -0.9871 -2.3908
 2127SOL    HW2 7454   4.738   7.188   0.966 -0.0426  0.0014  0.0726
 2128SOL     OW 7455   1.896   0.563   6.223  0.0218  0.4299 -0.1203
 2128SOL    HW1 7456   1.938   0.519   6.149 -0.2409 -1.1380  0.6381
 2128SOL    HW2 7457   1.965   0.571   6.289 -0.5259 -1.0926  0.6781
 2129SOL     OW 7458   1.807   5.905   2.311  0.0459  0.5093 -0.1171
 2129SOL    HW1 7459   1.851   5.839   2.365 -0.3049  1.8792  1.9513
 2129SOL    HW2 7460   1.716   5.874   2.305  0.2843 -0.1011 -0.7108
 2130SOL     OW 7461   7.591   4.535   0.499 -0.3945  0.3419  0.0822
 2130SOL    HW1 7462   7.617   4.510   0.588 -0.9844 -1.1139 -0.1210
 2130SOL    HW2 7463   7.671   4.566   0.458  0.4223 -1.2523  0.3818
 2131SOL     OW 7464   0.204   6.857   5.819 -0.6079  0.7609 -0.7682
 2131SOL    HW1 7465   0.151   6.929   5.786  0.6152  1.9638 -0.2130
 2131SOL    HW2 7466   0.289   6.869   5.778 -0.3973 -0.3975 -0.6919
 2132SOL     OW 7467   3.811   5.347   0.463 -0.1447 -0.5936 -0.0929
 2132SOL    HW1 7468   3.829   5.441   0.457 -1.1260 -0.3536  0.4619
 2132SOL    HW2 7469   3.896   5.305   0.451  0.3128  0.3663 -0.2970
 2133SOL     OW 7470   7.725   0.019   1.111 -0.0137  0.0178  0.1543
 2133SOL    HW1 7471   7.810   0.026   1.154 -0.0941  1.2260  0.1710
 2133SOL    HW2 7472   7.701  -0.073   1.119  2.1236 -0.7717 -1.4980
 2134SOL     OW 7473   0.278   3.032   7.343 -0.1383  0.0724 -0.1791
 2134SOL    HW1 7474   0.265   3.127   7.352  0.0857  0.1306 -0.4592
 2134SOL    HW2 7475   0.291   3.001   7.432 -1.5731  0.1000  0.0709
 2135SOL     OW 7476   8.127   5.399   3.353 -0.1255 -0.0195  0.4764
 2135SOL    HW1 7477   8.143   5.347   3.274  1.5039 -1.5733  1.7516
 2135SOL    HW2 7478   8.089   5.481   3.320 -2.2941 -1.7349 -1.6683
 2136SOL     OW 7479   6.569   4.238   2.490  0.3204  0.1510  0.3200
 2136SOL    HW1 7480   6.530   4.153   2.513  2.0289 -1.0404 -0.9072
 2136SOL    HW2 7481   6.542   4.253   2.399 -0.5388  1.3243  0.7325
 2137SOL     OW 7482   7.621   1.014   4.109 -0.8590 -0.1105  0.1981
 2137SOL    HW1 7483   7.664   1.097   4.089 -0.1319 -0.8485 -1.5210
 2137SOL    HW2 7484   7.681   0.970   4.169 -0.0256 -0.3690 -0.7791
 2138SOL     OW 7485   7.113   5.382   4.417 -0.0645 -0.5426 -0.3109
 2138SOL    HW1 7486   7.193   5.389   4.365 -0.0667  0.1974 -0.2261
 2138SOL    HW2 7487   7.106   5.467   4.461 -1.4194 -0.2380 -1.0788
 2139SOL     OW 7488   1.619   0.402   2.122  0.0786  0.2609 -0.0209
 2139SOL    HW1 7489   1.676   0.366   2.054 -0.2302 -1.6832  0.6962
 2139SOL    HW2 7490   1.678   0.448   2.182  0.7162 -0.5590 -0.0188
 2140SOL     OW 7491   7.203   1.909   0.706 -0.1477  0.6654  0.3962
 2140SOL    HW1 7492   7.216   2.003   0.694 -1.6041  0.6477 -1.9096
 2140SOL    HW2 7493   7.129   1.887   0.649  1.1316 -2.1470 -0.3715
 2141SOL     OW 7494   1.088   0.767   3.048 -0.0036 -0.4069  0.3392
 2141SOL    HW1 7495   1.012   0.734   3.001  0.9743 -1.8415 -0.3501
 2141SOL    HW2 7496   1.162   0.744   2.992  1.1117 -1.0777  1.9864
 2142SOL     OW 7497   7.644   7.901   1.111 -0.0761  0.8287  0.1218
 2142SOL    HW1 7498   7.676   7.858   1.032 -1.5557  2.7795 -1.6448
 2142SOL    HW2 7499   7.565   7.852   1.134  0.7019 -0.1390  0.8277
 2143SOL     OW 7500   3.444   5.086   1.470 -0.5834  0.1320 -0.1516
 2143SOL    HW1 7501   3.407   5.053   1.552 -0.4729 -1.8607 -0.8406
 2143SOL    HW2 7502   3.530   5.121   1.495 -0.7967  0.0984  0.6629
 2144SOL     OW 7503   6.117   1.223   3.750 -0.4455  0.6256 -0.0944
 2144SOL    HW1 7504   6.130   1.169   3.672 -2.2092  1.1937 -0.8232
 2144SOL    HW2 7505   6.184   1.292   3.744 -0.8570  0.9279 -1.3403
 2145SOL     OW 7506   4.174   0.118   3.680  0.1590 -0.1909  0.1218
 2145SOL    HW1 7507   4.130   0.085   3.758  2.1197  1.3891  1.9996
 2145SOL    HW2 7508   4.234   0.048   3.655  1.1061  0.1304  1.4023
 2146SOL     OW 7509   3.959   5.535   3.004 -0.1609  0.8500  0.2399
 2146SOL    HW1 7510   3.994   5.452   3.037 -1.7183 -0.0860 -0.3761
 2146SOL    HW2 7511   3.931   5.583   3.082 -0.3123  0.2974  0.5274
 2147SOL     OW 7512   3.306   3.197   6.413 -0.5496  0.3351  0.3043
 2147SOL    HW1 7513   3.377   3.154   6.460 -1.4143 -1.4683  0.0409
 2147SOL    HW2 7514   3.243   3.219   6.482  0.0122  1.5050  0.4751
 2148SOL     OW 7515   2.630   6.597   0.538  0.9537  0.2881  0.1864
 2148SOL    HW1 7516   2.717   6.593   0.500  1.1904 -0.1624  0.7609
 2148SOL    HW2 7517   2.571   6.607   0.463  1.4370 -0.2445 -0.2740
 2149SOL     OW 7518   5.369   4.935   3.258  0.4705 -0.1129  0.0336
 2149SOL    HW1 7519   5.322   4.852   3.261 -0.0773  0.1572 -0.9129
 2149SOL    HW2 7520   5.416   4.933   3.175 -2.5049  2.0664 -1.9050
 2150SOL     OW 7521   5.595   1.373   7.639 -0.1382  0.4686 -0.0853
 2150SOL    HW1 7522   5.561   1.284   7.643  0.9519  0.0593  1.1332
 2150SOL    HW2 7523   5.677   1.365   7.589 -0.2042  0.8444 -0.2562
 2151SOL     OW 7524   2.892   5.540   1.769 -0.3349  0.6410  0.3306
 2151SOL    HW1 7525   2.916   5.573   1.682 -0.0777  1.5584  0.7350
 2151SOL    HW2 7526   2.849   5.457   1.752 -0.6168  0.9843 -0.7094
 2152SOL     OW 7527   0.506   7.256   6.987  0.8331 -0.7525 -0.0376
 2152SOL    HW1 7528   0.574   7.266   6.920 -0.6090 -3.7314 -2.1619
 2152SOL    HW2 7529   0.494   7.162   6.996 -0.6899 -0.4107  2.8182
 2153SOL     OW 7530   7.757   2.408   1.227 -0.7881  0.1863  0.2686
 2153SOL    HW1 7531   7.759   2.503   1.221 -0.7903  0.2563  1.2420
 2153SOL    HW2 7532   7.825   2.378   1.166  0.4014  0.8804  1.2151
 2154SOL     OW 7533   7.679   1.131   3.248  0.3442  0.4247  0.0833
 2154SOL    HW1 7534   7.667   1.052   3.301  0.6212  0.1011 -0.3246
 2154SOL    HW2 7535   7.604   1.186   3.269 -0.5008 -0.4549 -0.5226
 2155SOL     OW 7536   7.298   1.727   7.043  0.1272 -0.7631 -0.0286
 2155SOL    HW1 7537   7.227   1.780   7.080  0.3165 -1.1400  0.8972
 2155SOL    HW2 7538   7.270   1.636   7.057  0.9174 -0.9195  0.6336
 2156SOL     OW 7539   4.600   4.883   2.460 -0.0750 -0.2066  0.0260
 2156SOL    HW1 7540   4.636   4.794   2.456 -1.5016 -0.8139  0.4141
 2156SOL    HW2 7541   4.567   4.900   2.372  0.9651  0.3072 -0.2948
 2157SOL     OW 7542   6.834   3.373   4.118 -0.2334  0.0254  0.2897
 2157SOL    HW1 7543   6.822   3.292   4.167  0.9457 -0.3162  0.0303
 2157SOL    HW2 7544   6.887   3.428   4.175 -1.0200  0.6248  0.4616
 2158SOL     OW 7545   5.069   5.397   1.831  0.9771 -0.4268 -0.6157
 2158SOL    HW1 7546   5.111   5.366   1.911  2.1613 -0.4512 -1.2252
 2158SOL    HW2 7547   4.992   5.446   1.862 -1.0773 -3.8977  0.4222
 2159SOL     OW 7548   3.034   3.093   5.914 -0.2881 -0.2071  0.2880
 2159SOL    HW1 7549   3.014   3.163   5.977  0.5566  0.6656 -0.3804
 2159SOL    HW2 7550   3.054   3.139   5.833 -1.0842 -1.3061 -0.5688
 2160SOL     OW 7551   3.128   4.933   2.571  0.1761 -0.0539  0.3260
 2160SOL    HW1 7552   3.036   4.921   2.597  0.2834  1.4779  1.5318
 2160SOL    HW2 7553   3.178   4.883   2.636  0.2489  0.1284  0.4107
 2161SOL     OW 7554   5.795   4.533   2.451 -0.5118 -0.5759 -0.0177
 2161SOL    HW1 7555   5.874   4.578   2.478  0.3290 -1.3781 -1.0616
 2161SOL    HW2 7556   5.806   4.518   2.357 -2.2081 -0.0991 -0.3357
 2162SOL     OW 7557   3.014   0.101   0.661  0.3391 -0.1682 -0.1401
 2162SOL    HW1 7558   3.033   0.054   0.581  0.6860 -2.2616  1.0945
 2162SOL    HW2 7559   2.921   0.124   0.654  0.6890  0.9424 -1.6983
 2163SOL     OW 7560   1.415   7.004   3.196 -0.3916  0.0464 -0.0653
 2163SOL    HW1 7561   1.430   6.988   3.103  0.5067 -0.4455  0.1517
 2163SOL    HW2 7562   1.320   7.013   3.203 -0.5899 -1.1301 -0.8484
 2164SOL     OW 7563   7.814   0.249   5.591 -0.1715 -0.3321 -0.1667
 2164SOL    HW1 7564   7.787   0.173   5.540  0.9050 -1.3070  0.6501
 2164SOL    HW2 7565   7.743   0.263   5.653 -0.0144 -1.2254  0.2388
 2165SOL     OW 7566   8.046   5.409   6.489  0.1481 -0.2241  0.4482
 2165SOL    HW1 7567   7.984   5.340   6.464  0.4543 -0.7420  1.0786
 2165SOL    HW2 7568   8.095   5.371   6.562  2.1566 -0.3530 -0.8932
 2166SOL     OW 7569   0.349   2.890   2.683  0.6919 -0.0756  0.6982
 2166SOL    HW1 7570   0.366   2.872   2.776  0.7853 -1.1342  0.4885
 2166SOL    HW2 7571   0.385   2.814   2.637 -0.4593 -0.1469 -0.1153
 2167SOL     OW 7572   2.313   2.512   3.294  0.0868  0.1438 -0.0418
 2167SOL    HW1 7573   2.278   2.525   3.382  0.9954  1.6735  0.1363
 2167SOL    HW2 7574   2.397   2.468   3.308  0.3472  0.6124 -0.1238
 2168SOL     OW 7575   3.107   7.116   6.268  0.5132  0.4073  0.1280
 2168SOL    HW1 7576   3.186   7.159   6.234  0.3419  0.3106 -0.4001
 2168SOL    HW2 7577   3.035   7.166   6.230  0.3105 -0.2392 -0.3491
 2169SOL     OW 7578   0.262   1.261   6.486 -0.3137  0.0987  0.5928
 2169SOL    HW1 7579   0.335   1.250   6.425 -1.1426  0.6866 -0.5470
 2169SOL    HW2 7580   0.276   1.347   6.525  0.0606 -0.1521  1.0099
 2170SOL     OW 7581   0.403   5.808   4.591  0.3926  0.1185 -0.2478
 2170SOL    HW1 7582   0.362   5.893   4.608  2.3721  0.7464  1.8644
 2170SOL    HW2 7583   0.337   5.744   4.617 -0.9254  0.9570 -1.3486
 2171SOL     OW 7584   2.607   3.585   0.816  0.3878  0.1171 -0.7624
 2171SOL    HW1 7585   2.585   3.492   0.820  0.8856 -0.0441 -1.4959
 2171SOL    HW2 7586   2.697   3.586   0.782  0.4645  0.8556 -0.5395
 2172SOL     OW 7587   4.193   3.840   7.445 -0.2449 -0.1099  0.5231
 2172SOL    HW1 7588   4.213   3.801   7.361  0.1852  0.6873  0.2440
 2172SOL    HW2 7589   4.266   3.814   7.502 -0.8675 -1.1950  0.8398
 2173SOL     OW 7590   4.854   0.586   3.675  0.4487 -0.4208  0.5624
 2173SOL    HW1 7591   4.892   0.662   3.720  0.1766  0.5280 -0.7395
 2173SOL    HW2 7592   4.789   0.552   3.736 -0.7585  1.5473  0.4667
 2174SOL     OW 7593   1.982   5.788   3.114  0.3299 -0.0420 -0.2466
 2174SOL    HW1 7594   1.985   5.853   3.044  0.1599  1.0035  0.6814
 2174SOL    HW2 7595   1.905   5.812   3.165 -1.2732 -2.5613 -1.3324
 2175SOL     OW 7596   7.071   6.414   1.132 -0.2467  0.1462 -0.0229
 2175SOL    HW1 7597   6.997   6.462   1.094  0.8360  0.4680 -1.8464
 2175SOL    HW2 7598   7.100   6.468   1.205 -0.7744  0.8651 -0.3361
 2176SOL     OW 7599   2.956   1.067   0.334  0.5189 -0.2988  0.4597
 2176SOL    HW1 7600   2.950   1.143   0.393  0.8147 -0.7399  1.0692
 2176SOL    HW2 7601   2.865   1.047   0.312  0.3930 -0.2423  0.9210
 2177SOL     OW 7602   6.188   5.087   1.631 -0.0499  0.7372 -0.0090
 2177SOL    HW1 7603   6.210   5.126   1.546  2.3618 -0.1406  0.1273
 2177SOL    HW2 7604   6.096   5.063   1.624 -0.7082  3.3014 -1.3046
 2178SOL     OW 7605   7.143   0.520   4.640  0.0752  0.0356 -0.3109
 2178SOL    HW1 7606   7.236   0.542   4.635  0.1554 -0.2866 -0.2760
 2178SOL    HW2 7607   7.103   0.595   4.682  0.3686  0.0494 -0.0502
 2179SOL     OW 7608   2.509   4.068   0.993 -0.0059  0.3288  0.0886
 2179SOL    HW1 7609   2.443   4.009   0.956 -0.5687  1.4866 -0.8173
 2179SOL    HW2 7610   2.585   4.057   0.936  0.4830 -0.7117  0.8995
 2180SOL     OW 7611   6.853   0.372   5.499 -0.8443  1.1567 -0.4988
 2180SOL    HW1 7612   6.785   0.340   5.439 -1.9749  1.4739  0.5689
 2180SOL    HW2 7613   6.811   0.372   5.585  1.3982 -1.3852  0.7279
 2181SOL     OW 7614   5.462   0.417   1.886 -0.2568  0.7729  0.1241
 2181SOL    HW1 7615   5.379   0.401   1.841  0.8754  0.3158 -1.9262
 2181SOL    HW2 7616   5.449   0.499   1.932 -1.3499  1.5308 -1.4624
 2182SOL     OW 7617   0.482   0.192   5.436 -0.4736 -0.5341  0.3365
 2182SOL    HW1 7618   0.498   0.247   5.360 -0.2527  0.3335  1.0036
 2182SOL    HW2 7619   0.514   0.105   5.410  0.6030  0.0030 -0.1660
 2183SOL     OW 7620   4.194   6.982   6.567 -0.0738 -0.3698  0.0373
 2183SOL    HW1 7621   4.224   6.957   6.480  0.9852  1.1311 -0.0648
 2183SOL    HW2 7622   4.155   7.069   6.555 -0.3524 -0.3559  0.9682
 2184SOL     OW 7623   3.838   4.510   0.120 -0.0331  0.0024  0.2858
 2184SOL    HW1 7624   3.905   4.577   0.111  1.2273 -1.4126 -1.7156
 2184SOL    HW2 7625   3.855   4.448   0.048 -2.0017 -1.7031  1.1559
 2185SOL     OW 7626   7.438   0.549   7.428 -0.0316  0.4802  0.8999
 2185SOL    HW1 7627   7.508   0.609   7.453  0.8347 -0.4053  0.6464
 2185SOL    HW2 7628   7.387   0.539   7.508  0.8829  0.1346  1.4567
 2186SOL     OW 7629   7.203   1.270   2.874  0.4976  0.6155  0.2042
 2186SOL    HW1 7630   7.126   1.315   2.840  1.1907  1.8223  0.1886
 2186SOL    HW2 7631   7.255   1.249   2.796 -0.0335 -0.6646  0.1663
 2187SOL     OW 7632   7.024   2.010   5.812  0.2679 -0.0242 -0.1833
 2187SOL    HW1 7633   6.988   1.997   5.900  0.2105  4.5594  0.7200
 2187SOL    HW2 7634   6.947   2.015   5.755  0.1376 -0.1507 -0.0198
 2188SOL     OW 7635   6.788   4.244   5.725  0.6774  0.1077 -0.5908
 2188SOL    HW1 7636   6.881   4.225   5.712  0.7909  0.2533 -0.0129
 2188SOL    HW2 7637   6.744   4.199   5.653  0.9166 -2.4895  0.7893
 2189SOL     OW 7638   7.358   4.871   7.537 -0.2294  0.3633  0.2033
 2189SOL    HW1 7639   7.441   4.862   7.585 -0.1433  0.9634  0.1727
 2189SOL    HW2 7640   7.307   4.934   7.588 -0.6591  0.0134  0.2082
 2190SOL     OW 7641   5.015   4.578   5.650  0.0464 -0.0807 -0.2116
 2190SOL    HW1 7642   5.001   4.656   5.596 -0.8607 -0.4019 -0.4650
 2190SOL    HW2 7643   5.018   4.611   5.740  1.0453  0.3986 -0.4096
 2191SOL     OW 7644   7.926   1.408   3.165 -0.9796 -0.1594 -0.1801
 2191SOL    HW1 7645   7.983   1.348   3.213 -0.7844 -0.4209 -0.7345
 2191SOL    HW2 7646   7.865   1.351   3.117 -0.1623  0.0298 -1.4968
 2192SOL     OW 7647   0.514   7.013   5.952  0.6142  0.1456  0.2284
 2192SOL    HW1 7648   0.427   7.053   5.956  0.7304  0.4581 -0.2296
 2192SOL    HW2 7649   0.499   6.924   5.921  0.5374  0.5064 -0.8039
 2193SOL     OW 7650   4.768   4.062   4.892  0.2434 -0.3510  0.3654
 2193SOL    HW1 7651   4.788   3.978   4.935 -0.7908 -0.8931 -0.1697
 2193SOL    HW2 7652   4.720   4.037   4.813 -2.0948  0.8182  1.3389
 2194SOL     OW 7653   1.182   4.968   2.057  0.1371  0.7657 -0.3095
 2194SOL    HW1 7654   1.263   4.938   2.097 -0.8488  0.2431  1.4324
 2194SOL    HW2 7655   1.152   4.893   2.005  1.1542  1.2575 -1.6622
 2195SOL     OW 7656   1.656   4.697   6.598  0.0241 -0.0585 -0.1406
 2195SOL    HW1 7657   1.568   4.735   6.610 -0.3516 -0.2206 -2.0969
 2195SOL    HW2 7658   1.651   4.611   6.640 -0.8151 -0.1422 -0.3967
 2196SOL     OW 7659   1.359   0.791   5.350  0.7670  0.8994  0.3472
 2196SOL    HW1 7660   1.409   0.780   5.431  0.5800  0.4242  0.4035
 2196SOL    HW2 7661   1.287   0.728   5.358  1.5836 -0.2295 -0.8475
 2197SOL     OW 7662   5.374   6.498   6.606  0.0404 -0.1258 -0.0216
 2197SOL    HW1 7663   5.300   6.498   6.667  0.2980 -0.8929  0.3066
 2197SOL    HW2 7664   5.379   6.407   6.575  2.1674 -0.6511  1.6123
 2198SOL     OW 7665   2.905   4.245   4.357  0.1889 -0.5580  0.2393
 2198SOL    HW1 7666   2.942   4.283   4.277  2.5635 -1.3294  0.8946
 2198SOL    HW2 7667   2.890   4.321   4.414 -1.0115 -0.0549 -0.7085
 2199SOL     OW 7668   7.551   5.665   0.230  0.3306  0.0137 -0.8489
 2199SOL    HW1 7669   7.509   5.587   0.195 -0.7268 -0.3263  1.0300
 2199SOL    HW2 7670   7.492   5.737   0.207  1.4057  0.3590 -2.7585
 2200SOL     OW 7671   0.892   2.270   8.046 -0.4177  0.1827  0.0727
 2200SOL    HW1 7672   0.977   2.293   8.082  0.3320 -0.6535 -1.0801
 2200SOL    HW2 7673   0.839   2.246   8.122  0.1728  1.2703  0.8561
 2201SOL     OW 7674   3.655   0.507   0.602  0.0335 -0.4292 -0.4815
 2201SOL    HW1 7675   3.655   0.566   0.678  0.1111 -0.8263 -0.1677
 2201SOL    HW2 7676   3.590   0.439   0.624  1.3270 -1.5520  0.0334
 2202SOL     OW 7677   4.376   1.284   4.060 -0.2143 -0.5039  0.1880
 2202SOL    HW1 7678   4.292   1.323   4.085 -1.2144 -2.6287  0.3291
 2202SOL    HW2 7679   4.406   1.238   4.138  0.6728 -0.4720 -0.1223
 2203SOL     OW 7680   7.036   2.418   1.432 -0.4239 -0.3049 -0.1409
 2203SOL    HW1 7681   6.987   2.359   1.375  0.2556  0.0733 -1.1445
 2203SOL    HW2 7682   7.127   2.394   1.418 -0.2654 -0.6047  1.2622
 2204SOL     OW 7683   7.637   5.071   6.321 -0.2749 -0.2495  0.2667
 2204SOL    HW1 7684   7.563   5.011   6.310  1.1352 -2.2296  1.1266
 2204SOL    HW2 7685   7.644   5.116   6.236 -1.8270 -0.7329 -0.1451
 2205SOL     OW 7686   0.831   6.251   7.624 -0.1447 -0.5519 -0.1277
 2205SOL    HW1 7687   0.864   6.216   7.707 -0.8698 -0.7521  0.0816
 2205SOL    HW2 7688   0.784   6.178   7.584  1.6237 -0.9969 -1.5447
 2206SOL     OW 7689   3.757   8.005   1.611  0.3476 -0.0460  0.1708
 2206SOL    HW1 7690   3.779   7.916   1.584 -0.3510 -0.4311  0.8412
 2206SOL    HW2 7691   3.669   8.020   1.577  0.9619  0.9046 -1.1029
 2207SOL     OW 7692   6.047   0.258   4.682 -0.7653 -0.7691 -0.2657
 2207SOL    HW1 7693   6.033   0.164   4.687 -0.2068 -0.9621 -1.8215
 2207SOL    HW2 7694   6.056   0.276   4.588 -3.0746  1.1517 -0.2301
 2208SOL     OW 7695   3.746   5.856   2.481  0.2074 -0.3720 -0.8376
 2208SOL    HW1 7696   3.766   5.923   2.546 -0.7128 -1.1489  0.2850
 2208SOL    HW2 7697   3.707   5.905   2.408  0.4894  0.4255 -0.4612
 2209SOL     OW 7698   1.757   1.095   6.220  0.0546  0.1910 -0.3339
 2209SOL    HW1 7699   1.840   1.063   6.252  0.5300  0.9850 -0.7344
 2209SOL    HW2 7700   1.707   1.016   6.198  0.7067 -0.2872 -0.1150
 2210SOL     OW 7701   4.464   6.228   1.251  0.8342  0.1935  0.3553
 2210SOL    HW1 7702   4.513   6.155   1.213  1.3022 -0.4123  2.0150
 2210SOL    HW2 7703   4.400   6.186   1.309  0.0470  1.0716  0.1558
 2211SOL     OW 7704   2.384   7.757   5.085 -0.3038  0.5319  0.0906
 2211SOL    HW1 7705   2.373   7.694   5.157 -1.3203  0.4571 -0.1223
 2211SOL    HW2 7706   2.296   7.773   5.053  0.1372  0.5472 -1.1679
 2212SOL     OW 7707   2.345   3.535   2.980 -0.2852  0.3423 -0.0073
 2212SOL    HW1 7708   2.299   3.608   2.938  0.3469  0.2820 -0.8274
 2212SOL    HW2 7709   2.409   3.577   3.038 -0.3777  0.4354  0.0277
 2213SOL     OW 7710   2.449   7.969   2.359 -0.1968  0.2079  0.2952
 2213SOL    HW1 7711   2.501   7.901   2.403 -0.5704 -0.4801 -0.3023
 2213SOL    HW2 7712   2.408   7.924   2.285  1.9425  1.7277 -1.9719
 2214SOL     OW 7713   1.039   4.666   5.494  0.1979  0.6729 -0.3003
 2214SOL    HW1 7714   1.085   4.603   5.550  1.2389  2.0586  0.4732
 2214SOL    HW2 7715   1.066   4.644   5.405  1.8473  1.0031  0.0886
 2215SOL     OW 7716   7.972   6.196   4.611  0.3470  0.2498 -0.4876
 2215SOL    HW1 7717   7.962   6.150   4.694 -1.0238 -0.5488 -1.0591
 2215SOL    HW2 7718   8.035   6.144   4.561  0.5751  0.2962 -0.2499
 2216SOL     OW 7719   0.583   5.266   7.799  0.3370 -0.3020 -0.6168
 2216SOL    HW1 7720   0.600   5.206   7.726 -0.5203 -0.7255 -0.4872
 2216SOL    HW2 7721   0.664   5.315   7.809  0.3258  0.0843 -2.1532
 2217SOL     OW 7722   6.884   5.651   4.758  0.0915 -0.3579  0.1732
 2217SOL    HW1 7723   6.944   5.667   4.831  0.0205 -0.3435  0.2281
 2217SOL    HW2 7724   6.818   5.591   4.793 -0.7806  0.7836  0.5602
 2218SOL     OW 7725   5.616   7.398   0.595 -0.3315  0.4529  0.0755
 2218SOL    HW1 7726   5.665   7.318   0.574 -1.8112 -0.5140  0.1422
 2218SOL    HW2 7727   5.680   7.468   0.588  0.8586 -0.6667 -0.6466
 2219SOL     OW 7728   4.241   4.832   7.364 -0.1624 -0.0858  0.5519
 2219SOL    HW1 7729   4.165   4.845   7.420 -0.6659 -0.2254 -0.0964
 2219SOL    HW2 7730   4.303   4.784   7.420 -0.9298 -0.8448  0.7720
 2220SOL     OW 7731   1.931   8.081   0.958  0.0786  0.0753 -0.5642
 2220SOL    HW1 7732   1.910   8.112   1.046  1.2047  2.4112 -1.0339
 2220SOL    HW2 7733   1.948   7.988   0.968  2.4717  0.6953  2.1478
 2221SOL     OW 7734   1.984   4.589   2.436 -0.4935 -0.0891  0.1419
 2221SOL    HW1 7735   1.980   4.634   2.352  0.2746 -0.7748 -0.2761
 2221SOL    HW2 7736   2.041   4.513   2.421 -2.7349 -1.9688  0.4774
 2222SOL     OW 7737   3.619   3.499   7.390  0.5356 -0.2692  0.6804
 2222SOL    HW1 7738   3.709   3.531   7.386  0.0160  1.1455 -0.5178
 2222SOL    HW2 7739   3.566   3.578   7.403 -0.7431 -0.6458 -1.6788
 2223SOL     OW 7740   7.247   0.858   7.239  0.1602 -0.1660 -0.4323
 2223SOL    HW1 7741   7.266   0.767   7.216  1.2431  0.0494 -0.4324
 2223SOL    HW2 7742   7.252   0.905   7.156 -1.5650 -0.2729 -0.6277
 2224SOL     OW 7743   6.835   8.103   0.689  0.0178 -0.0597 -0.7187
 2224SOL    HW1 7744   6.886   8.182   0.673  0.2002 -0.1956 -0.8137
 2224SOL    HW2 7745   6.892   8.048   0.743  0.2972 -0.5582 -1.5033
 2225SOL     OW 7746   3.196   5.871   4.119  0.2822 -0.0462  0.6674
 2225SOL    HW1 7747   3.233   5.783   4.118  1.2470  0.3442  0.4485
 2225SOL    HW2 7748   3.115   5.864   4.069 -0.1921 -1.0271  1.5407
 2226SOL     OW 7749   3.737   7.844   4.674  0.6850  0.1503  0.2164
 2226SOL    HW1 7750   3.720   7.751   4.657  1.5883  0.0840 -0.4418
 2226SOL    HW2 7751   3.672   7.890   4.622  0.9912 -0.1138 -0.4145
 2227SOL     OW 7752   6.307   3.090   3.686 -0.4924  0.0522 -0.1272
 2227SOL    HW1 7753   6.327   3.131   3.602  1.3937  1.3860  0.8876
 2227SOL    HW2 7754   6.255   3.155   3.732 -1.1248 -0.4870 -0.0600
 2228SOL     OW 7755   0.984   3.249   7.060  0.0646 -0.0294 -0.2073
 2228SOL    HW1 7756   0.920   3.183   7.033  0.2905 -0.2251 -0.2626
 2228SOL    HW2 7757   1.061   3.232   7.006 -0.1162  0.7223 -0.7281
 2229SOL     OW 7758   1.328   3.278   4.734 -0.2422  0.1329 -0.3871
 2229SOL    HW1 7759   1.356   3.201   4.684 -1.4853 -1.8231  1.7085
 2229SOL    HW2 7760   1.373   3.269   4.818  0.4130  2.3389 -0.4540
 2230SOL     OW 7761   5.215   0.244   2.031 -0.4457  0.4108 -0.0347
 2230SOL    HW1 7762   5.182   0.312   2.091  0.2882  0.9966 -0.2754
 2230SOL    HW2 7763   5.309   0.239   2.052 -0.5659 -0.8165  0.2482
 2231SOL     OW 7764   1.806   0.740   4.219  0.2332  0.0876  0.1218
 2231SOL    HW1 7765   1.780   0.658   4.176 -2.4400  0.8932  0.0232
 2231SOL    HW2 7766   1.851   0.789   4.150 -0.2962 -0.3187 -0.5269
 2232SOL     OW 7767   0.255   4.296   4.162  0.2322  0.7600  0.7903
 2232SOL    HW1 7768   0.189   4.306   4.094  1.8814 -0.0491 -1.0220
 2232SOL    HW2 7769   0.302   4.216   4.139  3.6157  2.6674  0.3279
 2233SOL     OW 7770   7.600   5.954   3.545  0.2205 -0.1878 -0.0691
 2233SOL    HW1 7771   7.669   5.887   3.542  0.6951  0.3117 -1.2813
 2233SOL    HW2 7772   7.560   5.944   3.631  1.4575 -0.8470  0.4593
 2234SOL     OW 7773   7.810   6.434   7.127  0.7824 -0.1041 -0.4326
 2234SOL    HW1 7774   7.795   6.463   7.217  0.9281 -1.4163  0.0305
 2234SOL    HW2 7775   7.904   6.417   7.122  1.1446  1.9025 -1.4569
 2235SOL     OW 7776   3.092   2.499   5.551  0.1339  0.1645  0.3237
 2235SOL    HW1 7777   3.082   2.431   5.617 -0.6694  0.8269  0.9140
 2235SOL    HW2 7778   3.158   2.558   5.586  0.7017 -0.2073 -0.1058
 2236SOL     OW 7779   5.588   7.138   4.223 -0.3646 -0.5355 -0.6916
 2236SOL    HW1 7780   5.514   7.197   4.235  0.9263  0.9144  0.5909
 2236SOL    HW2 7781   5.665   7.196   4.218  0.9395 -2.0675  0.4051
 2237SOL     OW 7782   2.909   3.462   8.075  0.3327  0.0385 -0.0802
 2237SOL    HW1 7783   2.933   3.551   8.101 -0.7068  0.2228  0.3188
 2237SOL    HW2 7784   2.856   3.430   8.147 -1.0849 -0.1147 -1.1321
 2238SOL     OW 7785   5.333   4.843   6.508  0.0919 -0.2442 -0.0344
 2238SOL    HW1 7786   5.238   4.849   6.499 -0.0434  1.6891  1.8885
 2238SOL    HW2 7787   5.368   4.892   6.434 -0.4770  0.4449  0.1379
 2239SOL     OW 7788   3.750   3.735   6.704  0.2661 -0.1403  0.0064
 2239SOL    HW1 7789   3.749   3.811   6.645  1.2466  1.2310  1.6384
 2239SOL    HW2 7790   3.711   3.665   6.653  1.1165  0.9286 -2.2972
 2240SOL     OW 7791   6.149   5.213   5.559  0.2079 -0.6089 -0.5839
 2240SOL    HW1 7792   6.056   5.199   5.573 -0.3820  0.5006 -2.9607
 2240SOL    HW2 7793   6.172   5.156   5.486  1.1919 -0.2262 -0.5932
 2241SOL     OW 7794   6.771   2.163   7.832  0.1580  0.1771 -0.3322
 2241SOL    HW1 7795   6.846   2.136   7.778  0.5271 -2.4310  1.2828
 2241SOL    HW2 7796   6.787   2.121   7.917 -1.9346  1.5824  0.8318
 2242SOL     OW 7797   4.549   3.508   1.369  0.6147 -0.4553  0.0433
 2242SOL    HW1 7798   4.559   3.439   1.303 -2.3448 -1.1126  0.1485
 2242SOL    HW2 7799   4.470   3.485   1.416  1.0471  1.5868  1.9379
 2243SOL     OW 7800   3.107   5.978   0.286 -0.1959 -0.7317  0.2782
 2243SOL    HW1 7801   3.174   6.040   0.257 -1.1108  1.5001  2.5083
 2243SOL    HW2 7802   3.052   5.963   0.209 -0.2678  1.7643 -0.2558
 2244SOL     OW 7803   0.074   5.616   7.608 -0.0450  0.5980  0.0100
 2244SOL    HW1 7804   0.077   5.547   7.542 -1.8372 -0.7931  1.2629
 2244SOL    HW2 7805  -0.019   5.637   7.616  0.1318  0.8592  1.8859
 2245SOL     OW 7806   1.865   2.561   3.164 -0.1330 -0.2289 -0.0814
 2245SOL    HW1 7807   1.866   2.467   3.185  2.4730 -0.0985  0.6687
 2245SOL    HW2 7808   1.879   2.565   3.070 -0.1574 -0.5766 -0.1014
 2246SOL     OW 7809   3.476   4.323   3.779 -0.1300  0.2956  0.0616
 2246SOL    HW1 7810   3.408   4.284   3.724 -0.7745  1.0470  0.3014
 2246SOL    HW2 7811   3.506   4.399   3.729 -0.8418  1.0843  0.7870
 2247SOL     OW 7812   3.600   6.732   4.220  0.3174 -0.4020  0.1707
 2247SOL    HW1 7813   3.523   6.759   4.269 -0.5513  0.4590 -1.5689
 2247SOL    HW2 7814   3.645   6.813   4.199  1.3986 -0.8567  0.6758
 2248SOL     OW 7815   5.635   1.523   5.534 -0.2006 -0.2995  0.0379
 2248SOL    HW1 7816   5.605   1.519   5.443  0.9472 -1.7229 -0.3040
 2248SOL    HW2 7817   5.724   1.556   5.529 -0.6053  0.9592  0.7870
 2249SOL     OW 7818   1.379   4.354   6.010 -0.3143 -0.1655  0.1636
 2249SOL    HW1 7819   1.393   4.429   6.068 -0.8422  0.3668 -0.3902
 2249SOL    HW2 7820   1.467   4.320   5.994 -0.2099 -0.7188  1.7867
 2250SOL     OW 7821   4.952   2.390   5.691  0.1791  0.8010  0.1519
 2250SOL    HW1 7822   4.948   2.410   5.784 -2.6524  2.4809 -0.2286
 2250SOL    HW2 7823   4.891   2.317   5.679 -0.2481  1.2503 -0.5016
 2251SOL     OW 7824   7.145   4.954   3.338  0.5328  0.1391 -0.1711
 2251SOL    HW1 7825   7.096   4.949   3.420  1.5257  0.1539  0.4442
 2251SOL    HW2 7826   7.129   5.042   3.305 -1.3267 -0.4449 -0.9467
 2252SOL     OW 7827   4.916   7.814   7.033 -0.3752 -0.2996 -0.1835
 2252SOL    HW1 7828   4.924   7.791   7.126 -0.9373 -0.0941 -0.0774
 2252SOL    HW2 7829   4.988   7.875   7.017  0.0708 -0.7846 -0.0301
 2253SOL     OW 7830   4.619   6.386   1.087  0.2515  0.3396  0.0788
 2253SOL    HW1 7831   4.544   6.425   1.044  0.5678  0.7368 -0.1193
 2253SOL    HW2 7832   4.582   6.317   1.143 -0.3277  1.0312  0.5635
 2254SOL     OW 7833   5.420   4.095   6.909 -0.2880  0.4897  0.2102
 2254SOL    HW1 7834   5.497   4.106   6.964  0.4622  2.6734 -1.1622
 2254SOL    HW2 7835   5.355   4.155   6.946 -0.2897  0.8677 -0.3996
 2255SOL     OW 7836   1.209   4.156   7.595  0.3103 -0.2139  0.1935
 2255SOL    HW1 7837   1.167   4.122   7.516 -0.8128 -1.7974  1.4177
 2255SOL    HW2 7838   1.172   4.243   7.606 -1.2730 -0.8530  0.1973
 2256SOL     OW 7839   5.232   2.861   3.236  0.2226 -0.3207 -0.5331
 2256SOL    HW1 7840   5.190   2.871   3.321 -0.5695  1.0796 -1.0721
 2256SOL    HW2 7841   5.167   2.816   3.182  0.3517 -0.3315 -0.6809
 2257SOL     OW 7842   7.917   3.199   6.992  0.0485  0.1067  0.2838
 2257SOL    HW1 7843   7.930   3.109   7.021 -1.4358 -0.6328 -1.1857
 2257SOL    HW2 7844   7.972   3.209   6.915 -0.4683  0.1616 -0.0832
 2258SOL     OW 7845   2.547   3.874   2.767  0.4088 -0.4768 -0.2559
 2258SOL    HW1 7846   2.582   3.785   2.769 -0.2486 -0.7371  0.7139
 2258SOL    HW2 7847   2.496   3.881   2.848  1.2469  1.1182  0.1688
 2259SOL     OW 7848   0.284   0.190   3.022 -0.0202 -0.1782  0.3821
 2259SOL    HW1 7849   0.305   0.097   3.018  0.5873 -0.0129 -1.0023
 2259SOL    HW2 7850   0.369   0.234   3.024 -0.2881  0.3537  0.2933
 2260SOL     OW 7851   0.886   5.918   3.154  0.4050  0.1384 -0.5838
 2260SOL    HW1 7852   0.942   5.863   3.210  1.0149  1.1657 -0.1684
 2260SOL    HW2 7853   0.800   5.876   3.158  0.6691 -0.3405  0.3726
 2261SOL     OW 7854   6.305   2.558   4.738  0.5038  0.0527 -0.1436
 2261SOL    HW1 7855   6.282   2.485   4.681  0.8644  0.8362 -1.3349
 2261SOL    HW2 7856   6.298   2.635   4.682 -0.5574  1.0395  1.2554
 2262SOL     OW 7857   5.283   6.055   1.976 -0.0033  0.0573  0.4599
 2262SOL    HW1 7858   5.242   6.074   1.891  0.2301  0.9704  0.5431
 2262SOL    HW2 7859   5.327   5.971   1.963  0.1955  0.2807 -0.3902
 2263SOL     OW 7860   2.602   4.157   1.927 -0.1043  0.1538 -0.0467
 2263SOL    HW1 7861   2.662   4.148   1.853 -0.5938  0.1481 -0.4451
 2263SOL    HW2 7862   2.515   4.149   1.889 -0.3537 -0.6739  0.6396
 2264SOL     OW 7863   6.971   6.317   1.712  0.0891  0.3720  0.3146
 2264SOL    HW1 7864   7.016   6.265   1.778 -2.4797 -1.3050  0.8902
 2264SOL    HW2 7865   6.956   6.256   1.639 -0.2927  1.1752 -0.2962
 2265SOL     OW 7866   6.297   2.059   0.867 -0.4839  0.1574  0.6584
 2265SOL    HW1 7867   6.232   2.101   0.811  0.8987 -1.8150 -2.7045
 2265SOL    HW2 7868   6.246   2.006   0.928 -2.1625 -1.3928 -1.9205
 2266SOL     OW 7869   7.843   4.977   6.079  0.0374  0.5894 -0.1489
 2266SOL    HW1 7870   7.805   4.890   6.070  0.5471  0.5079 -1.9812
 2266SOL    HW2 7871   7.769   5.037   6.069 -0.0075  0.3829 -1.1709
 2267SOL     OW 7872   4.073   1.007   6.166  0.6816 -0.1015  0.6676
 2267SOL    HW1 7873   4.030   0.960   6.095  0.0292 -0.3709  1.2287
 2267SOL    HW2 7874   4.027   1.091   6.171 -0.4792 -0.7664  1.9025
 2268SOL     OW 7875   7.507   3.671   6.854 -0.1441 -0.0806  0.1199
 2268SOL    HW1 7876   7.591   3.705   6.820  1.4352 -1.4288  2.4127
 2268SOL    HW2 7877   7.490   3.593   6.801 -1.4260  1.5921 -2.1150
 2269SOL     OW 7878   3.769   7.916   7.857  0.0909  0.0969 -0.0647
 2269SOL    HW1 7879   3.754   8.010   7.851  0.1612  0.1131  0.0048
 2269SOL    HW2 7880   3.822   7.895   7.780 -0.7438 -0.0548 -0.6084
 2270SOL     OW 7881   1.258   1.461   2.703 -0.0348  0.2264  0.6558
 2270SOL    HW1 7882   1.301   1.538   2.665  1.3154 -0.8010  0.0339
 2270SOL    HW2 7883   1.315   1.388   2.680 -1.1758 -0.9437  1.4293
 2271SOL     OW 7884   0.425   3.361   2.527  0.1693  0.5448 -0.2191
 2271SOL    HW1 7885   0.397   3.295   2.590 -0.4141  0.2119 -0.8034
 2271SOL    HW2 7886   0.477   3.313   2.463 -1.9689  0.1694 -1.8150
 2272SOL     OW 7887   4.027   5.977   5.989 -0.2968 -0.4570 -0.5116
 2272SOL    HW1 7888   4.092   5.988   6.058 -0.5816  1.1785 -0.4510
 2272SOL    HW2 7889   4.015   5.883   5.981  0.2439 -0.7002  1.1955
 2273SOL     OW 7890   1.378   7.458   3.623  0.0505  0.0455 -0.5206
 2273SOL    HW1 7891   1.288   7.490   3.621 -0.1284 -0.2401  1.0608
 2273SOL    HW2 7892   1.408   7.463   3.533 -1.6400 -0.1086 -1.1239
 2274SOL     OW 7893   3.176   3.453   3.425  0.2475  0.1338  0.0970
 2274SOL    HW1 7894   3.270   3.470   3.420  0.5178 -1.2545 -0.1157
 2274SOL    HW2 7895   3.134   3.530   3.388  1.3535  0.2639 -0.9077
 2275SOL     OW 7896   3.729   3.666   0.640 -0.2026 -0.7638  0.5249
 2275SOL    HW1 7897   3.791   3.625   0.700  1.8598  0.8411 -0.3736
 2275SOL    HW2 7898   3.700   3.745   0.685 -0.1586 -0.5510  0.1841
 2276SOL     OW 7899   0.494   7.509   5.910 -0.5646  0.4412  0.5717
 2276SOL    HW1 7900   0.517   7.601   5.902  0.6553  0.1043  0.0041
 2276SOL    HW2 7901   0.465   7.483   5.823  2.0117 -0.4316 -0.1217
 2277SOL     OW 7902   3.737   2.077   5.887  0.6205  0.0068 -0.4383
 2277SOL    HW1 7903   3.675   2.007   5.868  1.6460 -1.1442  0.2421
 2277SOL    HW2 7904   3.728   2.092   5.981  1.4135 -0.2354 -0.3150
 2278SOL     OW 7905   4.762   6.201   1.383 -0.8604 -0.6462 -0.2732
 2278SOL    HW1 7906   4.767   6.127   1.444 -2.4703 -0.9075 -0.4348
 2278SOL    HW2 7907   4.684   6.249   1.408  0.1109  0.9995 -0.2316
 2279SOL     OW 7908   6.655   3.601   4.980 -0.2206  0.4712 -0.1376
 2279SOL    HW1 7909   6.662   3.580   4.887 -0.6013 -0.9821  0.1432
 2279SOL    HW2 7910   6.569   3.642   4.989 -0.4707 -0.0030 -0.3281
 2280SOL     OW 7911   2.562   5.315   0.278 -0.0799  0.0116  0.1537
 2280SOL    HW1 7912   2.480   5.332   0.231 -0.6362  0.4350  1.2545
 2280SOL    HW2 7913   2.587   5.400   0.316  1.0529 -0.0336 -0.4283
 2281SOL     OW 7914   0.663   3.374   1.842 -0.4707 -0.7503 -0.2831
 2281SOL    HW1 7915   0.689   3.354   1.752  2.9880 -0.6020  0.5296
 2281SOL    HW2 7916   0.684   3.294   1.891 -0.4209 -0.1667  0.6764
 2282SOL     OW 7917   0.714   5.598   6.105  0.3631 -0.3062  0.1928
 2282SOL    HW1 7918   0.763   5.569   6.183  1.0541  1.2399  0.3863
 2282SOL    HW2 7919   0.656   5.525   6.085  1.6687 -1.6060  0.8878
 2283SOL     OW 7920   1.626   5.771   1.819 -0.1118 -0.0236  0.1577
 2283SOL    HW1 7921   1.711   5.815   1.813 -0.1771 -0.0628 -1.9879
 2283SOL    HW2 7922   1.583   5.790   1.735  0.4456 -5.2427 -1.7351
 2284SOL     OW 7923   5.399   0.016   3.632  0.2347 -0.0045 -0.6863
 2284SOL    HW1 7924   5.452   0.029   3.711 -0.1183  0.4992 -0.5241
 2284SOL    HW2 7925   5.435   0.079   3.569 -0.4720  0.6990 -0.4138
 2285SOL     OW 7926   2.581   2.985   7.056  0.2257 -0.1301  0.1011
 2285SOL    HW1 7927   2.674   2.997   7.035  0.1328 -1.0886 -0.9788
 2285SOL    HW2 7928   2.571   3.021   7.144  1.6739 -0.2449  0.3334
 2286SOL     OW 7929   4.569   3.429   2.622  0.2668 -0.8019 -0.0490
 2286SOL    HW1 7930   4.481   3.461   2.640 -0.1955 -2.4646  0.7656
 2286SOL    HW2 7931   4.623   3.469   2.691  0.4223  1.1365 -1.2099
 2287SOL     OW 7932   3.664   1.478   4.681  0.2849  0.2084 -0.8645
 2287SOL    HW1 7933   3.612   1.452   4.757  0.6672  0.1947 -0.6049
 2287SOL    HW2 7934   3.717   1.402   4.661  0.8174  0.5104 -0.6061
 2288SOL     OW 7935   0.711   5.990   8.033  0.2902  0.1198  0.4665
 2288SOL    HW1 7936   0.678   6.079   8.016  2.8747  1.0283 -0.2251
 2288SOL    HW2 7937   0.644   5.951   8.090 -1.3534  2.1849  0.0983
 2289SOL     OW 7938   0.372   5.266   5.829 -0.3373  0.7365  0.4684
 2289SOL    HW1 7939   0.401   5.206   5.760  0.7216 -0.1312  1.6322
 2289SOL    HW2 7940   0.288   5.231   5.859  0.0004  0.1591  0.7463
 2290SOL     OW 7941   7.624   3.923   1.729 -0.3838  0.0427 -0.1045
 2290SOL    HW1 7942   7.536   3.961   1.730 -0.0013  0.9391  0.0807
 2290SOL    HW2 7943   7.663   3.951   1.811 -0.5084 -1.7994  0.6264
 2291SOL     OW 7944   0.648   4.564   3.866  0.2983 -0.3136 -0.8160
 2291SOL    HW1 7945   0.567   4.522   3.895 -1.0069  2.7326  0.3174
 2291SOL    HW2 7946   0.718   4.509   3.903 -1.2872 -1.1402  1.1101
 2292SOL     OW 7947   3.934   0.496   7.186  0.3661 -0.1484  0.7241
 2292SOL    HW1 7948   3.980   0.485   7.269 -2.0485 -0.8585  2.0818
 2292SOL    HW2 7949   3.843   0.512   7.211  0.0336  2.6852 -1.7371
 2293SOL     OW 7950   4.434   2.168   2.616  0.3672  0.0061 -0.0558
 2293SOL    HW1 7951   4.504   2.204   2.562  1.3123  0.3026  1.3110
 2293SOL    HW2 7952   4.418   2.081   2.580  0.9745  0.1837 -0.7887
 2294SOL     OW 7953   6.618   2.325   7.489 -0.3394 -0.6759 -0.1512
 2294SOL    HW1 7954   6.593   2.370   7.570 -0.4533 -1.2483  0.1410
 2294SOL    HW2 7955   6.713   2.314   7.497 -0.2791 -0.2969 -0.3255
 2295SOL     OW 7956   8.134   4.942   0.404 -0.4615  0.2188 -0.2617
 2295SOL    HW1 7957   8.170   4.952   0.316  0.0991  0.4823 -0.0077
 2295SOL    HW2 7958   8.059   5.002   0.406 -1.3959 -0.8911 -1.0381
 2296SOL     OW 7959   0.804   6.190   2.911  0.1384  0.6676 -0.9988
 2296SOL    HW1 7960   0.827   6.274   2.871  0.9647  1.4634  1.0168
 2296SOL    HW2 7961   0.888   6.145   2.921 -0.0279  0.5362 -0.1190
 2297SOL     OW 7962   1.901   0.155   3.755 -0.1178  0.0685 -0.0963
 2297SOL    HW1 7963   1.943   0.226   3.804  1.3190 -0.8869  0.1069
 2297SOL    HW2 7964   1.972   0.115   3.705 -1.1322 -0.4818 -1.1403
 2298SOL     OW 7965   0.347   2.569   4.607 -0.1031 -0.0840  0.3385
 2298SOL    HW1 7966   0.268   2.622   4.603  0.0825  0.1865  0.2733
 2298SOL    HW2 7967   0.370   2.566   4.700  1.1932  1.8846  0.1362
 2299SOL     OW 7968   0.317   4.134   4.650 -0.2019  0.4016 -0.4752
 2299SOL    HW1 7969   0.286   4.220   4.619 -0.7504 -0.1478 -1.5145
 2299SOL    HW2 7970   0.287   4.128   4.740 -0.6079  1.0847 -0.5602
 2300SOL     OW 7971   7.303   6.882   5.639 -0.8110 -0.0897  1.0266
 2300SOL    HW1 7972   7.226   6.925   5.600  0.1103 -0.0204 -0.8306
 2300SOL    HW2 7973   7.303   6.794   5.600  0.0800 -0.0641  0.9545
 2301SOL     OW 7974   1.535   4.946   4.269 -0.4589 -0.5913 -0.2378
 2301SOL    HW1 7975   1.561   4.905   4.187 -1.1067  0.6749 -1.0980
 2301SOL    HW2 7976   1.441   4.926   4.277 -0.3870 -0.7534  0.2211
 2302SOL     OW 7977   0.438   0.006   4.559  0.0427  0.1611 -0.1324
 2302SOL    HW1 7978   0.410   0.076   4.618  0.7398 -0.7422  1.3496
 2302SOL    HW2 7979   0.510  -0.037   4.605  1.4380  0.1299 -2.2116
 2303SOL     OW 7980   1.533   3.663   0.520  0.7509 -0.1948 -0.1327
 2303SOL    HW1 7981   1.588   3.718   0.575  1.5562 -1.1881  0.0878
 2303SOL    HW2 7982   1.522   3.713   0.439  0.5655  0.7468  0.4605
 2304SOL     OW 7983   0.579   1.000   2.281  0.2395  0.0297  0.0854
 2304SOL    HW1 7984   0.534   1.083   2.264  0.3115 -0.2713 -1.8305
 2304SOL    HW2 7985   0.660   1.025   2.325 -0.7230  0.7686  1.5222
 2305SOL     OW 7986   3.674   6.896   5.792 -0.0585 -0.2904  0.2023
 2305SOL    HW1 7987   3.714   6.934   5.870  0.0539  1.2615 -0.5796
 2305SOL    HW2 7988   3.604   6.957   5.769  0.7583  0.0074 -1.6755
 2306SOL     OW 7989   3.038   6.252   6.446  0.0916  0.2871  0.1709
 2306SOL    HW1 7990   3.128   6.221   6.458 -0.2450 -0.8877 -0.1776
 2306SOL    HW2 7991   3.008   6.272   6.534 -0.4650 -2.7829  0.8027
 2307SOL     OW 7992   5.449   2.976   7.849  0.1942  0.0141  0.0011
 2307SOL    HW1 7993   5.495   2.951   7.930  0.7287  0.3300 -0.1955
 2307SOL    HW2 7994   5.453   3.072   7.849  1.4683 -0.0075 -1.1032
 2308SOL     OW 7995   1.783   6.515   6.889  0.3293  0.8835  0.1309
 2308SOL    HW1 7996   1.857   6.453   6.886 -0.3621  0.0506 -2.0539
 2308SOL    HW2 7997   1.716   6.469   6.939 -0.6975 -0.8876 -2.6522
 2309SOL     OW 7998   3.982   8.148   7.467  0.2178 -0.5936 -0.6852
 2309SOL    HW1 7999   4.076   8.137   7.481  0.2651 -0.8175 -1.1667
 2309SOL    HW2 8000   3.975   8.221   7.405  0.0837 -0.6874 -0.7823
 2310SOL     OW 8001   1.873   1.126   2.157  0.3164 -0.1306  0.5960
 2310SOL    HW1 8002   1.900   1.053   2.214  1.7694 -0.2869 -0.2450
 2310SOL    HW2 8003   1.839   1.085   2.079  0.2457  0.0851  0.5119
 2311SOL     OW 8004   1.550   2.986   6.728  0.1453  0.0480 -0.5115
 2311SOL    HW1 8005   1.631   3.026   6.698  0.4936  0.5201  0.9551
 2311SOL    HW2 8006   1.528   2.922   6.661  2.2791 -0.8359 -0.4347
 2312SOL     OW 8007   6.963   1.660   1.656 -0.0038  0.4547 -0.2506
 2312SOL    HW1 8008   6.904   1.658   1.581 -1.4482  0.1726  0.8526
 2312SOL    HW2 8009   6.920   1.719   1.719  1.2819  0.8622  0.2867
 2313SOL     OW 8010   3.387   6.392   3.206 -0.1838 -0.0369  0.2888
 2313SOL    HW1 8011   3.347   6.438   3.132  0.2386  1.9410  1.2193
 2313SOL    HW2 8012   3.319   6.333   3.238 -1.0918  0.6313 -0.3694
 2314SOL     OW 8013   0.959   2.319   4.878 -0.1867  0.3307  0.3853
 2314SOL    HW1 8014   0.978   2.413   4.871 -1.2830  0.5720  0.5204
 2314SOL    HW2 8015   0.901   2.300   4.804 -1.7846  0.2632  1.5892
 2315SOL     OW 8016   0.618   6.821   6.772 -0.0933 -1.1118 -0.0656
 2315SOL    HW1 8017   0.708   6.854   6.770 -0.6136  0.3740 -1.1928
 2315SOL    HW2 8018   0.608   6.772   6.690 -0.5672 -0.4759 -0.4017
 2316SOL     OW 8019   3.285   0.349   3.759 -0.0346  0.6179 -0.2825
 2316SOL    HW1 8020   3.236   0.328   3.839  0.6729  0.9187  0.2494
 2316SOL    HW2 8021   3.346   0.276   3.748  1.6578  1.7734  0.9421
 2317SOL     OW 8022   7.310   4.129   5.898 -0.0327 -0.0511 -0.0041
 2317SOL    HW1 8023   7.371   4.193   5.935 -1.8320  1.6039  0.2522
 2317SOL    HW2 8024   7.295   4.159   5.808  0.6755 -1.3262 -0.5661
 2318SOL     OW 8025   2.440   3.853   1.650 -0.4761  0.3457 -0.1768
 2318SOL    HW1 8026   2.520   3.805   1.627  1.1988  2.3269  1.2200
 2318SOL    HW2 8027   2.424   3.909   1.575 -0.8340 -0.3530 -0.6378
 2319SOL     OW 8028   0.754   7.136   3.572  0.1225  0.4132  0.1621
 2319SOL    HW1 8029   0.777   7.220   3.533  0.1019  0.2030 -0.3089
 2319SOL    HW2 8030   0.714   7.158   3.656 -0.0123  0.8787 -0.0245
 2320SOL     OW 8031   2.503   7.021   5.384 -0.5339  0.6208  0.1167
 2320SOL    HW1 8032   2.568   6.972   5.433 -0.0190  1.5911  0.4347
 2320SOL    HW2 8033   2.532   7.015   5.293 -0.3800  0.4835  0.1758
 2321SOL     OW 8034   0.724   7.331   1.539  0.0136  0.4751  0.0177
 2321SOL    HW1 8035   0.667   7.329   1.616 -1.1117 -1.8021 -0.7896
 2321SOL    HW2 8036   0.757   7.242   1.531  1.3588  1.0446 -1.2716
 2322SOL     OW 8037   7.840   2.328   4.136  0.6543 -0.5233  0.2247
 2322SOL    HW1 8038   7.803   2.393   4.076 -1.0865 -0.6215  1.1129
 2322SOL    HW2 8039   7.796   2.246   4.111  1.0032 -0.8575  0.6926
 2323SOL     OW 8040   4.901   0.865   3.158  0.3453  0.2621  0.2106
 2323SOL    HW1 8041   4.970   0.810   3.123  0.3522  0.8918 -0.8328
 2323SOL    HW2 8042   4.843   0.805   3.205  0.5930 -0.5579 -0.5102
 2324SOL     OW 8043   4.524   0.766   2.448  0.4149 -0.4239  0.2574
 2324SOL    HW1 8044   4.578   0.798   2.375 -0.8122 -2.3310 -1.5951
 2324SOL    HW2 8045   4.503   0.676   2.424  0.7222 -1.4637  3.4798
 2325SOL     OW 8046   8.119   0.059   1.980  0.5875 -0.0794 -0.0430
 2325SOL    HW1 8047   8.090   0.101   1.899 -3.0173  0.0558  1.1395
 2325SOL    HW2 8048   8.105   0.125   2.048  0.8617 -1.1175  1.0582
 2326SOL     OW 8049   1.344   7.277   5.783  0.0575 -0.5356 -0.1083
 2326SOL    HW1 8050   1.349   7.256   5.876  1.3502  1.0692  0.2234
 2326SOL    HW2 8051   1.250   7.273   5.763 -0.1231 -2.2897  0.8783
 2327SOL     OW 8052   7.406   5.403   6.899  0.0096  0.0708 -0.1649
 2327SOL    HW1 8053   7.384   5.417   6.807  0.9567  0.2189 -0.3799
 2327SOL    HW2 8054   7.492   5.362   6.897  0.0923  0.1860  0.6619
 2328SOL     OW 8055   1.876   4.517   7.727  0.1562  0.3990  0.1671
 2328SOL    HW1 8056   1.927   4.520   7.646 -2.0760  1.7964 -1.2698
 2328SOL    HW2 8057   1.796   4.471   7.703  0.1822 -0.7521  2.0868
 2329SOL     OW 8058   5.889   2.935   0.580 -0.0719  0.3149  0.3723
 2329SOL    HW1 8059   5.929   2.903   0.661  0.6753  0.1991 -0.0242
 2329SOL    HW2 8060   5.898   3.031   0.585 -1.5992  0.4442  1.2012
 2330SOL     OW 8061   2.822   1.695   5.906  0.7796 -0.0211  0.1657
 2330SOL    HW1 8062   2.767   1.767   5.875  1.0440  0.4931  0.8714
 2330SOL    HW2 8063   2.781   1.616   5.870 -1.0460  0.2324  1.5168
 2331SOL     OW 8064   7.916   6.422   7.686 -0.2194 -0.6857 -0.1482
 2331SOL    HW1 8065   7.916   6.475   7.606 -0.5565 -1.1778 -0.4829
 2331SOL    HW2 8066   7.882   6.480   7.754 -0.1083 -0.3220 -0.4002
 2332SOL     OW 8067   6.293   7.257   6.210 -0.0599  0.2478 -0.2190
 2332SOL    HW1 8068   6.213   7.290   6.170 -0.1042  1.5134  0.8369
 2332SOL    HW2 8069   6.274   7.254   6.304  0.1218 -2.4128 -0.2012
 2333SOL     OW 8070   1.546   8.027   6.941  0.0426  0.4047 -0.4193
 2333SOL    HW1 8071   1.628   8.056   6.901  0.3853 -0.0557 -0.0634
 2333SOL    HW2 8072   1.486   8.101   6.930  0.0434  0.2073 -2.0032
 2334SOL     OW 8073   0.811   1.541   0.994  0.7821 -0.5016 -0.0785
 2334SOL    HW1 8074   0.872   1.601   0.951 -0.0496  1.4970  1.3700
 2334SOL    HW2 8075   0.732   1.544   0.939  1.2378 -1.4915 -0.8237
 2335SOL     OW 8076   3.711   2.303   2.624  0.3242 -0.0538 -0.5842
 2335SOL    HW1 8077   3.716   2.319   2.718 -0.7330 -1.4219 -0.2587
 2335SOL    HW2 8078   3.632   2.249   2.613  0.4070  0.1051 -2.2593
 2336SOL     OW 8079   3.119   5.304   4.501 -0.0657  0.1539 -0.0515
 2336SOL    HW1 8080   3.118   5.332   4.592  1.0962 -1.5375  0.5212
 2336SOL    HW2 8081   3.027   5.288   4.480 -0.1744 -1.7861  1.6244
 2337SOL     OW 8082   1.311   7.574   5.703  0.1001  0.0584  0.7162
 2337SOL    HW1 8083   1.269   7.659   5.707  0.5432  0.3347 -0.2270
 2337SOL    HW2 8084   1.294   7.534   5.788 -1.2149  0.5619  0.6985
 2338SOL     OW 8085   0.778   4.608   1.128  0.2656  0.1232  0.8500
 2338SOL    HW1 8086   0.684   4.598   1.147  0.0600  3.3091  2.1621
 2338SOL    HW2 8087   0.783   4.602   1.032 -1.0054 -1.4987  0.8261
 2339SOL     OW 8088   2.265   3.329   6.197 -0.0830  0.1967 -0.0239
 2339SOL    HW1 8089   2.261   3.396   6.129 -1.3758  1.1159  0.8977
 2339SOL    HW2 8090   2.299   3.374   6.274  2.4296 -1.0869 -0.2798
 2340SOL     OW 8091   6.276   6.528   2.299 -0.8494  0.6097  0.3920
 2340SOL    HW1 8092   6.242   6.450   2.342 -0.3637  0.5746  0.7163
 2340SOL    HW2 8093   6.201   6.562   2.249 -1.4111  0.6539  1.2537
 2341SOL     OW 8094   2.708   3.448   6.090 -0.1764 -0.6623  0.0559
 2341SOL    HW1 8095   2.684   3.483   6.004  1.3075  0.7603  0.1840
 2341SOL    HW2 8096   2.765   3.514   6.128 -0.3513 -1.5279  1.9284
 2342SOL     OW 8097   4.678   3.850   4.386 -0.0549  0.0785  0.2777
 2342SOL    HW1 8098   4.653   3.764   4.355 -0.1029 -0.3013  1.3140
 2342SOL    HW2 8099   4.765   3.865   4.351 -0.2532 -0.1685 -0.3242
 2343SOL     OW 8100   4.184   2.441   4.983  0.1572 -0.5763  0.5217
 2343SOL    HW1 8101   4.093   2.444   5.014  0.4194 -0.2180  1.2579
 2343SOL    HW2 8102   4.230   2.507   5.034  0.8405 -0.7588  0.1581
 2344SOL     OW 8103   6.659   2.501   4.802  0.1514 -0.1600 -0.3700
 2344SOL    HW1 8104   6.656   2.571   4.737  3.5514  0.3823 -0.1171
 2344SOL    HW2 8105   6.620   2.426   4.757  0.1442  0.8349 -2.1320
 2345SOL     OW 8106   2.172   5.052   6.743 -0.0978 -0.3737  0.0020
 2345SOL    HW1 8107   2.153   5.121   6.680 -0.9599 -1.5198 -1.0619
 2345SOL    HW2 8108   2.246   5.005   6.705  1.5444  0.8716  1.5093
 2346SOL     OW 8109   6.342   1.514   2.282  0.1239 -0.4058  0.0397
 2346SOL    HW1 8110   6.286   1.448   2.324  1.7203 -1.1557  1.0846
 2346SOL    HW2 8111   6.283   1.586   2.262 -1.5280 -1.8095 -0.3919
 2347SOL     OW 8112   7.787   6.428   4.805 -0.3175  0.1487  0.2539
 2347SOL    HW1 8113   7.709   6.464   4.847 -1.1784 -0.5047 -0.7465
 2347SOL    HW2 8114   7.859   6.453   4.863 -1.2237  1.0313  1.0328
 2348SOL     OW 8115   8.035   5.955   6.405  0.5676 -0.1181 -0.6118
 2348SOL    HW1 8116   7.957   5.993   6.363 -0.3726 -1.7999 -0.4749
 2348SOL    HW2 8117   8.009   5.865   6.427  2.2437 -0.4129  0.3202
 2349SOL     OW 8118   0.946   5.271   5.566  0.2448  0.3963 -0.2452
 2349SOL    HW1 8119   0.859   5.246   5.595  0.0185  2.1834  0.7103
 2349SOL    HW2 8120   0.935   5.298   5.475  0.3055 -1.7828 -0.9538
 2350SOL     OW 8121   7.850   3.884   5.841  0.2023 -0.0543  0.3663
 2350SOL    HW1 8122   7.774   3.888   5.782  0.7837 -1.2385 -0.4926
 2350SOL    HW2 8123   7.866   3.976   5.865  0.8826  0.7147 -2.5677
 2351SOL     OW 8124   6.983   6.888   5.261 -0.0954 -0.0740  0.0447
 2351SOL    HW1 8125   6.960   6.828   5.332 -2.0211 -0.7130 -1.0493
 2351SOL    HW2 8126   6.994   6.973   5.304  3.4031 -1.1689  1.7411
 2352SOL     OW 8127   8.093   1.951   1.290  0.1917 -0.4507 -0.5755
 2352SOL    HW1 8128   8.159   1.902   1.241 -0.5189 -0.6559 -1.3598
 2352SOL    HW2 8129   8.042   1.996   1.222  0.2528  0.6387  0.0788
 2353SOL     OW 8130   8.097   6.563   6.617  0.0691 -0.6638  0.3344
 2353SOL    HW1 8131   8.075   6.612   6.538  0.3390  0.4586  0.9382
 2353SOL    HW2 8132   8.018   6.514   6.637 -0.4737  0.1177  0.1458
 2354SOL     OW 8133   4.192   1.383   7.830 -0.0419  0.6015 -0.2750
 2354SOL    HW1 8134   4.123   1.388   7.764  0.2510  1.1113 -0.5465
 2354SOL    HW2 8135   4.228   1.472   7.835  0.5096  0.3714 -0.0431
 2355SOL     OW 8136   5.565   5.046   0.812  0.2371 -0.1225  0.4501
 2355SOL    HW1 8137   5.554   5.132   0.771 -1.2854 -0.9327 -0.9997
 2355SOL    HW2 8138   5.477   5.009   0.811  0.7758 -1.4920  1.5605
 2356SOL     OW 8139   2.357   1.546   5.792 -0.5637 -0.2338  0.4208
 2356SOL    HW1 8140   2.392   1.460   5.815 -0.9052 -0.1296  1.3766
 2356SOL    HW2 8141   2.364   1.550   5.696  0.8334 -0.7198  0.4712
 2357SOL     OW 8142   1.119   1.260   7.835  0.1738  0.0436 -0.8926
 2357SOL    HW1 8143   1.169   1.204   7.776 -0.2681 -0.3874 -0.8683
 2357SOL    HW2 8144   1.040   1.209   7.856  0.7378 -0.1973  0.7880
 2358SOL     OW 8145   2.370   0.477   5.432 -0.1797  0.6974 -0.5143
 2358SOL    HW1 8146   2.375   0.392   5.388 -0.6111 -0.1303  0.9386
 2358SOL    HW2 8147   2.313   0.530   5.377  0.2817  0.1250 -1.5678
 2359SOL     OW 8148   7.928   5.799   7.046 -0.3315 -0.8879  0.0758
 2359SOL    HW1 8149   7.974   5.874   7.008  1.3212 -1.8442  0.0778
 2359SOL    HW2 8150   7.911   5.741   6.973  2.2096 -2.3963  0.5361
 2360SOL     OW 8151   4.733   0.044   4.766 -0.5132 -0.0798 -0.5861
 2360SOL    HW1 8152   4.726   0.063   4.860  1.7900  1.6269 -0.6511
 2360SOL    HW2 8153   4.678  -0.033   4.752  0.8193 -1.7897  2.5952
 2361SOL     OW 8154   5.739   4.876   6.490  0.1609 -0.6281 -0.0560
 2361SOL    HW1 8155   5.680   4.806   6.518 -0.3960 -0.6269 -1.1561
 2361SOL    HW2 8156   5.817   4.831   6.459 -1.1672 -1.0315 -3.1846
 2362SOL     OW 8157   5.446   0.199   7.507 -0.9641  0.0936 -0.2504
 2362SOL    HW1 8158   5.530   0.236   7.481 -0.1778 -1.9978 -0.9077
 2362SOL    HW2 8159   5.411   0.262   7.570  0.4413  1.6925 -0.9799
 2363SOL     OW 8160   4.122   4.053   0.680 -0.1072 -0.3582 -0.2791
 2363SOL    HW1 8161   4.031   4.071   0.705  0.9966  0.7432  3.6499
 2363SOL    HW2 8162   4.147   4.129   0.627 -0.6947  0.8235  1.0640
 2364SOL     OW 8163   2.977   0.139   3.503  0.0118  0.2232 -0.2811
 2364SOL    HW1 8164   2.988   0.049   3.532  1.1900  0.5328  0.2845
 2364SOL    HW2 8165   2.957   0.187   3.583 -0.5897  0.4757 -0.5773
 2365SOL     OW 8166   1.273   5.136   1.284 -0.0156 -0.3588 -0.3190
 2365SOL    HW1 8167   1.338   5.118   1.352  0.0645  0.5894 -0.1381
 2365SOL    HW2 8168   1.288   5.069   1.218  1.4401  0.1319 -0.4985
 2366SOL     OW 8169   1.615   4.923   4.833  0.0739  0.4633 -0.0413
 2366SOL    HW1 8170   1.688   4.895   4.778 -0.9969  0.1974 -1.3946
 2366SOL    HW2 8171   1.596   4.849   4.889 -0.3239 -0.1721 -0.9873
 2367SOL     OW 8172   4.194   3.185   6.768 -0.9301  0.0269 -0.6155
 2367SOL    HW1 8173   4.264   3.233   6.812  0.2094 -0.8132 -1.4833
 2367SOL    HW2 8174   4.215   3.191   6.675  0.0653 -3.3202 -0.7228
 2368SOL     OW 8175   0.679   2.092   0.675  0.2608 -0.1319 -0.1486
 2368SOL    HW1 8176   0.592   2.077   0.711  0.9082 -2.9128  0.4970
 2368SOL    HW2 8177   0.688   2.187   0.674 -2.5270  0.2281  0.3082
 2369SOL     OW 8178   2.057   1.619   7.517 -0.6571  0.1203  0.5263
 2369SOL    HW1 8179   2.038   1.698   7.466 -1.0678 -0.2650  0.0778
 2369SOL    HW2 8180   2.124   1.647   7.580  0.3712  0.4292 -0.6689
 2370SOL     OW 8181   1.422   2.007   3.427  0.1854  0.2072 -0.1632
 2370SOL    HW1 8182   1.350   1.951   3.454 -1.0678  1.7935 -0.0495
 2370SOL    HW2 8183   1.442   1.979   3.338  0.5253 -1.2960  0.3579
 2371SOL     OW 8184   2.432   3.897   5.101  0.2024  0.2008 -1.1274
 2371SOL    HW1 8185   2.372   3.916   5.029  1.0494 -1.5863 -2.3709
 2371SOL    HW2 8186   2.439   3.801   5.102 -0.4492  0.0900  1.9168
 2372SOL     OW 8187   5.967   1.552   0.668  0.0332  0.0176 -0.0730
 2372SOL    HW1 8188   6.002   1.464   0.676 -2.9121 -1.2526 -0.0302
 2372SOL    HW2 8189   5.942   1.560   0.576  0.5376  0.9437 -0.1433
 2373SOL     OW 8190   3.426   5.453   0.140 -0.2914 -0.0118 -0.3054
 2373SOL    HW1 8191   3.518   5.442   0.164 -0.5709  0.1781  0.8940
 2373SOL    HW2 8192   3.416   5.402   0.060  0.7821 -0.3039 -0.2663
 2374SOL     OW 8193   4.460   6.845   5.045  0.4232 -0.2006 -0.7760
 2374SOL    HW1 8194   4.401   6.787   4.996 -0.0878  0.2081 -0.6487
 2374SOL    HW2 8195   4.519   6.879   4.978 -0.1586  0.2170 -1.0890
 2375SOL     OW 8196   6.384   6.018   2.657  0.6352 -0.0331 -0.6250
 2375SOL    HW1 8197   6.397   6.110   2.680  1.1718 -0.3244  0.2950
 2375SOL    HW2 8198   6.303   5.993   2.703  0.0710  0.1706 -1.4865
 2376SOL     OW 8199   3.495   2.528   3.233 -0.2391  0.4058  0.0400
 2376SOL    HW1 8200   3.474   2.620   3.220 -0.8371  0.1120 -1.2944
 2376SOL    HW2 8201   3.591   2.525   3.238 -0.1065  0.9279 -1.6763
 2377SOL     OW 8202   7.545   7.484   7.404 -0.1154 -0.0109  0.1043
 2377SOL    HW1 8203   7.620   7.530   7.441 -0.1782  0.4684 -0.3512
 2377SOL    HW2 8204   7.570   7.392   7.405  0.2021  0.0792  0.5903
 2378SOL     OW 8205   0.036   4.627   8.113 -0.1726  0.1174  0.6526
 2378SOL    HW1 8206   0.038   4.710   8.067  1.3594 -0.1199  0.2294
 2378SOL    HW2 8207   0.129   4.603   8.124 -0.5331 -2.3417 -0.7726
 2379SOL     OW 8208   4.368   0.780   3.068  0.2631  0.2922  0.2727
 2379SOL    HW1 8209   4.354   0.703   3.012 -0.6375 -1.1963  2.4147
 2379SOL    HW2 8210   4.462   0.783   3.080  0.4206  0.2902 -0.8146
 2380SOL     OW 8211   6.523   5.212   1.464 -0.3085 -0.2233  0.0246
 2380SOL    HW1 8212   6.433   5.234   1.440 -0.5973 -0.9709  0.3728
 2380SOL    HW2 8213   6.577   5.271   1.413 -1.0362  1.0706  0.7037
 2381SOL     OW 8214   0.269   4.209   1.752 -0.2276 -0.4113 -0.1976
 2381SOL    HW1 8215   0.299   4.184   1.665  0.3933  4.1260 -1.5494
 2381SOL    HW2 8216   0.348   4.222   1.803 -0.5151 -0.9567  0.4113
 2382SOL     OW 8217   5.137   3.044   1.976  0.5351 -0.1357 -0.3641
 2382SOL    HW1 8218   5.056   3.094   1.990 -0.1114 -1.1938 -0.1835
 2382SOL    HW2 8219   5.146   3.041   1.881 -0.4616 -1.2477 -0.4470
 2383SOL     OW 8220   6.858   2.605   0.874 -0.3835  0.2582  0.3655
 2383SOL    HW1 8221   6.830   2.690   0.907  0.6704  0.7412  0.0750
 2383SOL    HW2 8222   6.842   2.545   0.946 -1.5053  0.6220  0.4354
 2384SOL     OW 8223   8.088   8.137   5.511 -0.1023  0.0843 -0.6721
 2384SOL    HW1 8224   8.053   8.193   5.581  1.3149  1.1562 -0.7827
 2384SOL    HW2 8225   8.122   8.060   5.557 -0.6163  0.0436 -0.3530
 2385SOL     OW 8226   3.588   7.724   2.947 -0.2490 -0.4351 -0.4651
 2385SOL    HW1 8227   3.561   7.815   2.939  0.9939  0.1354  1.1941
 2385SOL    HW2 8228   3.654   7.724   3.016  0.2741 -2.5027 -0.8755
 2386SOL     OW 8229   0.110   7.331   5.635  0.1304  0.0874  0.0823
 2386SOL    HW1 8230   0.183   7.289   5.589  0.3010 -0.4025  0.7901
 2386SOL    HW2 8231   0.150   7.404   5.681  0.3365 -0.6827  1.1566
 2387SOL     OW 8232   4.799   4.400   1.581 -0.8577  0.1505 -0.3344
 2387SOL    HW1 8233   4.873   4.457   1.601 -1.6890  1.8191 -1.6820
 2387SOL    HW2 8234   4.723   4.458   1.584 -2.1417 -1.5021  0.9759
 2388SOL     OW 8235   3.745   5.642   0.566 -0.1049  0.1666  0.0189
 2388SOL    HW1 8236   3.764   5.735   0.548 -3.0773  0.6884 -0.9267
 2388SOL    HW2 8237   3.669   5.622   0.511  1.3498 -3.3245 -0.9914
 2389SOL     OW 8238   6.083   2.812   3.951 -0.0161  0.1808  0.0414
 2389SOL    HW1 8239   6.043   2.727   3.935  0.3895  0.0436 -0.2605
 2389SOL    HW2 8240   6.113   2.808   4.042  0.7064 -0.2933 -0.2129
 2390SOL     OW 8241   5.217   0.849   4.310  0.2040  0.1858  0.0030
 2390SOL    HW1 8242   5.201   0.923   4.368 -1.5995 -0.1910  0.0668
 2390SOL    HW2 8243   5.312   0.844   4.302  0.3769  2.4778  0.0085
 2391SOL     OW 8244   1.375   5.048   0.037 -0.1509 -0.4721  0.0661
 2391SOL    HW1 8245   1.396   4.966  -0.009 -1.4732 -1.2252  0.7688
 2391SOL    HW2 8246   1.348   5.021   0.124 -1.2122  0.6700  0.1202
 2392SOL     OW 8247   2.933   0.397   3.136  0.1403 -0.3100 -0.1362
 2392SOL    HW1 8248   2.894   0.312   3.114 -1.6157  0.1825  0.9150
 2392SOL    HW2 8249   2.993   0.377   3.208 -1.2206 -0.4886  0.9669
 2393SOL     OW 8250   1.410   5.342   4.464  0.5511 -0.0947 -0.6095
 2393SOL    HW1 8251   1.462   5.268   4.495 -0.6998 -1.1651 -0.9931
 2393SOL    HW2 8252   1.461   5.378   4.391  1.8132  0.2808  0.4128
 2394SOL     OW 8253   3.025   3.729   3.581  0.1107  0.4581 -0.0804
 2394SOL    HW1 8254   3.015   3.811   3.630 -0.0402 -0.0882  0.8281
 2394SOL    HW2 8255   3.060   3.667   3.645 -1.5149 -0.6965 -0.2321
 2395SOL     OW 8256   5.265   0.559   7.175 -0.2873  0.2577 -0.5728
 2395SOL    HW1 8257   5.280   0.563   7.081 -1.0352  0.1948 -0.6975
 2395SOL    HW2 8258   5.170   0.551   7.184 -0.4166  2.2145  0.2468
 2396SOL     OW 8259   1.931   3.425   6.066  0.2620  0.2762  0.0418
 2396SOL    HW1 8260   1.931   3.376   6.148  0.9998 -0.2142 -0.2360
 2396SOL    HW2 8261   2.001   3.489   6.076  1.9505 -1.2984 -1.0410
 2397SOL     OW 8262   0.369   3.913   2.139  0.1329  0.2610 -0.3070
 2397SOL    HW1 8263   0.455   3.952   2.119  0.4662 -0.2351  0.1369
 2397SOL    HW2 8264   0.363   3.838   2.079  0.4195 -0.2518  0.2877
 2398SOL     OW 8265   4.274   2.811   2.894  0.4398  0.1738 -0.0939
 2398SOL    HW1 8266   4.326   2.733   2.913 -0.0852  0.3689  2.5577
 2398SOL    HW2 8267   4.201   2.807   2.956 -1.4559  1.1017 -2.1336
 2399SOL     OW 8268   2.806   7.368   2.961 -0.2283 -0.6943  0.1995
 2399SOL    HW1 8269   2.759   7.354   3.043 -1.1575 -0.6796 -0.3014
 2399SOL    HW2 8270   2.857   7.448   2.975  0.6752 -1.4284  1.1946
 2400SOL     OW 8271   4.967   1.381   5.042  0.1200 -0.3031  0.3207
 2400SOL    HW1 8272   4.892   1.322   5.056  0.1839  0.0553  2.5206
 2400SOL    HW2 8273   5.020   1.372   5.121  0.5316  2.1213  0.3987
 2401SOL     OW 8274   0.169   3.804   1.280  0.0629  0.2612 -0.4014
 2401SOL    HW1 8275   0.090   3.858   1.289  0.3652  0.6083  0.2583
 2401SOL    HW2 8276   0.143   3.733   1.222  0.0927  2.0013 -2.7333
 2402SOL     OW 8277   7.234   3.105   2.403  0.2220  0.3222 -0.0173
 2402SOL    HW1 8278   7.300   3.173   2.391  0.0801  0.3575 -0.6096
 2402SOL    HW2 8279   7.214   3.075   2.315 -0.0111 -0.2099  0.2135
 2403SOL     OW 8280   0.290   3.629   7.585 -0.2205  0.3627 -0.1257
 2403SOL    HW1 8281   0.346   3.569   7.635  1.2471 -1.2859 -3.3961
 2403SOL    HW2 8282   0.268   3.699   7.647  2.8236 -0.5549  2.2699
 2404SOL     OW 8283   6.932   1.199   3.900  0.1403  0.7730  0.3448
 2404SOL    HW1 8284   6.992   1.204   3.825 -0.0753  2.3713  0.2381
 2404SOL    HW2 8285   6.898   1.288   3.909 -1.5701  0.1027  0.9330
 2405SOL     OW 8286   7.585   5.778   2.850 -0.1220 -0.6673  0.8961
 2405SOL    HW1 8287   7.605   5.802   2.940 -0.4153 -0.8528  1.0141
 2405SOL    HW2 8288   7.530   5.700   2.858 -0.1592 -0.6780  0.5562
 2406SOL     OW 8289   0.782   2.218   6.418  0.0056 -0.2791  1.1852
 2406SOL    HW1 8290   0.788   2.313   6.406 -2.5395 -0.0570  1.0958
 2406SOL    HW2 8291   0.817   2.203   6.505 -1.0621  1.0041  1.8796
 2407SOL     OW 8292   7.821   4.533   3.962  0.2872 -0.1935  0.1449
 2407SOL    HW1 8293   7.868   4.470   3.908  1.5936 -0.2015  1.2372
 2407SOL    HW2 8294   7.813   4.491   4.047  1.7897  1.3281  1.1052
 2408SOL     OW 8295   4.638   3.216   1.944 -0.5242 -0.4251  0.1504
 2408SOL    HW1 8296   4.577   3.212   2.018  0.2308 -1.4284  0.7381
 2408SOL    HW2 8297   4.655   3.125   1.922 -0.9318 -0.1435 -1.4558
 2409SOL     OW 8298   4.171   2.255   2.581  0.3372 -0.0149 -0.0914
 2409SOL    HW1 8299   4.113   2.180   2.595 -0.1668  0.3567 -0.1678
 2409SOL    HW2 8300   4.259   2.219   2.590  0.0811 -0.3954  1.0060
 2410SOL     OW 8301   5.367   5.810   1.916  0.4498  0.4482  0.3257
 2410SOL    HW1 8302   5.390   5.746   1.983  1.2685  1.0023  0.5887
 2410SOL    HW2 8303   5.348   5.758   1.838 -2.3191 -0.3319  1.4277
 2411SOL     OW 8304   5.703   5.758   6.940  0.0152  0.0568 -0.1503
 2411SOL    HW1 8305   5.724   5.850   6.930 -0.7258  0.2359 -0.1340
 2411SOL    HW2 8306   5.618   5.747   6.897  1.1412 -1.1077 -2.2423
 2412SOL     OW 8307   3.617   4.516   5.647 -0.5208 -0.3423 -0.0342
 2412SOL    HW1 8308   3.610   4.490   5.739 -0.6767  1.6956  0.5681
 2412SOL    HW2 8309   3.541   4.572   5.632 -1.2939 -1.7680 -1.8444
 2413SOL     OW 8310   5.998   3.321   1.656  0.1284  0.3896 -0.5967
 2413SOL    HW1 8311   6.018   3.408   1.622 -0.4066  0.2942 -1.1721
 2413SOL    HW2 8312   6.077   3.270   1.636  0.6750  0.8756  0.2646
 2414SOL     OW 8313   3.260   2.964   3.067  0.0677 -0.4104 -0.3903
 2414SOL    HW1 8314   3.212   2.984   2.987 -0.5683  2.0889  0.5234
 2414SOL    HW2 8315   3.341   3.015   3.060 -0.3135  0.4189  0.8110
 2415SOL     OW 8316   8.016   6.046   1.742 -0.0147  0.4316  0.7302
 2415SOL    HW1 8317   7.965   6.049   1.661  0.2682  1.3167  0.5797
 2415SOL    HW2 8318   7.993   6.126   1.789  0.3375  0.2569  1.2112
 2416SOL     OW 8319   0.656   6.338   7.372  0.0941 -0.2692 -1.3495
 2416SOL    HW1 8320   0.703   6.346   7.455 -0.6285 -0.1345 -0.9448
 2416SOL    HW2 8321   0.712   6.282   7.318  0.6315 -0.2554 -0.8164
 2417SOL     OW 8322   6.900   6.599   4.229 -0.2036 -0.0046  0.0430
 2417SOL    HW1 8323   6.967   6.537   4.257 -0.6382 -0.3068  0.4284
 2417SOL    HW2 8324   6.949   6.676   4.200  0.2707  0.6281  2.3101
 2418SOL     OW 8325   4.299   6.936   3.625  0.5342  0.4539  0.7969
 2418SOL    HW1 8326   4.359   6.899   3.689  0.0887  1.9950  2.1805
 2418SOL    HW2 8327   4.255   7.008   3.671 -1.8841 -0.1634 -0.3651
 2419SOL     OW 8328   6.576   0.710   5.051 -0.5992 -0.1047 -0.4272
 2419SOL    HW1 8329   6.496   0.687   5.003 -0.1576 -0.3322 -1.0720
 2419SOL    HW2 8330   6.647   0.683   4.993 -0.0318  2.0717 -0.8360
 2420SOL     OW 8331   8.123   1.304   5.694  0.3256 -0.4319  0.5208
 2420SOL    HW1 8332   8.204   1.287   5.647 -0.8929 -3.3928 -0.7689
 2420SOL    HW2 8333   8.151   1.315   5.785  2.2870  0.4819 -0.1234
 2421SOL     OW 8334   0.204   3.324   4.097 -0.2618 -0.2959  0.1181
 2421SOL    HW1 8335   0.281   3.374   4.071  0.1844 -0.9167  0.2466
 2421SOL    HW2 8336   0.236   3.236   4.113 -0.9295 -0.4694  0.5467
 2422SOL     OW 8337   2.160   1.546   7.992  0.2819  0.4410 -0.0536
 2422SOL    HW1 8338   2.107   1.498   7.927 -1.6454  0.4284  1.4298
 2422SOL    HW2 8339   2.218   1.479   8.029 -1.1004 -0.4135  0.6877
 2423SOL     OW 8340   7.793   6.932   5.421  0.1318 -0.0154 -0.1507
 2423SOL    HW1 8341   7.851   6.936   5.345  0.4991 -0.8620  0.0802
 2423SOL    HW2 8342   7.730   7.003   5.406  1.5170  1.2606 -0.1447
 2424SOL     OW 8343   7.799   4.764   3.320 -0.4446  0.1785  0.2846
 2424SOL    HW1 8344   7.781   4.857   3.302 -1.9424 -0.3809 -1.3120
 2424SOL    HW2 8345   7.714   4.722   3.317  0.3709 -1.4924 -0.4647
 2425SOL     OW 8346   6.173   0.750   5.623  0.2590 -0.3441  0.4956
 2425SOL    HW1 8347   6.239   0.714   5.564  1.8343  0.2299  1.8225
 2425SOL    HW2 8348   6.182   0.845   5.615  1.6063 -0.2251  2.7497
 2426SOL     OW 8349   4.681   4.311   6.010  0.3915 -0.4677 -0.3961
 2426SOL    HW1 8350   4.591   4.277   6.005 -0.5244  1.8934 -1.1319
 2426SOL    HW2 8351   4.729   4.261   5.944 -0.1349 -2.3200  0.5548
 2427SOL     OW 8352   4.658   3.836   0.648 -0.1872  0.0167 -0.3428
 2427SOL    HW1 8353   4.700   3.753   0.669 -0.6470 -0.5571 -1.6132
 2427SOL    HW2 8354   4.610   3.859   0.727 -2.0620 -2.1864 -0.7344
 2428SOL     OW 8355   5.162   5.046   4.025  0.7906 -0.2743  0.0815
 2428SOL    HW1 8356   5.190   4.965   4.067 -0.5972 -0.8394 -0.0436
 2428SOL    HW2 8357   5.156   5.024   3.932  0.1306 -0.1164  0.0822
 2429SOL     OW 8358   7.574   3.422   6.341  0.1330 -0.0715  0.2304
 2429SOL    HW1 8359   7.549   3.330   6.335  0.7366 -0.1558 -1.5741
 2429SOL    HW2 8360   7.606   3.444   6.253 -0.5173  2.0183  0.4735
 2430SOL     OW 8361   0.811   6.345   3.162  0.4475 -0.8124 -0.1201
 2430SOL    HW1 8362   0.906   6.340   3.149  0.9088 -0.9065  2.6790
 2430SOL    HW2 8363   0.777   6.269   3.114  1.9389 -1.5927 -0.0299
 2431SOL     OW 8364   1.909   5.650   0.516  0.0793 -0.9111  0.1005
 2431SOL    HW1 8365   1.921   5.700   0.597  1.1567 -2.9350  1.2783
 2431SOL    HW2 8366   1.998   5.642   0.480 -0.3021 -0.6239 -0.9429
 2432SOL     OW 8367   2.026   7.106   6.916 -0.1650  0.0319  0.0503
 2432SOL    HW1 8368   2.015   7.090   6.823 -0.7846  0.2059  0.0863
 2432SOL    HW2 8369   1.939   7.135   6.946 -0.0200 -0.1963  0.7109
 2433SOL     OW 8370   1.439   3.396   1.555 -0.2849  0.3460  0.3235
 2433SOL    HW1 8371   1.498   3.407   1.630 -1.4184 -1.3568  1.5548
 2433SOL    HW2 8372   1.357   3.437   1.583 -0.1264  1.5012 -0.8282
 2434SOL     OW 8373   0.209   5.198   5.475  0.1517 -0.2089  0.2833
 2434SOL    HW1 8374   0.287   5.162   5.518 -0.3363 -1.9445 -0.2240
 2434SOL    HW2 8375   0.219   5.172   5.383 -1.1903 -0.7654  0.2830
 2435SOL     OW 8376   3.386   3.134   2.284 -0.1710 -0.2018 -0.0866
 2435SOL    HW1 8377   3.461   3.167   2.334 -0.8302  0.6741  0.3663
 2435SOL    HW2 8378   3.332   3.212   2.268  0.0905 -0.4134 -2.3475
 2436SOL     OW 8379   4.654   0.933   6.088 -0.4067 -0.3770  1.0337
 2436SOL    HW1 8380   4.577   0.883   6.060 -0.0782  0.6314 -2.0442
 2436SOL    HW2 8381   4.728   0.874   6.072 -0.2939 -0.1542  0.7212
 2437SOL     OW 8382   4.310   4.233   8.019  0.1089 -0.7853 -0.3038
 2437SOL    HW1 8383   4.336   4.320   8.051  0.7350 -1.2611  0.4876
 2437SOL    HW2 8384   4.390   4.181   8.021 -0.1335 -1.2325 -1.3432
 2438SOL     OW 8385   5.449   5.952   6.191  0.0960 -0.1055  0.5084
 2438SOL    HW1 8386   5.406   5.985   6.112  0.5778  1.2810  0.7910
 2438SOL    HW2 8387   5.414   5.864   6.202 -0.0293 -0.3074 -1.2026
 2439SOL     OW 8388   4.511   6.070   6.980  0.0875  0.3467 -0.1288
 2439SOL    HW1 8389   4.566   6.014   6.927 -0.1716  1.1907 -1.3355
 2439SOL    HW2 8390   4.445   6.011   7.017  1.1404 -0.4848  0.4624
 2440SOL     OW 8391   6.027   8.007   5.244  0.3016 -0.1602 -0.1114
 2440SOL    HW1 8392   5.984   8.069   5.185 -0.0964 -1.3972 -1.1788
 2440SOL    HW2 8393   6.060   8.061   5.316 -0.7651  1.1639 -0.5683
 2441SOL     OW 8394   0.401   1.144   4.803 -0.1285  0.0177 -0.2174
 2441SOL    HW1 8395   0.355   1.189   4.732 -2.1581 -0.6270  0.6224
 2441SOL    HW2 8396   0.399   1.052   4.779  1.7030  0.0338 -0.6425
 2442SOL     OW 8397   7.259   4.176   5.153  0.7789 -0.4780 -0.0180
 2442SOL    HW1 8398   7.253   4.174   5.058 -0.4543 -0.1467  0.0300
 2442SOL    HW2 8399   7.340   4.224   5.172 -0.1740  1.5904 -0.9150
 2443SOL     OW 8400   2.574   4.047   7.224 -0.2706  0.5872 -0.0063
 2443SOL    HW1 8401   2.551   4.085   7.308 -0.3817  1.5438 -0.4485
 2443SOL    HW2 8402   2.543   4.111   7.160  0.9292  0.4826 -0.7270
 2444SOL     OW 8403   7.399   4.716   5.042  0.4878  0.0654 -0.1094
 2444SOL    HW1 8404   7.399   4.739   5.135  1.7100 -1.9732  0.4524
 2444SOL    HW2 8405   7.444   4.788   5.000 -2.6715  2.5461  0.3521
 2445SOL     OW 8406   3.309   5.717   4.832  0.0870  0.2404  0.1924
 2445SOL    HW1 8407   3.218   5.737   4.810 -0.3280 -1.0096  0.6711
 2445SOL    HW2 8408   3.346   5.800   4.862 -0.9887  0.6882  0.3046
 2446SOL     OW 8409   0.603   8.080   5.399 -0.1088 -0.0141 -0.6322
 2446SOL    HW1 8410   0.674   8.144   5.403  1.1226 -0.9881 -3.8574
 2446SOL    HW2 8411   0.626   8.016   5.467 -0.0022  1.5550  0.8895
 2447SOL     OW 8412   6.634   0.616   0.342  0.0692 -0.5811  0.5528
 2447SOL    HW1 8413   6.562   0.553   0.343 -0.0698 -0.4220  0.5353
 2447SOL    HW2 8414   6.703   0.572   0.293 -0.4333 -0.2729 -0.4610
 2448SOL     OW 8415   4.775   5.513   6.361 -0.3745 -0.2117  0.3637
 2448SOL    HW1 8416   4.870   5.513   6.350 -0.5416 -0.4162 -1.3229
 2448SOL    HW2 8417   4.762   5.486   6.452  1.1609 -0.9989  0.3904
 2449SOL     OW 8418   0.098   6.486   4.738  0.3536  0.4105  0.1727
 2449SOL    HW1 8419   0.017   6.448   4.773  0.1822  0.4298 -0.2019
 2449SOL    HW2 8420   0.153   6.498   4.815  0.1620  0.0041  0.3812
 2450SOL     OW 8421   7.512   7.725   4.718  0.5124 -0.4175 -0.9346
 2450SOL    HW1 8422   7.452   7.769   4.658  0.2045 -1.3658 -1.3397
 2450SOL    HW2 8423   7.472   7.640   4.734  0.5190 -0.1466  0.7220
 2451SOL     OW 8424   0.079   1.787   7.288  0.3544  0.4286 -0.3743
 2451SOL    HW1 8425   0.053   1.863   7.341  0.4662  0.9467 -1.0394
 2451SOL    HW2 8426   0.174   1.784   7.296  0.2718 -0.2798  0.4825
 2452SOL     OW 8427   7.811   1.761   0.984 -0.0720  0.0518  0.5137
 2452SOL    HW1 8428   7.792   1.756   0.890  4.3534 -1.3729 -0.5270
 2452SOL    HW2 8429   7.779   1.678   1.019 -0.7422  0.1120  0.0745
 2453SOL     OW 8430   3.508   3.869   6.477 -0.1961 -0.3697  0.0315
 2453SOL    HW1 8431   3.515   3.844   6.385 -1.7620 -1.1730  0.1060
 2453SOL    HW2 8432   3.596   3.900   6.500 -0.3371  2.1324 -2.3484
 2454SOL     OW 8433   1.127   0.411   6.050  0.3434  0.2551 -0.0869
 2454SOL    HW1 8434   1.071   0.339   6.022  0.2518  0.2209  0.1821
 2454SOL    HW2 8435   1.138   0.398   6.144  0.5578  0.4311 -0.0875
 2455SOL     OW 8436   2.337   0.908   0.798 -0.5086 -0.1899 -0.1705
 2455SOL    HW1 8437   2.314   0.953   0.879 -0.1475 -0.1060 -0.1158
 2455SOL    HW2 8438   2.420   0.865   0.816 -1.0455 -1.2286 -0.0903
 2456SOL     OW 8439   3.627   7.830   6.390 -0.2220  0.5028 -0.0509
 2456SOL    HW1 8440   3.690   7.757   6.385  0.0405  0.8097 -2.4162
 2456SOL    HW2 8441   3.681   7.906   6.411 -0.3460  0.2250  1.3702
 2457SOL     OW 8442   4.542   6.036   2.535  0.2861  0.5122  0.4689
 2457SOL    HW1 8443   4.498   6.120   2.546 -0.4689  0.3094 -0.8349
 2457SOL    HW2 8444   4.629   6.049   2.571  0.4737  2.1039 -0.4991
 2458SOL     OW 8445   4.744   0.260   4.211 -0.2592 -0.3659 -0.7066
 2458SOL    HW1 8446   4.717   0.171   4.234 -1.3422  0.2578  0.5637
 2458SOL    HW2 8447   4.717   0.314   4.285 -0.4480  1.1703 -1.8279
 2459SOL     OW 8448   2.196   4.951   6.339  0.0626  0.9385 -0.1459
 2459SOL    HW1 8449   2.172   4.874   6.288 -1.4267  0.8175  0.6827
 2459SOL    HW2 8450   2.113   4.998   6.352  0.6001  1.5742  1.1370
 2460SOL     OW 8451   1.424   1.629   1.390 -0.2005  0.5917  0.0370
 2460SOL    HW1 8452   1.383   1.590   1.468 -0.2819 -0.8954 -0.7189
 2460SOL    HW2 8453   1.461   1.712   1.422 -1.0596  0.4750  1.4387
 2461SOL     OW 8454   6.073   5.878   5.917  0.1675  0.2123  0.1033
 2461SOL    HW1 8455   6.026   5.795   5.922  0.6119 -0.0555 -0.0740
 2461SOL    HW2 8456   6.103   5.893   6.007 -0.2638  0.3928  0.2208
 2462SOL     OW 8457   6.635   1.662   7.416  0.5604 -0.1076  0.3402
 2462SOL    HW1 8458   6.729   1.672   7.399  0.4514  0.5639  0.1037
 2462SOL    HW2 8459   6.601   1.752   7.417 -0.1738 -0.3756 -0.0819
 2463SOL     OW 8460   0.647   4.032   2.327 -1.0470  0.3930 -0.3731
 2463SOL    HW1 8461   0.685   4.089   2.260  1.7560  2.3507  2.6234
 2463SOL    HW2 8462   0.685   3.946   2.309 -0.9000  0.7021 -1.6682
 2464SOL     OW 8463   1.626   2.034   3.751 -0.2328  0.0866  0.6458
 2464SOL    HW1 8464   1.665   2.055   3.666 -0.0029 -2.0881  0.1517
 2464SOL    HW2 8465   1.537   2.004   3.731 -0.5079  0.4327  1.2858
 2465SOL     OW 8466   2.858   0.690   5.681  0.4715 -0.2084  0.3420
 2465SOL    HW1 8467   2.951   0.672   5.695  0.6397  1.3810  1.6933
 2465SOL    HW2 8468   2.851   0.785   5.686 -1.1215 -0.2448 -0.5326
 2466SOL     OW 8469   7.280   3.748   3.116 -0.6361  0.1296 -0.3666
 2466SOL    HW1 8470   7.263   3.681   3.182 -1.3929 -0.8885 -1.5332
 2466SOL    HW2 8471   7.197   3.794   3.106 -0.9309 -0.5783 -1.4763
 2467SOL     OW 8472   2.212   5.322   3.389 -0.1070  0.7534 -0.0602
 2467SOL    HW1 8473   2.123   5.331   3.424 -0.3894  0.0753 -0.5893
 2467SOL    HW2 8474   2.242   5.236   3.418 -0.2447  0.2929 -1.2231
 2468SOL     OW 8475   2.136   7.873   1.029  0.0954  0.5372 -0.5507
 2468SOL    HW1 8476   2.085   7.793   1.019 -0.5709  1.0517 -1.3394
 2468SOL    HW2 8477   2.216   7.858   0.979  0.1716  0.2023 -0.3313
 2469SOL     OW 8478   0.897   3.493   5.273  0.0283  0.3849  0.0589
 2469SOL    HW1 8479   0.979   3.453   5.299 -1.0917 -0.7954  2.0151
 2469SOL    HW2 8480   0.850   3.509   5.355 -1.5786  1.3052 -0.9639
 2470SOL     OW 8481   6.378   1.159   5.884 -0.5541  0.0645  0.1531
 2470SOL    HW1 8482   6.358   1.113   5.965 -1.7336  0.2853  0.0150
 2470SOL    HW2 8483   6.473   1.169   5.884 -0.4301 -0.9784  0.9275
 2471SOL     OW 8484   6.647   4.093   3.011  0.0042 -0.1783  0.6283
 2471SOL    HW1 8485   6.702   4.100   2.934  0.2542  1.5549  0.9207
 2471SOL    HW2 8486   6.558   4.086   2.977  0.1478  0.1944  0.1686
 2472SOL     OW 8487   6.855   4.976   2.852 -0.7459  0.0936 -0.3158
 2472SOL    HW1 8488   6.911   4.936   2.919  2.0108  1.6327 -1.5314
 2472SOL    HW2 8489   6.815   5.050   2.896  1.0776  1.1242 -0.2722
 2473SOL     OW 8490   1.166   1.627   2.188 -0.0215  0.5604  0.5166
 2473SOL    HW1 8491   1.157   1.722   2.187  0.7472  0.6349 -0.7427
 2473SOL    HW2 8492   1.082   1.595   2.155  0.0591  0.8419  0.0317
 2474SOL     OW 8493   7.765   1.125   1.867 -0.2289 -0.2965 -0.1451
 2474SOL    HW1 8494   7.704   1.147   1.797 -0.6284  0.8891  0.5407
 2474SOL    HW2 8495   7.830   1.067   1.826 -1.1582 -0.6371 -1.1616
 2475SOL     OW 8496   5.163   2.155   0.662 -0.4439 -0.6063 -0.0418
 2475SOL    HW1 8497   5.172   2.156   0.757  0.0182  1.2473 -0.0665
 2475SOL    HW2 8498   5.233   2.097   0.632  0.0971 -0.3461  0.6952
 2476SOL     OW 8499   7.633   7.748   3.838  0.3664 -0.1445  0.4141
 2476SOL    HW1 8500   7.722   7.773   3.817  0.2723  0.8811  1.1602
 2476SOL    HW2 8501   7.640   7.696   3.918  0.2932 -0.0689  0.4699
 2477SOL     OW 8502   2.200   1.264   1.113 -0.1155 -0.6256 -0.1314
 2477SOL    HW1 8503   2.257   1.265   1.036 -0.7401 -0.1219 -0.5991
 2477SOL    HW2 8504   2.238   1.329   1.172  0.4467 -1.1135  0.0591
 2478SOL     OW 8505   1.425   1.483   7.307  0.2374  0.1220  0.3391
 2478SOL    HW1 8506   1.496   1.436   7.351 -0.5017  0.6414  2.1750
 2478SOL    HW2 8507   1.367   1.414   7.275  1.3498 -0.2966 -0.8813
 2479SOL     OW 8508   6.747   0.926   7.678  0.0610  0.4302  0.4123
 2479SOL    HW1 8509   6.817   0.916   7.614 -0.4505 -2.3630  0.1423
 2479SOL    HW2 8510   6.791   0.923   7.763  0.3538 -0.9975  0.2368
 2480SOL     OW 8511   1.390   1.255   2.620 -0.1374 -0.0870  0.1132
 2480SOL    HW1 8512   1.469   1.222   2.577  1.1762 -1.2410  3.1090
 2480SOL    HW2 8513   1.373   1.192   2.690 -3.7634  0.1522 -0.3721
 2481SOL     OW 8514   3.672   6.863   0.726  0.9127  0.0601  0.3876
 2481SOL    HW1 8515   3.614   6.869   0.802 -1.7359  0.9279 -1.5552
 2481SOL    HW2 8516   3.700   6.772   0.725 -1.4952 -0.7667  0.7349
 2482SOL     OW 8517   3.850   5.227   7.077  0.0636 -0.1390 -0.2469
 2482SOL    HW1 8518   3.826   5.137   7.054 -1.8123  0.1981  0.1709
 2482SOL    HW2 8519   3.786   5.252   7.144  1.7706  0.8689  1.0861
 2483SOL     OW 8520   1.954   7.038   6.662 -0.8963 -0.2237  0.3680
 2483SOL    HW1 8521   2.013   6.995   6.600  0.4628  2.5359 -0.4059
 2483SOL    HW2 8522   1.912   7.108   6.612 -0.2838  1.6540  2.3138
 2484SOL     OW 8523   5.372   3.092   5.203 -0.4018 -0.4218 -0.1292
 2484SOL    HW1 8524   5.379   3.070   5.296  0.2489  1.9526  0.4524
 2484SOL    HW2 8525   5.305   3.161   5.200  0.2236  0.1609 -1.2986
 2485SOL     OW 8526   5.856   7.463   6.422 -0.0877  0.0496  0.0047
 2485SOL    HW1 8527   5.920   7.516   6.469 -2.2245  2.0408  0.9123
 2485SOL    HW2 8528   5.772   7.505   6.441 -1.7615 -2.7130 -0.6726
 2486SOL     OW 8529   7.051   2.173   4.834 -0.5846  0.2241 -0.2773
 2486SOL    HW1 8530   7.012   2.216   4.910 -0.4965  1.4894 -0.9081
 2486SOL    HW2 8531   6.978   2.158   4.775 -0.5528 -0.1498 -0.2236
 2487SOL     OW 8532   2.162   7.393   1.882 -0.0794  0.1338  0.5703
 2487SOL    HW1 8533   2.201   7.306   1.879 -0.4060 -0.2195  3.5684
 2487SOL    HW2 8534   2.067   7.377   1.875 -0.1306  0.2531  0.9724
 2488SOL     OW 8535   0.048   0.993   6.186  0.2495 -0.4195  0.5858
 2488SOL    HW1 8536   0.054   1.019   6.277  0.5701  0.4973  0.3103
 2488SOL    HW2 8537   0.002   1.066   6.143  3.8690  1.2764 -0.7803
 2489SOL     OW 8538   8.050   5.126   7.556  0.2208 -0.3234 -0.0374
 2489SOL    HW1 8539   8.116   5.058   7.569  1.5248  0.8653 -0.1329
 2489SOL    HW2 8540   8.093   5.190   7.499 -0.7589  0.8385  0.4893
 2490SOL     OW 8541   3.817   4.276   2.714 -0.7851  0.4603  0.5934
 2490SOL    HW1 8542   3.839   4.184   2.729  0.5410  0.9934  2.2371
 2490SOL    HW2 8543   3.830   4.318   2.799  1.9051  2.7684 -0.7848
 2491SOL     OW 8544   6.691   4.830   4.316  0.3079  0.1793  0.1249
 2491SOL    HW1 8545   6.660   4.906   4.365  1.6400  1.4434 -0.9087
 2491SOL    HW2 8546   6.670   4.850   4.225 -0.1851 -1.1411 -0.0678
 2492SOL     OW 8547   7.868   2.712   2.853 -0.4848  0.0715  0.7097
 2492SOL    HW1 8548   7.822   2.777   2.801  1.4162  1.0915  0.2421
 2492SOL    HW2 8549   7.906   2.652   2.789  1.2147  0.8956  0.8939
 2493SOL     OW 8550   1.934   0.328   0.831 -0.0547 -0.2985 -0.3227
 2493SOL    HW1 8551   1.857   0.339   0.775  1.2380 -0.9169 -2.3218
 2493SOL    HW2 8552   1.999   0.389   0.795  0.7806 -0.6468  0.5600
 2494SOL     OW 8553   2.646   0.534   1.044  0.3785  0.3898 -0.0096
 2494SOL    HW1 8554   2.709   0.563   1.110 -0.3844  1.3861  0.3136
 2494SOL    HW2 8555   2.567   0.512   1.094 -0.4187  1.7517 -0.6008
 2495SOL     OW 8556   6.293   2.451   3.767  0.6663  0.1039 -0.0904
 2495SOL    HW1 8557   6.323   2.385   3.705  0.8899 -0.7924  0.9451
 2495SOL    HW2 8558   6.200   2.463   3.746  0.6309 -0.5306 -0.3071
 2496SOL     OW 8559   7.034   6.202   6.645  0.2294 -0.0574 -0.4036
 2496SOL    HW1 8560   7.073   6.269   6.589 -1.0809  0.6222 -0.5471
 2496SOL    HW2 8561   7.108   6.151   6.677  1.0874 -0.0141 -2.1765
 2497SOL     OW 8562   5.080   3.614   1.882 -0.0954 -0.7208  0.2558
 2497SOL    HW1 8563   5.056   3.530   1.920 -0.7776  0.1030  1.7508
 2497SOL    HW2 8564   5.128   3.592   1.802 -2.8490 -2.4730 -1.0527
 2498SOL     OW 8565   5.068   7.553   7.633 -0.5082 -0.0760 -0.2599
 2498SOL    HW1 8566   4.983   7.509   7.626  0.2062 -1.5498  0.0643
 2498SOL    HW2 8567   5.132   7.482   7.631  0.7521  1.0411 -0.9521
 2499SOL     OW 8568   0.404   4.870   6.352 -0.1259  0.2750  0.2482
 2499SOL    HW1 8569   0.371   4.782   6.333 -0.6592  0.2416  1.2649
 2499SOL    HW2 8570   0.494   4.869   6.319  0.9811 -1.6920  2.9151
 2500SOL     OW 8571   1.104   1.566   3.847  0.7604  0.2642 -0.0683
 2500SOL    HW1 8572   1.075   1.476   3.860  1.8107 -0.1085 -0.1928
 2500SOL    HW2 8573   1.072   1.613   3.924  2.3411 -0.7630  1.2689
 2501SOL     OW 8574   0.264   5.540   6.764 -0.3610 -0.4339  0.0276
 2501SOL    HW1 8575   0.212   5.540   6.844 -0.0956  0.2549  0.2124
 2501SOL    HW2 8576   0.208   5.581   6.698 -0.7953 -1.5233 -0.2979
 2502SOL     OW 8577   3.494   0.299   3.073 -0.5441  0.1991 -0.3172
 2502SOL    HW1 8578   3.452   0.372   3.028  1.1869  0.6329 -1.3039
 2502SOL    HW2 8579   3.570   0.338   3.117  0.6430 -1.0472 -1.1929
 2503SOL     OW 8580   6.343   5.430   4.796 -0.6550  0.5568 -0.3897
 2503SOL    HW1 8581   6.331   5.525   4.786 -2.6081  0.3313 -0.5399
 2503SOL    HW2 8582   6.255   5.396   4.811  0.0240 -1.2416 -0.2353
 2504SOL     OW 8583   2.874   4.291   3.782 -0.4112 -0.0082 -0.3764
 2504SOL    HW1 8584   2.842   4.347   3.853 -1.1196 -0.5850 -0.2259
 2504SOL    HW2 8585   2.893   4.207   3.824  0.1438 -0.0439 -0.6902
 2505SOL     OW 8586   3.142   3.711   7.467  0.0008 -0.5888 -0.0511
 2505SOL    HW1 8587   3.091   3.746   7.394 -0.1799 -2.3264 -0.7875
 2505SOL    HW2 8588   3.085   3.646   7.507  0.5972 -0.5656  0.8601
 2506SOL     OW 8589   4.596   5.525   5.899  0.2887 -0.3184 -0.1854
 2506SOL    HW1 8590   4.560   5.478   5.824 -0.7635  0.5620 -0.2451
 2506SOL    HW2 8591   4.562   5.479   5.975 -0.4229  0.0876 -0.2474
 2507SOL     OW 8592   1.155   0.411   6.593 -0.1899 -0.4171  0.0945
 2507SOL    HW1 8593   1.189   0.497   6.568 -0.9395 -0.3463 -0.7513
 2507SOL    HW2 8594   1.061   0.426   6.606 -0.2498 -1.0176  0.3816
 2508SOL     OW 8595   0.064   6.776   0.444  0.3598  0.1310  0.1982
 2508SOL    HW1 8596   0.047   6.726   0.524  0.7367 -0.3456 -0.0167
 2508SOL    HW2 8597  -0.009   6.754   0.386 -0.2678  0.9798  0.6344
 2509SOL     OW 8598   1.183   0.023   2.267 -0.0873  0.9758 -0.3033
 2509SOL    HW1 8599   1.088   0.018   2.257 -0.0195  1.7116 -1.4552
 2509SOL    HW2 8600   1.216  -0.055   2.222 -0.2162 -0.3566  1.7971
 2510SOL     OW 8601   5.096   5.510   6.018 -0.9041 -0.3353 -0.1582
 2510SOL    HW1 8602   5.004   5.501   5.995 -1.3386 -2.0566  1.8882
 2510SOL    HW2 8603   5.099   5.490   6.112  1.3868  0.9578  0.1204
 2511SOL     OW 8604   4.048   4.653   3.953 -0.0320  0.1106 -0.3866
 2511SOL    HW1 8605   4.028   4.645   3.860 -1.1113  1.6874 -0.3226
 2511SOL    HW2 8606   4.089   4.740   3.962 -0.3729  0.1797  0.6715
 2512SOL     OW 8607   1.040   6.146   5.218  0.5130  0.8864  0.2555
 2512SOL    HW1 8608   0.998   6.066   5.186 -0.6018  1.9711 -1.1626
 2512SOL    HW2 8609   0.993   6.167   5.299 -0.0709  0.7925 -0.0537
 2513SOL     OW 8610   0.210   5.680   3.934  0.3185  0.4160  0.3627
 2513SOL    HW1 8611   0.289   5.726   3.961 -0.2057  1.7040 -0.2152
 2513SOL    HW2 8612   0.139   5.742   3.950 -0.6972 -1.0171  1.6360
 2514SOL     OW 8613   5.033   3.872   1.770  0.3103 -0.0795 -0.1430
 2514SOL    HW1 8614   5.118   3.909   1.794 -0.3214  0.2097  1.8430
 2514SOL    HW2 8615   5.044   3.778   1.779  0.8141 -0.1572 -1.3664
 2515SOL     OW 8616   5.052   5.058   0.379  0.0533 -0.4706  0.0092
 2515SOL    HW1 8617   5.001   5.089   0.304  0.6704  1.1472  0.2347
 2515SOL    HW2 8618   5.118   5.001   0.340  0.3286  0.3016 -0.6857
 2516SOL     OW 8619   0.165   0.908   2.651 -0.0437  1.0935  0.5738
 2516SOL    HW1 8620   0.083   0.951   2.628  0.1702 -0.2227 -3.3075
 2516SOL    HW2 8621   0.139   0.822   2.685 -0.2816  1.0092  0.1752
 2517SOL     OW 8622   5.145   6.971   1.033  0.3784 -0.5749  0.8539
 2517SOL    HW1 8623   5.170   7.020   1.112  0.6835  0.4697  0.1351
 2517SOL    HW2 8624   5.144   7.037   0.964  0.1587 -1.4843 -0.0305
 2518SOL     OW 8625   0.454   1.502   0.622  0.3527 -0.0414  0.1647
 2518SOL    HW1 8626   0.392   1.455   0.567 -0.3650  0.2697  0.6847
 2518SOL    HW2 8627   0.445   1.594   0.595  2.6178 -0.2875 -1.6948
 2519SOL     OW 8628   7.710   0.009   0.814 -0.3199  0.5806 -0.5671
 2519SOL    HW1 8629   7.801   0.024   0.792 -0.1906  1.0765  0.2333
 2519SOL    HW2 8630   7.702   0.039   0.905 -1.4731  1.3881 -0.9036
 2520SOL     OW 8631   3.974   6.756   6.960 -0.6484 -0.5255 -0.4612
 2520SOL    HW1 8632   4.047   6.710   6.919 -0.5781 -0.2522 -0.6445
 2520SOL    HW2 8633   3.969   6.840   6.914 -2.1490 -1.1804 -1.6072
 2521SOL     OW 8634   5.988   7.640   4.579  0.1182 -0.0607  0.3079
 2521SOL    HW1 8635   6.023   7.616   4.665  0.5082 -0.4081  0.0606
 2521SOL    HW2 8636   5.903   7.596   4.575  1.0490 -1.8960 -0.3425
 2522SOL     OW 8637   5.530   5.326   6.311 -0.3883  0.0602  0.4608
 2522SOL    HW1 8638   5.509   5.290   6.397  0.4924  2.3886  1.7227
 2522SOL    HW2 8639   5.508   5.419   6.317  1.2663  0.6269 -1.2633
 2523SOL     OW 8640   3.235   2.715   4.704  0.0775 -0.3368  0.1573
 2523SOL    HW1 8641   3.235   2.736   4.797 -0.8516 -0.4462  0.1916
 2523SOL    HW2 8642   3.297   2.643   4.695  1.2458  0.6013  0.4585
 2524SOL     OW 8643   1.371   2.449   1.677  0.0275  0.1704 -0.3866
 2524SOL    HW1 8644   1.452   2.499   1.680 -0.3845  0.7834  1.8107
 2524SOL    HW2 8645   1.380   2.383   1.746 -0.6470 -0.9047 -1.2913
 2525SOL     OW 8646   4.447   5.532   7.032 -0.3127 -0.1247  0.3234
 2525SOL    HW1 8647   4.369   5.553   7.084 -0.1330 -0.1370  0.6037
 2525SOL    HW2 8648   4.419   5.465   6.971 -0.2711 -0.8900  1.1181
 2526SOL     OW 8649   4.064   7.785   2.275  0.3636  0.6635 -0.3815
 2526SOL    HW1 8650   4.114   7.706   2.253 -2.4879 -1.5099  0.4027
 2526SOL    HW2 8651   4.067   7.838   2.196  0.3541 -1.3820 -1.8190
 2527SOL     OW 8652   6.014   3.560   1.568 -0.6895  1.1438  0.1576
 2527SOL    HW1 8653   5.974   3.593   1.648  2.8153  3.4327  1.1863
 2527SOL    HW2 8654   5.979   3.616   1.498 -2.4461  0.2666  0.2996
 2528SOL     OW 8655   1.495   4.126   5.634  0.4148 -0.1160  0.8634
 2528SOL    HW1 8656   1.540   4.060   5.686 -0.4852 -1.6075 -0.1835
 2528SOL    HW2 8657   1.438   4.076   5.575 -1.9319  1.6263  1.4790
 2529SOL     OW 8658   2.520   6.782   2.012 -0.4291  0.5734 -0.0762
 2529SOL    HW1 8659   2.431   6.803   2.039 -0.8883 -1.3106 -0.0437
 2529SOL    HW2 8660   2.512   6.701   1.961  1.6914 -2.6001  4.0303
 2530SOL     OW 8661   3.440   3.553   1.991 -0.0877  0.3560 -0.0147
 2530SOL    HW1 8662   3.460   3.556   1.898  2.2338 -1.8479  0.3035
 2530SOL    HW2 8663   3.508   3.606   2.033 -1.1848  1.4379  0.4810
 2531SOL     OW 8664   0.460   0.091   7.394  0.6843  0.1801  0.2236
 2531SOL    HW1 8665   0.390   0.106   7.457 -0.4707  0.3051 -1.0435
 2531SOL    HW2 8666   0.539   0.123   7.438  1.2946 -5.4080  4.2430
 2532SOL     OW 8667   0.351   4.215   5.733  0.2861  0.5047 -0.7354
 2532SOL    HW1 8668   0.340   4.120   5.733  0.1636  0.4948  0.7180
 2532SOL    HW2 8669   0.286   4.246   5.796  0.6148  1.5250 -0.8879
 2533SOL     OW 8670   4.471   1.143   4.287  0.2347  0.2685  0.1240
 2533SOL    HW1 8671   4.560   1.118   4.312 -0.3319  0.1009  2.1398
 2533SOL    HW2 8672   4.434   1.065   4.245  0.8512  0.1687 -0.2440
 2534SOL     OW 8673   0.336   6.973   4.064  0.1189  0.6727  0.4362
 2534SOL    HW1 8674   0.251   6.952   4.025  0.2177  1.8567 -0.4835
 2534SOL    HW2 8675   0.343   6.914   4.139 -0.4403 -1.1134 -0.8477
 2535SOL     OW 8676   1.404   6.769   6.211 -0.0881 -0.0221  0.4655
 2535SOL    HW1 8677   1.497   6.753   6.192 -0.1492  0.1817 -0.0227
 2535SOL    HW2 8678   1.359   6.743   6.131 -0.3413  1.0067  0.2627
 2536SOL     OW 8679   0.682   5.885   7.230  0.6700  0.2267 -0.6988
 2536SOL    HW1 8680   0.777   5.877   7.239  0.6248 -3.9615 -2.0043
 2536SOL    HW2 8681   0.665   5.865   7.138 -1.5174  0.8263 -0.4761
 2537SOL     OW 8682   1.213   0.553   0.004  0.0691 -0.2438 -0.0172
 2537SOL    HW1 8683   1.277   0.599   0.058  0.7411 -0.5125 -0.5748
 2537SOL    HW2 8684   1.244   0.462   0.003 -0.0230 -0.2675 -0.7316
 2538SOL     OW 8685   7.135   4.038   1.271 -0.2548  0.2924  0.3975
 2538SOL    HW1 8686   7.049   4.030   1.311 -1.0319  4.6514  0.0800
 2538SOL    HW2 8687   7.186   4.089   1.334  1.0705  0.4858 -0.7765
 2539SOL     OW 8688   1.833   6.066   0.015  0.0868  0.1496 -0.2270
 2539SOL    HW1 8689   1.821   6.007  -0.059  0.9058 -0.4461  0.0980
 2539SOL    HW2 8690   1.812   6.153  -0.019 -0.4977 -0.2441 -0.8873
 2540SOL     OW 8691   3.075   0.824   8.134  0.5773  0.0657 -0.5931
 2540SOL    HW1 8692   3.148   0.764   8.145  0.9250  0.8423  1.9915
 2540SOL    HW2 8693   3.016   0.804   8.206 -0.4425  1.2364 -1.0677
 2541SOL     OW 8694   5.788   6.184   5.055  0.1640 -0.3494 -0.5876
 2541SOL    HW1 8695   5.869   6.170   5.104  0.4741  1.2796 -0.6078
 2541SOL    HW2 8696   5.753   6.267   5.088 -1.1429 -0.6704 -1.0751
 2542SOL     OW 8697   0.558   8.025   0.252 -0.2684  0.6141 -0.0484
 2542SOL    HW1 8698   0.482   7.998   0.202 -0.6135  1.3831  0.0514
 2542SOL    HW2 8699   0.601   7.943   0.277 -0.2025  0.2141 -1.4183
 2543SOL     OW 8700   0.464   1.790   2.753 -0.0359  0.4788  0.3223
 2543SOL    HW1 8701   0.391   1.788   2.692  0.1288 -0.0031  0.1399
 2543SOL    HW2 8702   0.469   1.882   2.782 -1.2151  0.3599  0.9494
 2544SOL     OW 8703   1.508   6.345   1.778 -0.1608  0.4364 -0.7440
 2544SOL    HW1 8704   1.505   6.366   1.872 -0.6328  0.1852 -0.6957
 2544SOL    HW2 8705   1.600   6.350   1.755  0.7437 -3.9743  0.7884
 2545SOL     OW 8706   0.206   7.450   1.514 -0.8557 -0.4766  0.4185
 2545SOL    HW1 8707   0.289   7.401   1.513  0.3617  1.3532 -2.5322
 2545SOL    HW2 8708   0.189   7.467   1.606  3.1094  0.6440  1.1347
 2546SOL     OW 8709   5.423   2.994   2.273  0.1325  0.0588 -0.6135
 2546SOL    HW1 8710   5.422   2.912   2.224 -0.7236 -1.3107  1.5470
 2546SOL    HW2 8711   5.483   2.979   2.346  3.2949  2.8686 -2.3362
 2547SOL     OW 8712   5.202   7.551   0.152 -0.0068 -0.4420 -0.3574
 2547SOL    HW1 8713   5.179   7.597   0.070  0.4331  0.0499 -0.2102
 2547SOL    HW2 8714   5.230   7.621   0.211 -2.1455 -0.5428  0.8830
 2548SOL     OW 8715   2.128   2.802   0.848  0.3539  0.4203  0.0633
 2548SOL    HW1 8716   2.110   2.829   0.758 -0.4606  0.3864  0.2080
 2548SOL    HW2 8717   2.223   2.807   0.856  0.3925  0.9492 -0.6322
 2549SOL     OW 8718   5.936   0.641   2.376  0.4054 -0.6122  0.8881
 2549SOL    HW1 8719   5.911   0.581   2.306 -0.8389 -0.5381  1.2421
 2549SOL    HW2 8720   5.896   0.603   2.455 -0.4463  0.6828  1.1166
 2550SOL     OW 8721   1.129   5.408   3.863 -0.4124  0.3514  0.3596
 2550SOL    HW1 8722   1.154   5.428   3.953 -0.5140 -1.5029  0.8407
 2550SOL    HW2 8723   1.178   5.328   3.841 -1.5745 -0.1195 -0.6645
 2551SOL     OW 8724   7.072   5.151   5.728  0.4010 -0.4272 -0.4724
 2551SOL    HW1 8725   7.134   5.081   5.747  1.2139  0.5699  0.7236
 2551SOL    HW2 8726   7.085   5.171   5.635  1.5695 -0.5396 -0.3487
 2552SOL     OW 8727   3.499   5.584   0.437  0.1887 -0.1493 -0.1447
 2552SOL    HW1 8728   3.491   5.489   0.445 -3.7358  0.0299  0.1516
 2552SOL    HW2 8729   3.421   5.618   0.481  0.2472  3.1074 -2.2018
 2553SOL     OW 8730   2.336   2.996   4.976  0.7864  0.5205  0.0730
 2553SOL    HW1 8731   2.348   2.905   5.001  3.2238  0.7009 -0.1997
 2553SOL    HW2 8732   2.333   3.044   5.059  1.0846  0.3467  0.1845
 2554SOL     OW 8733   1.669   3.215   2.762 -0.4224  0.0503 -0.0550
 2554SOL    HW1 8734   1.649   3.146   2.699 -1.8693 -0.3670  0.8044
 2554SOL    HW2 8735   1.583   3.251   2.786 -0.1352 -0.9796  2.9449
 2555SOL     OW 8736   0.407   6.370   2.939 -0.2826  0.0195  0.5703
 2555SOL    HW1 8737   0.443   6.282   2.924 -1.2858 -0.0794 -1.7344
 2555SOL    HW2 8738   0.338   6.357   3.004 -0.3383 -0.8944  0.3419
 2556SOL     OW 8739   1.833   1.523   1.682 -0.8050  0.9190 -0.6214
 2556SOL    HW1 8740   1.759   1.574   1.649 -0.1969  1.4552 -1.1856
 2556SOL    HW2 8741   1.883   1.585   1.735  0.1611  1.0440 -1.6429
 2557SOL     OW 8742   8.074   3.565   0.812 -0.5067 -0.1268 -0.0219
 2557SOL    HW1 8743   8.062   3.552   0.718  1.0888  1.2673 -0.4874
 2557SOL    HW2 8744   8.060   3.479   0.851  1.4000 -1.3718 -1.8537
 2558SOL     OW 8745   6.366   2.201   5.540  0.6870  0.3619  0.3028
 2558SOL    HW1 8746   6.446   2.227   5.586  0.1873  1.1550  0.7666
 2558SOL    HW2 8747   6.298   2.202   5.609 -0.1503  1.9346 -0.4814
 2559SOL     OW 8748   0.876   3.176   2.746  0.4904 -0.7033  0.0885
 2559SOL    HW1 8749   0.959   3.201   2.788 -0.3911  2.2254  0.3625
 2559SOL    HW2 8750   0.812   3.175   2.818 -0.3355  0.7013 -0.5756
 2560SOL     OW 8751   5.021   4.392   5.142  0.4137  0.8604  0.6762
 2560SOL    HW1 8752   4.952   4.326   5.142 -1.4961  2.7485  0.1268
 2560SOL    HW2 8753   5.077   4.368   5.216 -1.4592 -0.1460  1.8465
 2561SOL     OW 8754   2.754   6.995   3.515  0.4758  0.4481  0.0588
 2561SOL    HW1 8755   2.722   6.990   3.425  1.0658  0.7534 -0.1708
 2561SOL    HW2 8756   2.806   6.916   3.527  0.0159  0.1764  0.2860
 2562SOL     OW 8757   7.978   2.159   2.580 -0.3097 -0.2025 -0.4070
 2562SOL    HW1 8758   7.938   2.229   2.530  0.8148  2.0646  1.6527
 2562SOL    HW2 8759   8.042   2.203   2.636 -1.0731 -2.5742  2.5939
 2563SOL     OW 8760   2.763   7.253   7.611 -0.1824 -0.4660  0.0303
 2563SOL    HW1 8761   2.799   7.165   7.606  3.1654  0.8456 -2.3593
 2563SOL    HW2 8762   2.791   7.286   7.696  2.2432 -0.4115 -0.7120
 2564SOL     OW 8763   7.705   7.282   3.523  0.4593 -0.2569  0.3179
 2564SOL    HW1 8764   7.679   7.203   3.477  1.7162  0.3423 -1.5254
 2564SOL    HW2 8765   7.790   7.261   3.562  0.1950 -0.2090  0.9338
 2565SOL     OW 8766   5.423   7.418   0.405  0.3699  0.6561 -0.5550
 2565SOL    HW1 8767   5.353   7.456   0.457 -1.8929 -3.5899 -0.1223
 2565SOL    HW2 8768   5.497   7.409   0.466 -0.1968  1.1828  0.2234
 2566SOL     OW 8769   2.029   1.015   0.643  0.2654  0.5851  0.4032
 2566SOL    HW1 8770   2.024   1.001   0.737  0.8088 -0.6140  0.2707
 2566SOL    HW2 8771   2.070   1.101   0.634  0.0948  0.7645  1.2582
 2567SOL     OW 8772   2.229   2.316   6.428  0.2162  0.4182 -0.0731
 2567SOL    HW1 8773   2.156   2.377   6.418  0.0429  0.1892 -0.2034
 2567SOL    HW2 8774   2.206   2.241   6.373  0.8479  0.6178 -0.6236
 2568SOL     OW 8775   3.959   0.141   5.895  0.4343  0.5310 -0.4643
 2568SOL    HW1 8776   3.911   0.088   5.832  0.8326 -0.2422 -0.1333
 2568SOL    HW2 8777   3.897   0.209   5.922 -0.7626 -0.9008  0.5481
 2569SOL     OW 8778   6.491   6.588   1.896 -0.7070 -0.4423  0.5634
 2569SOL    HW1 8779   6.508   6.521   1.830 -0.0353 -1.6900  1.9413
 2569SOL    HW2 8780   6.568   6.645   1.893 -0.7816 -0.3609  0.1356
 2570SOL     OW 8781   6.585   7.051   6.701 -0.2271 -0.1693  0.0681
 2570SOL    HW1 8782   6.497   7.071   6.670 -0.2616  0.1768  0.3910
 2570SOL    HW2 8783   6.634   7.132   6.690 -0.8086  0.6938  2.9888
 2571SOL     OW 8784   1.370   3.437   1.918  0.2375  0.3684 -0.2995
 2571SOL    HW1 8785   1.301   3.503   1.908 -0.3509 -0.4342 -1.9478
 2571SOL    HW2 8786   1.385   3.405   1.829  0.8745 -1.3440  0.3880
 2572SOL     OW 8787   4.833   2.235   7.560  0.5309 -1.0337 -0.4459
 2572SOL    HW1 8788   4.901   2.188   7.609  0.3196 -1.2263 -0.3352
 2572SOL    HW2 8789   4.880   2.304   7.514  0.5013  0.3597  1.5011
 2573SOL     OW 8790   2.020   7.990   1.820 -0.0948  0.1589  0.2039
 2573SOL    HW1 8791   2.088   8.057   1.816 -0.6087  0.6394 -1.2960
 2573SOL    HW2 8792   1.961   8.011   1.748  0.0293 -2.2375 -0.7012
 2574SOL     OW 8793   6.734   4.519   1.711  0.2967 -0.1194 -0.2421
 2574SOL    HW1 8794   6.753   4.559   1.796 -1.6123  0.1500  0.1059
 2574SOL    HW2 8795   6.728   4.593   1.650 -1.0449 -0.0587 -0.0466
 2575SOL     OW 8796   5.985   5.930   0.978  0.0823  0.2983 -0.1580
 2575SOL    HW1 8797   6.075   5.952   0.954 -0.0044 -0.3040 -1.0597
 2575SOL    HW2 8798   5.990   5.839   1.008 -0.1447  0.4232  0.2605
 2576SOL     OW 8799   4.940   1.905   5.218 -0.3731  0.1571 -0.1515
 2576SOL    HW1 8800   4.984   1.939   5.141  0.3346  0.3627  0.3383
 2576SOL    HW2 8801   4.953   1.971   5.286 -1.0792  0.0307  0.1235
 2577SOL     OW 8802   5.883   1.200   4.211  0.3232 -0.4460  0.2847
 2577SOL    HW1 8803   5.865   1.114   4.173 -2.0882  0.4976 -0.9201
 2577SOL    HW2 8804   5.901   1.257   4.136 -0.5658  0.5944  0.8160
 2578SOL     OW 8805   2.504   6.014   0.835  0.2611 -0.2401  0.2724
 2578SOL    HW1 8806   2.544   6.095   0.805 -0.5172 -0.6581 -2.0994
 2578SOL    HW2 8807   2.578   5.959   0.862  0.9024  0.6343  0.3450
 2579SOL     OW 8808   2.389   7.953   2.898 -0.3187  0.0930 -0.0012
 2579SOL    HW1 8809   2.402   7.943   2.992 -0.5844 -0.6370 -0.0325
 2579SOL    HW2 8810   2.296   7.933   2.885 -0.9864  2.8354 -0.0776
 2580SOL     OW 8811   2.261   4.258   3.280 -0.2335  0.2501  0.1291
 2580SOL    HW1 8812   2.174   4.280   3.312 -0.7423  0.5505 -1.3801
 2580SOL    HW2 8813   2.305   4.342   3.268  0.2927  0.1000  0.8804
 2581SOL     OW 8814   5.664   5.495   7.017  0.1231  0.2138 -0.1373
 2581SOL    HW1 8815   5.688   5.582   6.985 -0.3370  0.0951 -0.8237
 2581SOL    HW2 8816   5.674   5.438   6.941 -1.7565  0.0603 -0.3121
 2582SOL     OW 8817   5.209   7.729   7.246 -0.1694  0.4199  0.5316
 2582SOL    HW1 8818   5.123   7.739   7.204  0.5942 -0.6544 -1.3943
 2582SOL    HW2 8819   5.270   7.767   7.183  1.1059 -1.8976  0.3031
 2583SOL     OW 8820   6.904   4.179   4.410 -0.3171  0.1040  0.0702
 2583SOL    HW1 8821   6.939   4.181   4.321  1.4354  1.8946  0.6968
 2583SOL    HW2 8822   6.809   4.173   4.399 -0.2258  1.2893 -1.9754
 2584SOL     OW 8823   5.534   7.573   1.400 -0.1952 -0.0135 -0.0475
 2584SOL    HW1 8824   5.575   7.593   1.484  0.1322  0.1617 -0.2466
 2584SOL    HW2 8825   5.594   7.609   1.335  0.9685 -2.5561 -0.4774
 2585SOL     OW 8826   2.779   5.245   5.101 -0.1025 -0.3146 -0.3141
 2585SOL    HW1 8827   2.859   5.258   5.152  0.1328  2.2263 -1.2011
 2585SOL    HW2 8828   2.808   5.201   5.021  0.8414  2.2493 -1.4925
 2586SOL     OW 8829   3.376   7.233   6.959 -0.3050  0.3706 -0.5703
 2586SOL    HW1 8830   3.351   7.278   7.040  0.4987  3.4280 -1.8900
 2586SOL    HW2 8831   3.458   7.188   6.982 -1.4319 -1.0325  0.9543
 2587SOL     OW 8832   7.420   2.636   1.179  0.3138 -0.0869  0.1388
 2587SOL    HW1 8833   7.384   2.590   1.255  0.6113 -1.4818 -0.5220
 2587SOL    HW2 8834   7.385   2.589   1.104  0.1062  1.2098 -0.6043
 2588SOL     OW 8835   0.810   7.596   7.257 -0.2135  0.2949  0.2241
 2588SOL    HW1 8836   0.828   7.686   7.227  0.7037  0.0239 -0.0615
 2588SOL    HW2 8837   0.768   7.554   7.183 -2.5183  1.0422  1.0208
 2589SOL     OW 8838   3.507   4.253   0.720  0.0900 -0.5815  0.5006
 2589SOL    HW1 8839   3.478   4.337   0.755 -0.8315 -1.2407  1.3777
 2589SOL    HW2 8840   3.501   4.193   0.794  2.3816 -1.0961  0.3610
 2590SOL     OW 8841   1.118   5.609   6.767 -0.2333  0.4076  0.2695
 2590SOL    HW1 8842   1.098   5.626   6.859 -0.3614 -0.0232  0.3229
 2590SOL    HW2 8843   1.200   5.655   6.750 -0.5442  1.0288  0.4268
 2591SOL     OW 8844   5.799   5.122   3.466  0.1128  0.9954  0.2739
 2591SOL    HW1 8845   5.838   5.172   3.537  0.9517  1.0417 -0.2002
 2591SOL    HW2 8846   5.862   5.051   3.449 -0.7540  0.1420  0.5213
 2592SOL     OW 8847   3.730   6.024   2.771 -0.0525  0.2257 -0.2567
 2592SOL    HW1 8848   3.719   6.072   2.688  0.0042  1.2676  0.3170
 2592SOL    HW2 8849   3.716   6.090   2.838  0.5889 -0.4592  0.5674
 2593SOL     OW 8850   7.070   0.759   6.929 -0.3865  0.5165 -0.2492
 2593SOL    HW1 8851   6.996   0.751   6.989 -0.0795  0.1766  0.0964
 2593SOL    HW2 8852   7.120   0.833   6.962  1.0598 -1.0629  1.3879
 2594SOL     OW 8853   4.708   6.271   6.994  0.1882  0.1311 -0.2462
 2594SOL    HW1 8854   4.636   6.208   6.985  0.2031 -0.1779  1.4214
 2594SOL    HW2 8855   4.786   6.221   6.969  0.0506 -0.1324 -0.1596
 2595SOL     OW 8856   2.751   6.037   1.192 -0.1455 -0.6529 -0.5275
 2595SOL    HW1 8857   2.752   6.115   1.137 -1.2003 -1.6300 -2.0010
 2595SOL    HW2 8858   2.684   6.055   1.258  0.8824  0.3841  0.2831
 2596SOL     OW 8859   5.260   6.863   2.676 -0.6884 -0.5744 -0.7432
 2596SOL    HW1 8860   5.310   6.918   2.735 -2.5716 -1.5906  1.9793
 2596SOL    HW2 8861   5.243   6.918   2.600  1.1901  1.0417 -0.0818
 2597SOL     OW 8862   4.248   2.918   1.937  0.0168  0.0930 -0.2612
 2597SOL    HW1 8863   4.162   2.907   1.898 -0.7994  0.8563  1.2409
 2597SOL    HW2 8864   4.234   2.976   2.012  1.9190  0.6675 -0.2791
 2598SOL     OW 8865   8.042   2.126   0.046  0.4061  0.0424  0.4258
 2598SOL    HW1 8866   8.105   2.101  -0.021 -0.0908  0.4150 -0.1950
 2598SOL    HW2 8867   7.974   2.058   0.042  0.9723 -0.6065  1.4006
 2599SOL     OW 8868   3.789   5.907   2.142 -0.6515 -0.3624  0.1692
 2599SOL    HW1 8869   3.795   5.906   2.047  1.6830  2.0231  0.1810
 2599SOL    HW2 8870   3.834   5.827   2.170 -0.3259 -0.4958 -0.7135
 2600SOL     OW 8871   3.869   1.819   1.405  0.0839  0.5604 -0.3727
 2600SOL    HW1 8872   3.934   1.752   1.387 -0.2865 -0.0474  0.5055
 2600SOL    HW2 8873   3.893   1.854   1.491  0.2960  1.5947 -0.8329
 2601SOL     OW 8874   6.340   7.318   2.580  0.4053  0.0206  0.1161
 2601SOL    HW1 8875   6.245   7.311   2.578  0.4178 -0.1784 -1.6425
 2601SOL    HW2 8876   6.369   7.247   2.637 -0.5169  0.6943  1.4735
 2602SOL     OW 8877   7.843   4.260   6.770 -0.1843 -0.1179 -0.0700
 2602SOL    HW1 8878   7.800   4.340   6.801 -1.2073 -0.9560  0.7906
 2602SOL    HW2 8879   7.862   4.277   6.678  1.6198  1.9130  0.5905
 2603SOL     OW 8880   6.462   5.332   7.695  0.0815  0.3205  0.4361
 2603SOL    HW1 8881   6.470   5.275   7.619 -0.3263  1.9362 -0.8780
 2603SOL    HW2 8882   6.424   5.276   7.763  0.8245 -1.2628 -0.3970
 2604SOL     OW 8883   7.876   3.255   6.501  0.2170  0.4911 -0.0630
 2604SOL    HW1 8884   7.812   3.319   6.531 -0.6530 -1.0162  1.4427
 2604SOL    HW2 8885   7.927   3.302   6.435 -2.6520  1.6577 -1.6474
 2605SOL     OW 8886   0.832   3.454   5.568 -0.3210 -0.5638 -0.2653
 2605SOL    HW1 8887   0.788   3.539   5.569 -0.7235 -0.7107 -1.9445
 2605SOL    HW2 8888   0.767   3.393   5.604 -1.0010 -0.5519 -1.4251
 2606SOL     OW 8889   3.282   0.317   0.866  0.2903 -0.1344 -0.7411
 2606SOL    HW1 8890   3.229   0.250   0.823 -0.7765  0.3100 -0.1574
 2606SOL    HW2 8891   3.358   0.270   0.901 -1.6874 -1.5917  1.9496
 2607SOL     OW 8892   6.904   1.213   8.072 -0.3074 -0.8424 -0.0644
 2607SOL    HW1 8893   6.922   1.285   8.132 -1.8143 -0.8278  0.4032
 2607SOL    HW2 8894   6.945   1.239   7.990 -0.1021  0.1452  0.3404
 2608SOL     OW 8895   1.987   1.086   6.905  0.1373 -0.2232 -0.1045
 2608SOL    HW1 8896   2.052   1.018   6.889  1.9183  1.5981 -1.0451
 2608SOL    HW2 8897   2.038   1.167   6.911 -2.1527  1.6156 -2.9677
 2609SOL     OW 8898   5.808   7.938   4.964 -0.1454 -0.4469 -0.1669
 2609SOL    HW1 8899   5.832   8.017   4.915  0.5180 -0.5402  0.0073
 2609SOL    HW2 8900   5.752   7.970   5.035 -0.0314 -0.1618 -0.2047
 2610SOL     OW 8901   3.958   5.428   6.849 -0.0272 -0.2148  0.6314
 2610SOL    HW1 8902   3.973   5.520   6.873 -0.4249 -0.3472  1.4307
 2610SOL    HW2 8903   3.894   5.397   6.913  0.2691 -1.1176  0.5018
 2611SOL     OW 8904   0.229   2.341   6.703  0.2178 -0.2816 -0.1387
 2611SOL    HW1 8905   0.236   2.249   6.674  1.1022  0.0224 -0.9611
 2611SOL    HW2 8906   0.166   2.339   6.775 -0.0593 -1.4827 -0.3906
 2612SOL     OW 8907   2.913   4.812   3.096  0.2424  0.2780  0.0688
 2612SOL    HW1 8908   2.972   4.737   3.108 -1.0973 -0.6717  1.0103
 2612SOL    HW2 8909   2.953   4.862   3.024  2.3767 -0.1109  0.8928
 2613SOL     OW 8910   7.663   4.997   2.840 -0.2310 -0.1997  0.3373
 2613SOL    HW1 8911   7.756   5.020   2.838 -0.3470  0.2417 -0.7213
 2613SOL    HW2 8912   7.618   5.081   2.827 -0.7687 -0.4880  0.3454
 2614SOL     OW 8913   0.552   5.808   6.252 -0.6040  0.2808  0.3816
 2614SOL    HW1 8914   0.626   5.797   6.193  0.1549  1.2475  1.1282
 2614SOL    HW2 8915   0.543   5.724   6.296 -0.6733 -0.1909 -0.5055
 2615SOL     OW 8916   0.273   4.199   3.144  0.1853  0.2057  0.6398
 2615SOL    HW1 8917   0.296   4.291   3.140 -0.8101  0.4830  1.0029
 2615SOL    HW2 8918   0.240   4.186   3.234  1.5509 -0.8070  1.0234
 2616SOL     OW 8919   5.622   1.909   5.859 -0.4275  0.4074  0.1949
 2616SOL    HW1 8920   5.682   1.914   5.933  0.7425  1.4861 -0.7877
 2616SOL    HW2 8921   5.615   1.815   5.841  0.4805  0.2232  0.7264
 2617SOL     OW 8922   6.293   6.031   8.159 -0.2879  0.0360  0.3396
 2617SOL    HW1 8923   6.329   6.075   8.236 -0.1288  0.2245  0.1595
 2617SOL    HW2 8924   6.362   5.973   8.129 -0.5861 -0.5263  0.7211
 2618SOL     OW 8925   3.962   6.873   0.442 -0.4430 -0.0470  0.6265
 2618SOL    HW1 8926   3.948   6.968   0.442  0.9761  0.2334  2.7704
 2618SOL    HW2 8927   4.001   6.855   0.528 -1.9967 -2.7872  0.8693
 2619SOL     OW 8928   3.283   6.869   5.807 -0.0690  0.2010 -0.4971
 2619SOL    HW1 8929   3.253   6.797   5.750 -0.0775  0.6702 -1.0922
 2619SOL    HW2 8930   3.277   6.947   5.752 -3.6968  1.3463  1.1633
 2620SOL     OW 8931   3.677   4.878   3.496  0.0978  0.0474  0.5525
 2620SOL    HW1 8932   3.665   4.971   3.476 -0.1639 -0.3324 -1.1729
 2620SOL    HW2 8933   3.767   4.859   3.469  0.4635 -0.0329  1.7326
 2621SOL     OW 8934   1.086   1.828   3.984  0.3856  0.2241  0.1743
 2621SOL    HW1 8935   0.999   1.799   3.955  0.2980 -0.0749  0.7251
 2621SOL    HW2 8936   1.071   1.868   4.070  0.5464  1.6641 -0.4350
 2622SOL     OW 8937   0.850   5.894   6.768 -0.0402 -0.4763 -0.1684
 2622SOL    HW1 8938   0.919   5.847   6.815 -0.0730  0.7465  1.1498
 2622SOL    HW2 8939   0.895   5.934   6.693  0.3702 -0.9043 -0.1593
 2623SOL     OW 8940   5.854   4.941   3.200 -0.2853 -0.3987 -0.7690
 2623SOL    HW1 8941   5.848   5.036   3.196  0.4391 -0.3651 -1.4407
 2623SOL    HW2 8942   5.866   4.914   3.109  3.4692 -0.7889 -0.3308
 2624SOL     OW 8943   0.399   4.562   5.539  0.0601 -0.0380  0.5532
 2624SOL    HW1 8944   0.357   4.537   5.457  0.2708  0.0043  0.4318
 2624SOL    HW2 8945   0.459   4.633   5.515  0.1610 -0.0603  0.7339
 2625SOL     OW 8946   5.524   2.302   0.073  0.0825  0.3637 -0.2330
 2625SOL    HW1 8947   5.581   2.290   0.149  0.4021  0.4726 -0.4544
 2625SOL    HW2 8948   5.581   2.338   0.005 -0.1122 -0.0989 -0.6505
 2626SOL     OW 8949   7.637   2.985   1.102 -0.1988 -0.5110  0.6784
 2626SOL    HW1 8950   7.606   2.953   1.187 -1.1480  0.1359  0.5898
 2626SOL    HW2 8951   7.668   3.074   1.121  1.5036 -1.0768  0.7311
 2627SOL     OW 8952   2.072   6.826   3.775 -0.2824 -0.4261 -0.5453
 2627SOL    HW1 8953   2.089   6.780   3.693  0.1213 -0.3801 -0.4884
 2627SOL    HW2 8954   2.158   6.852   3.807 -0.2349 -2.0742  0.8496
 2628SOL     OW 8955   3.150   6.287   3.270  0.3288  0.0663  0.2097
 2628SOL    HW1 8956   3.109   6.372   3.282 -1.6519 -0.6220 -1.2354
 2628SOL    HW2 8957   3.103   6.229   3.329 -0.2682 -0.5650 -0.8497
 2629SOL     OW 8958   2.572   5.590   1.626  0.6951  0.2187  0.0643
 2629SOL    HW1 8959   2.662   5.603   1.596  0.9707 -0.9619  0.3646
 2629SOL    HW2 8960   2.520   5.597   1.546  1.2501 -1.0889 -0.4316
 2630SOL     OW 8961   7.565   6.133   1.465  0.5077  0.1915  0.1456
 2630SOL    HW1 8962   7.511   6.132   1.544  1.1008  1.2160  0.5796
 2630SOL    HW2 8963   7.542   6.052   1.419  1.0146 -1.0314  1.9424
 2631SOL     OW 8964   2.020   6.962   7.815 -0.5216 -0.9395  0.0932
 2631SOL    HW1 8965   1.925   6.955   7.814 -0.6310 -0.1027  1.6377
 2631SOL    HW2 8966   2.047   6.944   7.725 -2.3629  1.8793 -1.1449
 2632SOL     OW 8967   0.951   0.767   7.565 -0.0273  0.5551 -0.6250
 2632SOL    HW1 8968   1.030   0.813   7.539  0.3232  0.4870  0.2854
 2632SOL    HW2 8969   0.882   0.806   7.511  0.8248 -0.3885 -2.4859
 2633SOL     OW 8970   5.779   7.429   4.856  0.3998 -0.7119  0.0645
 2633SOL    HW1 8971   5.809   7.398   4.771 -0.8605 -1.9188  0.0243
 2633SOL    HW2 8972   5.756   7.521   4.842  1.5521 -0.4990 -0.5164
 2634SOL     OW 8973   0.547   7.034   2.718 -0.1810  0.4290  0.7918
 2634SOL    HW1 8974   0.485   7.106   2.727  0.1127  0.5899  1.7564
 2634SOL    HW2 8975   0.494   6.955   2.724 -0.6180  0.5348 -1.1624
 2635SOL     OW 8976   5.353   7.327   4.968 -0.1440 -0.2285 -0.3872
 2635SOL    HW1 8977   5.333   7.233   4.975  0.2651 -0.3958 -1.2432
 2635SOL    HW2 8978   5.365   7.341   4.874  0.0805  0.6290 -0.2362
 2636SOL     OW 8979   4.253   8.038   4.913  0.0342  0.2034 -0.4681
 2636SOL    HW1 8980   4.263   8.126   4.949  1.1808  0.1350 -0.5718
 2636SOL    HW2 8981   4.203   8.050   4.833  1.0147  0.8928 -0.9933
 2637SOL     OW 8982   0.018   4.303   0.249  0.0118 -0.3030 -0.7381
 2637SOL    HW1 8983  -0.004   4.388   0.288 -0.5322 -0.8926  0.3083
 2637SOL    HW2 8984   0.016   4.319   0.155 -1.4173  0.5524 -0.6095
 2638SOL     OW 8985   5.286   0.408   2.983 -0.2072 -0.3582  0.9889
 2638SOL    HW1 8986   5.195   0.378   2.983 -0.3473 -0.5012 -3.1975
 2638SOL    HW2 8987   5.329   0.354   2.916  2.1922  1.7000  0.7397
 2639SOL     OW 8988   7.341   5.537   5.518  0.5222 -0.4096 -0.1925
 2639SOL    HW1 8989   7.429   5.568   5.537 -0.5663  2.3016  0.9556
 2639SOL    HW2 8990   7.293   5.615   5.491 -1.5728 -1.7697 -0.6466
 2640SOL     OW 8991   0.134   7.812   4.733 -0.0207  0.4817 -0.3187
 2640SOL    HW1 8992   0.221   7.773   4.743 -0.3565 -0.2665 -0.2411
 2640SOL    HW2 8993   0.113   7.847   4.820  0.7864  1.9412 -0.6840
 2641SOL     OW 8994   3.433   3.510   6.375  0.3810  0.4195 -0.3802
 2641SOL    HW1 8995   3.343   3.538   6.356  0.2828 -0.3227 -1.0727
 2641SOL    HW2 8996   3.446   3.434   6.319  0.5491 -1.0743  1.5971
 2642SOL     OW 8997   5.138   4.989   0.015 -0.4254 -0.6209  0.6008
 2642SOL    HW1 8998   5.091   4.911   0.042  0.7954 -0.4755  3.4806
 2642SOL    HW2 8999   5.082   5.062   0.041 -0.0539 -0.5013  1.0837
 2643SOL     OW 9000   0.949   4.616   3.978 -0.1447  1.3872 -0.1743
 2643SOL    HW1 9001   0.951   4.642   4.071  0.7374 -0.3790  0.3273
 2643SOL    HW2 9002   0.891   4.541   3.976 -0.0626  1.3459 -1.0533
 2644SOL     OW 9003   3.013   1.145   7.905 -0.2676 -0.0999  0.0160
 2644SOL    HW1 9004   2.926   1.176   7.879 -1.0105 -0.9706  1.3249
 2644SOL    HW2 9005   3.013   1.052   7.882 -0.1549 -0.3876  1.1304
 2645SOL     OW 9006   7.380   7.137   7.729 -0.4618  0.2817  0.3176
 2645SOL    HW1 9007   7.369   7.232   7.734 -0.5211  0.3179 -0.4574
 2645SOL    HW2 9008   7.326   7.110   7.655  2.1368  0.0637 -1.6332
 2646SOL     OW 9009   7.656   5.020   2.221 -0.1414 -0.1234  0.0804
 2646SOL    HW1 9010   7.671   4.926   2.224  1.1303 -0.0086 -1.2864
 2646SOL    HW2 9011   7.647   5.046   2.313  2.3874 -1.1758  0.7194
 2647SOL     OW 9012   1.327   5.040   6.102  0.0299 -0.0144  0.8680
 2647SOL    HW1 9013   1.394   4.993   6.152  0.7641 -0.3675 -0.4056
 2647SOL    HW2 9014   1.303   4.980   6.031 -0.4598  0.7527  0.3651
 2648SOL     OW 9015   1.873   5.791   3.932  0.0429  0.1952 -0.1599
 2648SOL    HW1 9016   1.908   5.711   3.891 -0.5684  0.0586 -0.4273
 2648SOL    HW2 9017   1.862   5.767   4.024  2.0633  0.7148  0.2679
 2649SOL     OW 9018   2.203   1.899   0.661  0.3637  0.2599  0.7578
 2649SOL    HW1 9019   2.196   1.803   0.666 -0.7829  0.3588  1.3716
 2649SOL    HW2 9020   2.112   1.930   0.662  0.6637  1.3068 -0.8816
 2650SOL     OW 9021   5.663   0.550   5.617  0.0410 -0.1181 -0.1624
 2650SOL    HW1 9022   5.666   0.459   5.588  2.9621 -0.8925  2.0215
 2650SOL    HW2 9023   5.572   0.564   5.643 -0.5876 -2.2375 -0.9677
 2651SOL     OW 9024   7.887   4.089   3.578 -0.0945 -0.0678  0.6025
 2651SOL    HW1 9025   7.796   4.063   3.562  0.5431 -2.4522  0.5562
 2651SOL    HW2 9026   7.913   4.137   3.499 -1.0035 -0.1980  0.2125
 2652SOL     OW 9027   3.720   2.373   0.719  0.0995 -0.1757  0.6594
 2652SOL    HW1 9028   3.721   2.316   0.642  0.7247 -0.9378  1.2161
 2652SOL    HW2 9029   3.712   2.462   0.684  4.9892  0.0042 -0.6544
 2653SOL     OW 9030   6.424   4.528   5.759 -0.0085 -0.3522 -0.3648
 2653SOL    HW1 9031   6.499   4.564   5.805  0.6091 -1.7605 -0.2259
 2653SOL    HW2 9032   6.403   4.448   5.805 -0.2001 -1.1241 -1.7298
 2654SOL     OW 9033   2.995   2.885   0.070  0.5259  0.4306 -0.1365
 2654SOL    HW1 9034   3.060   2.823   0.037 -1.3151 -2.9043  1.9010
 2654SOL    HW2 9035   3.009   2.886   0.165 -1.5071  0.6452  0.2080
 2655SOL     OW 9036   7.923   1.418   7.550 -0.9554  0.0709 -0.2679
 2655SOL    HW1 9037   7.866   1.494   7.565 -1.8175 -0.8205  1.1842
 2655SOL    HW2 9038   7.937   1.381   7.637  0.2929 -0.8562 -0.8380
 2656SOL     OW 9039   0.810   5.886   5.533  0.4574  0.1330 -0.0486
 2656SOL    HW1 9040   0.883   5.853   5.586 -0.1524 -0.9302  0.1483
 2656SOL    HW2 9041   0.763   5.808   5.505 -0.6337  0.7989 -0.1433
 2657SOL     OW 9042   4.278   4.974   0.566 -0.6437  0.1182 -0.6470
 2657SOL    HW1 9043   4.371   4.956   0.582 -0.0276  3.0286 -0.3773
 2657SOL    HW2 9044   4.255   4.915   0.494  1.0569 -1.5318  0.0710
 2658SOL     OW 9045   7.706   2.336   0.011  0.2128 -0.2941 -0.1554
 2658SOL    HW1 9046   7.645   2.340   0.084  0.0060  0.5234 -0.3660
 2658SOL    HW2 9047   7.740   2.246   0.013 -1.3808 -0.9225 -0.3430
 2659SOL     OW 9048   4.266   7.554   2.304  0.0452 -0.0673 -0.6429
 2659SOL    HW1 9049   4.228   7.478   2.348 -0.1803  0.4992  0.1575
 2659SOL    HW2 9050   4.351   7.523   2.272  1.0540 -0.0101  1.7957
 2660SOL     OW 9051   5.347   2.256   5.671 -0.1628 -0.3460  0.1768
 2660SOL    HW1 9052   5.295   2.205   5.610  0.2421 -0.4164 -0.1130
 2660SOL    HW2 9053   5.385   2.191   5.730  0.2192 -0.3674 -0.0904
 2661SOL     OW 9054   1.918   3.637   6.902 -0.4172  0.5658 -0.2580
 2661SOL    HW1 9055   1.918   3.579   6.826 -2.6860 -0.1066  0.1725
 2661SOL    HW2 9056   1.918   3.726   6.865  1.4724  0.3158 -0.9470
 2662SOL     OW 9057   3.544   0.929   0.399 -0.6533  0.3420 -0.1208
 2662SOL    HW1 9058   3.630   0.925   0.440 -0.6386  0.8135 -0.0935
 2662SOL    HW2 9059   3.507   0.842   0.412  0.9541 -0.8453 -2.6113
 2663SOL     OW 9060   6.148   4.343   0.920 -0.6117  0.2014  0.2405
 2663SOL    HW1 9061   6.101   4.321   0.840  0.4216 -4.2195  0.5786
 2663SOL    HW2 9062   6.080   4.358   0.985 -1.4825 -0.6282 -0.4599
 2664SOL     OW 9063   4.021   1.587   0.829 -0.5222 -0.1796 -0.0052
 2664SOL    HW1 9064   3.989   1.676   0.831 -0.4845 -0.1742  1.0035
 2664SOL    HW2 9065   4.115   1.595   0.811 -0.5919 -0.0473 -0.3163
 2665SOL     OW 9066   4.507   3.133   7.877  0.9597  0.4219 -0.3843
 2665SOL    HW1 9067   4.574   3.082   7.922  0.7318  1.0304  0.6766
 2665SOL    HW2 9068   4.503   3.215   7.925 -2.2481 -0.5019  1.1797
 2666SOL     OW 9069   6.081   2.573   2.495 -0.3603  0.0148  0.5550
 2666SOL    HW1 9070   5.994   2.543   2.468  0.1083 -0.4032 -0.5734
 2666SOL    HW2 9071   6.078   2.668   2.483 -0.2342 -0.1407 -0.8300
 2667SOL     OW 9072   2.229   7.411   6.882  0.1833 -0.4899  0.1369
 2667SOL    HW1 9073   2.161   7.478   6.883  0.3038 -0.3140 -1.4423
 2667SOL    HW2 9074   2.205   7.353   6.810  0.7728 -1.4275  0.6708
 2668SOL     OW 9075   3.904   7.052   2.259  0.4485 -0.2277  0.2879
 2668SOL    HW1 9076   3.885   6.963   2.229 -3.2552  1.1931 -2.1829
 2668SOL    HW2 9077   3.857   7.060   2.342 -1.3161  0.0991 -0.7061
 2669SOL     OW 9078   7.297   3.049   7.125  0.1566 -0.4104  0.2306
 2669SOL    HW1 9079   7.307   2.955   7.113 -0.7880 -0.5344  0.3075
 2669SOL    HW2 9080   7.319   3.087   7.040 -0.6205 -0.8025 -0.1575
 2670SOL     OW 9081   6.967   7.654   4.737  0.1176 -0.4616 -0.0198
 2670SOL    HW1 9082   7.006   7.570   4.713 -1.1494 -1.8078  2.2044
 2670SOL    HW2 9083   7.001   7.672   4.825 -0.2428  0.9691 -0.1493
 2671SOL     OW 9084   1.813   5.846   3.339 -0.1584 -0.5804 -0.5362
 2671SOL    HW1 9085   1.849   5.823   3.425 -0.8663 -0.6208 -0.2472
 2671SOL    HW2 9086   1.775   5.933   3.351  1.3911  0.2435 -1.3058
 2672SOL     OW 9087   3.411   2.264   1.737  0.4362 -0.3841  0.0965
 2672SOL    HW1 9088   3.404   2.231   1.647 -0.9028  0.1649 -0.0225
 2672SOL    HW2 9089   3.360   2.203   1.790 -0.0212  0.1163  0.2468
 2673SOL     OW 9090   5.418   4.235   5.893  0.0934  0.1530  0.6490
 2673SOL    HW1 9091   5.345   4.223   5.834  0.2119 -1.6219  0.8157
 2673SOL    HW2 9092   5.401   4.319   5.937 -1.2008  0.3256 -0.1622
 2674SOL     OW 9093   4.850   0.456   2.591  0.1523  0.2254  0.6700
 2674SOL    HW1 9094   4.888   0.523   2.535  0.3173  2.2663  3.0386
 2674SOL    HW2 9095   4.917   0.438   2.656 -0.3151 -1.4803  0.7443
 2675SOL     OW 9096   3.052   1.346   3.476 -0.6674 -0.3572 -0.1589
 2675SOL    HW1 9097   3.147   1.345   3.491 -0.4281 -0.9024 -1.5177
 2675SOL    HW2 9098   3.026   1.437   3.492 -0.3519 -0.6669  2.5060
 2676SOL     OW 9099   1.719   0.944   2.058  0.5600  0.0847  0.0105
 2676SOL    HW1 9100   1.633   0.944   2.101  0.5654  0.0794  0.0215
 2676SOL    HW2 9101   1.701   0.973   1.969  0.6032  0.4612  0.1250
 2677SOL     OW 9102   7.418   0.895   5.657 -0.5710 -0.1954  0.3290
 2677SOL    HW1 9103   7.332   0.935   5.669  0.0436  1.1065  0.5468
 2677SOL    HW2 9104   7.460   0.902   5.743 -0.3706 -1.1701  0.3270
 2678SOL     OW 9105   1.136   6.161   0.857  0.0081 -0.0661  0.2994
 2678SOL    HW1 9106   1.211   6.173   0.799 -0.7137  1.5629 -0.3685
 2678SOL    HW2 9107   1.169   6.109   0.930  1.3757 -0.6874 -0.7269
 2679SOL     OW 9108   5.827   5.345   4.070 -0.0350  0.0599 -0.6219
 2679SOL    HW1 9109   5.755   5.294   4.032  0.5047 -0.0725 -1.4828
 2679SOL    HW2 9110   5.788   5.431   4.088 -0.8720 -0.5294  0.5761
 2680SOL     OW 9111   1.101   4.481   7.396  0.4791 -0.7578  0.1380
 2680SOL    HW1 9112   1.133   4.518   7.314  0.2858  0.4532  0.5839
 2680SOL    HW2 9113   1.008   4.463   7.379  0.6855 -1.4741 -0.2279
 2681SOL     OW 9114   1.462   4.639   4.360  0.0332  0.0093 -0.6322
 2681SOL    HW1 9115   1.477   4.602   4.273 -0.0006  1.2087 -1.1656
 2681SOL    HW2 9116   1.538   4.611   4.411  1.1730  1.0971 -1.6578
 2682SOL     OW 9117   5.399   1.626   8.125  0.1416 -0.0229  0.5439
 2682SOL    HW1 9118   5.322   1.585   8.163  0.0000  1.3676  1.8400
 2682SOL    HW2 9119   5.368   1.711   8.092  0.8754  0.0469 -0.0000
 2683SOL     OW 9120   1.062   2.305   6.545  0.2308  0.8006 -0.1511
 2683SOL    HW1 9121   1.115   2.361   6.602  0.9317  0.6127 -0.6003
 2683SOL    HW2 9122   1.103   2.219   6.550 -1.5987 -0.0532  1.5461
 2684SOL     OW 9123   7.598   0.221   3.339  0.0553 -0.1341 -0.5319
 2684SOL    HW1 9124   7.580   0.136   3.379  0.5350 -0.2703 -0.6047
 2684SOL    HW2 9125   7.620   0.201   3.248 -0.3498  0.1146 -0.6863
 2685SOL     OW 9126   3.094   7.421   6.732  0.0408  0.4143 -0.0329
 2685SOL    HW1 9127   3.147   7.343   6.717 -0.6013 -0.1167  0.4315
 2685SOL    HW2 9128   3.131   7.487   6.672  0.4814 -0.2862 -0.5432
 2686SOL     OW 9129   5.984   7.833   1.563 -0.0146 -0.4872  0.2750
 2686SOL    HW1 9130   6.068   7.852   1.521 -0.4773 -1.1213 -0.9741
 2686SOL    HW2 9131   5.941   7.919   1.571 -0.6620 -0.4919 -2.2158
 2687SOL     OW 9132   1.021   2.291   3.378  0.0027  0.3119 -0.3630
 2687SOL    HW1 9133   1.089   2.276   3.313 -0.0504 -1.7512  0.0039
 2687SOL    HW2 9134   1.044   2.233   3.451 -2.0906 -0.4164 -0.2134
 2688SOL     OW 9135   7.226   6.245   3.666 -0.6982 -0.0599  0.2076
 2688SOL    HW1 9136   7.206   6.152   3.657 -0.7396 -0.0887  0.5829
 2688SOL    HW2 9137   7.229   6.260   3.761  1.5419 -0.1755  0.2121
 2689SOL     OW 9138   4.036   5.772   7.783  0.4474  0.3545  0.0219
 2689SOL    HW1 9139   3.952   5.805   7.815  0.3775 -1.2771  1.6851
 2689SOL    HW2 9140   4.020   5.681   7.760  2.0242 -0.4810  1.8690
 2690SOL     OW 9141   8.022   3.914   2.663 -0.0103 -0.3030  0.2097
 2690SOL    HW1 9142   8.016   3.819   2.654  0.9953 -0.3028 -0.6742
 2690SOL    HW2 9143   7.931   3.944   2.659 -0.2755 -1.1463 -0.4886
 2691SOL     OW 9144   1.713   7.402   0.102 -0.1590 -0.0863 -0.2160
 2691SOL    HW1 9145   1.618   7.399   0.087 -0.4563  0.4748  1.3504
 2691SOL    HW2 9146   1.739   7.489   0.071 -0.2696 -0.0112 -0.1006
 2692SOL     OW 9147   8.114   6.740   4.089  0.0360 -0.2479 -0.5319
 2692SOL    HW1 9148   8.144   6.652   4.063 -2.4172 -1.1595 -0.5427
 2692SOL    HW2 9149   8.133   6.745   4.183  1.4622 -0.1974 -0.8002
 2693SOL     OW 9150   0.327   1.104   3.128  0.2552  0.2173 -0.0917
 2693SOL    HW1 9151   0.336   1.071   3.039 -1.4177  3.3412 -1.5930
 2693SOL    HW2 9152   0.243   1.071   3.158 -0.6439  1.6209 -0.9524
 2694SOL     OW 9153   7.442   1.201   6.682 -0.2462 -0.1978  0.5794
 2694SOL    HW1 9154   7.457   1.176   6.591 -3.3001  0.2767 -0.1602
 2694SOL    HW2 9155   7.425   1.119   6.728 -0.4726 -0.2848  0.3384
 2695SOL     OW 9156   2.600   4.814   2.736 -0.3765 -0.6014  0.1363
 2695SOL    HW1 9157   2.634   4.893   2.778  1.2883 -1.1491 -0.1267
 2695SOL    HW2 9158   2.541   4.848   2.667  2.4128  0.5980 -1.8387
 2696SOL     OW 9159   0.763   1.522   2.345 -0.0128 -0.0047  0.2332
 2696SOL    HW1 9160   0.841   1.466   2.345  0.2818  0.3365 -1.4018
 2696SOL    HW2 9161   0.780   1.585   2.275 -2.4290 -0.8848 -1.2521
 2697SOL     OW 9162   5.108   2.780   2.019  0.6049  0.9266 -0.2704
 2697SOL    HW1 9163   5.100   2.875   2.030 -0.2779  0.9515 -0.9656
 2697SOL    HW2 9164   5.199   2.761   2.040  0.6059  1.8158  0.6300
 2698SOL     OW 9165   6.037   4.108   0.069 -0.4310  0.6840 -0.1040
 2698SOL    HW1 9166   6.131   4.124   0.077 -0.2435 -0.3350 -0.0157
 2698SOL    HW2 9167   5.998   4.194   0.053  0.3142  1.3921  1.6446
 2699SOL     OW 9168   6.014   8.122   3.782  0.4389 -0.6603 -0.1804
 2699SOL    HW1 9169   6.109   8.127   3.777  0.3456  0.3189 -1.8729
 2699SOL    HW2 9170   5.987   8.093   3.695 -0.8384 -0.2647  0.0643
 2700SOL     OW 9171   0.734   3.352   5.963 -0.2081  0.5422 -0.1861
 2700SOL    HW1 9172   0.641   3.368   5.978 -0.3535  1.1118 -1.5488
 2700SOL    HW2 9173   0.768   3.435   5.930  0.7265  0.2534  0.0147
 2701SOL     OW 9174   7.798   0.669   6.688  0.0471  0.3967  0.3967
 2701SOL    HW1 9175   7.867   0.734   6.675 -1.3047  1.5633 -1.4801
 2701SOL    HW2 9176   7.828   0.593   6.639  0.3945  0.5902  0.3000
 2702SOL     OW 9177   3.662   2.605   2.842  0.1864  0.0654  0.2012
 2702SOL    HW1 9178   3.615   2.666   2.899 -1.3023 -1.0378  0.2200
 2702SOL    HW2 9179   3.602   2.590   2.768  0.6270 -1.1381  0.0562
 2703SOL     OW 9180   0.871   0.248   5.922 -0.1591  0.0523 -0.3605
 2703SOL    HW1 9181   0.862   0.300   6.002 -1.5296 -0.3412 -0.2299
 2703SOL    HW2 9182   0.844   0.307   5.851 -0.9002 -0.2035 -0.3014
 2704SOL     OW 9183   0.031   1.192   1.633  0.1134 -0.2467 -0.0877
 2704SOL    HW1 9184   0.005   1.261   1.693  1.5295 -0.0788  0.3597
 2704SOL    HW2 9185   0.081   1.237   1.564  1.1358 -0.8066  0.2641
 2705SOL     OW 9186   2.915   0.885   4.099  0.4170 -0.0896 -0.0870
 2705SOL    HW1 9187   2.987   0.925   4.050 -0.2691  1.1295 -0.1470
 2705SOL    HW2 9188   2.863   0.840   4.032 -0.4594  1.4863 -0.5114
 2706SOL     OW 9189   2.241   2.021   2.976  0.9692 -0.3369 -0.7208
 2706SOL    HW1 9190   2.189   2.002   3.054  0.8092  0.2684 -0.6681
 2706SOL    HW2 9191   2.190   2.087   2.930  0.9282 -0.8943 -1.4827
 2707SOL     OW 9192   4.048   5.224   4.413  0.2201  0.4967 -0.0097
 2707SOL    HW1 9193   4.124   5.167   4.403  0.4824  0.9291 -0.5675
 2707SOL    HW2 9194   4.048   5.278   4.334 -2.2557 -1.3761 -1.4673
 2708SOL     OW 9195   7.469   6.876   6.613 -0.2582 -0.0948 -0.0238
 2708SOL    HW1 9196   7.492   6.961   6.577  3.2197 -1.7066 -2.1407
 2708SOL    HW2 9197   7.519   6.869   6.694 -2.1103  0.5355  1.2461
 2709SOL     OW 9198   7.385   7.587   6.411 -0.1701  0.1311  0.0143
 2709SOL    HW1 9199   7.425   7.620   6.491  1.5558 -0.6555 -0.4655
 2709SOL    HW2 9200   7.432   7.631   6.340 -0.9426  0.0299 -0.5869
 2710SOL     OW 9201   4.247   3.067   7.993  0.4526 -0.1271  0.1515
 2710SOL    HW1 9202   4.314   3.100   7.933  0.7867  1.2667  1.2270
 2710SOL    HW2 9203   4.167   3.114   7.967  0.7315  0.9365  1.1327
 2711SOL     OW 9204   0.760   7.466   5.451 -0.2461  0.3832 -0.1601
 2711SOL    HW1 9205   0.735   7.475   5.359 -0.7474  0.1465 -0.0529
 2711SOL    HW2 9206   0.695   7.406   5.487  1.6385 -1.8722 -0.3237
 2712SOL     OW 9207   0.039   5.574   0.155 -0.1585  0.0236  0.2319
 2712SOL    HW1 9208   0.035   5.583   0.059 -0.9055  2.2847  0.4249
 2712SOL    HW2 9209   0.039   5.479   0.170  1.1867 -0.4242 -2.0364
 2713SOL     OW 9210   2.350   5.800   2.069  0.5136 -0.1852  0.5111
 2713SOL    HW1 9211   2.310   5.736   2.128 -0.9122  0.1644 -0.0357
 2713SOL    HW2 9212   2.343   5.761   1.982  1.3009 -0.0713  0.3884
 2714SOL     OW 9213   3.785   3.452   7.630  0.1783  0.3856 -0.1618
 2714SOL    HW1 9214   3.762   3.375   7.681  0.8439  0.7574  0.7171
 2714SOL    HW2 9215   3.710   3.465   7.571 -1.6176  1.1609  2.1405
 2715SOL     OW 9216   1.563   6.585   4.117  0.2988  0.2099  0.0203
 2715SOL    HW1 9217   1.552   6.680   4.111 -2.1648 -0.0958 -1.8561
 2715SOL    HW2 9218   1.478   6.549   4.091  1.0027 -2.5384  1.1418
 2716SOL     OW 9219   2.220   6.175   0.787  0.6902 -0.2998  0.3909
 2716SOL    HW1 9220   2.288   6.145   0.847 -2.7250 -2.3868  3.6007
 2716SOL    HW2 9221   2.176   6.246   0.833 -2.0128 -1.9196  0.5311
 2717SOL     OW 9222   2.309   3.955   7.986  0.3206  0.1320 -0.5481
 2717SOL    HW1 9223   2.315   3.898   8.063 -0.9434 -0.7999 -1.0928
 2717SOL    HW2 9224   2.382   3.927   7.930  0.0805 -0.5457 -0.5366
 2718SOL     OW 9225   1.564   8.078   4.012 -0.1142  0.5229  0.0852
 2718SOL    HW1 9226   1.612   8.092   4.094 -1.2582 -0.7994  1.0172
 2718SOL    HW2 9227   1.631   8.089   3.944  0.9323  1.3425  1.1886
 2719SOL     OW 9228   3.095   4.389   5.090  0.3646  0.5455  0.2146
 2719SOL    HW1 9229   2.999   4.392   5.094  0.3509 -0.6687  1.3021
 2719SOL    HW2 9230   3.115   4.396   4.997 -0.7952  0.4324 -0.0581
 2720SOL     OW 9231   7.839   6.915   3.390  0.3528 -0.1064  0.0917
 2720SOL    HW1 9232   7.884   6.831   3.401  1.8639  0.5985 -0.3570
 2720SOL    HW2 9233   7.901   6.980   3.424 -1.2030  0.7707  1.3812
 2721SOL     OW 9234   0.390   0.349   4.061  0.5679  0.0864  0.7226
 2721SOL    HW1 9235   0.306   0.303   4.055  0.7790 -0.1099 -1.2787
 2721SOL    HW2 9236   0.366   0.442   4.055  0.4390  0.0584  0.7919
 2722SOL     OW 9237   2.928   2.365   1.964 -0.1899 -0.1326 -0.0722
 2722SOL    HW1 9238   2.869   2.436   1.938 -1.4542 -1.3457 -0.6623
 2722SOL    HW2 9239   2.871   2.302   2.008  1.0008 -0.5619  0.9066
 2723SOL     OW 9240   0.621   2.837   5.013  0.3716 -0.5337  0.2835
 2723SOL    HW1 9241   0.687   2.897   5.046  0.6322 -1.2421  1.0734
 2723SOL    HW2 9242   0.537   2.881   5.032  0.5840  0.7240 -1.4152
 2724SOL     OW 9243   7.795   6.066   7.762 -0.6809  0.1380 -0.5834
 2724SOL    HW1 9244   7.771   6.086   7.671 -0.7647  1.6459 -0.2621
 2724SOL    HW2 9245   7.879   6.110   7.774  0.6573 -2.2500 -0.6802
 2725SOL     OW 9246   5.769   0.262   4.982  0.4836 -0.2051  0.0720
 2725SOL    HW1 9247   5.778   0.298   4.894  0.1829  1.0891  0.5441
 2725SOL    HW2 9248   5.674   0.254   4.995  0.4669 -4.4371 -1.2452
 2726SOL     OW 9249   1.674   1.104   2.568 -0.4164 -0.7874 -0.0196
 2726SOL    HW1 9250   1.708   1.026   2.611 -1.1885 -1.0923  0.0355
 2726SOL    HW2 9251   1.753   1.151   2.540  0.0530 -1.8354 -0.5213
 2727SOL     OW 9252   3.774   0.019   1.813 -0.9794  0.0123 -0.3443
 2727SOL    HW1 9253   3.769  -0.046   1.743 -1.1709 -0.8244  0.4180
 2727SOL    HW2 9254   3.723  -0.020   1.885  0.5215  0.1050  0.8117
 2728SOL     OW 9255   7.327   4.315   0.766 -0.3294 -0.5905 -0.4611
 2728SOL    HW1 9256   7.258   4.314   0.832  1.1705  2.6758  1.3946
 2728SOL    HW2 9257   7.286   4.355   0.689 -0.7217  0.9271  0.4862
 2729SOL     OW 9258   3.017   2.260   6.857  0.1555 -0.0825  0.0879
 2729SOL    HW1 9259   3.112   2.257   6.842  0.2292 -2.3728  0.5615
 2729SOL    HW2 9260   2.980   2.277   6.770  0.9793  1.9370  0.0689
 2730SOL     OW 9261   1.376   8.054   3.681  0.1504  0.0094 -0.0230
 2730SOL    HW1 9262   1.448   8.102   3.640  0.7029  0.4178  1.3906
 2730SOL    HW2 9263   1.381   8.076   3.774 -0.8378 -1.1899  0.3483
 2731SOL     OW 9264   0.270   8.116   0.803  0.2542 -0.1315 -0.0282
 2731SOL    HW1 9265   0.272   8.064   0.723  0.5439  0.7330 -0.5896
 2731SOL    HW2 9266   0.339   8.078   0.858  1.4543  0.5767 -1.0201
 2732SOL     OW 9267   4.299   7.356   6.771  0.1979 -0.2798 -0.9713
 2732SOL    HW1 9268   4.339   7.412   6.704  2.2778  1.0587  1.2089
 2732SOL    HW2 9269   4.228   7.408   6.807  1.2009  0.4477  0.0499
 2733SOL     OW 9270   5.943   5.613   5.913 -0.3296 -0.1970 -0.7154
 2733SOL    HW1 9271   6.006   5.591   5.844 -1.3023  0.1679 -1.7530
 2733SOL    HW2 9272   5.859   5.579   5.882 -0.3832 -2.4048  1.5260
 2734SOL     OW 9273   5.824   1.499   4.563  0.0486 -0.4136 -0.0723
 2734SOL    HW1 9274   5.815   1.482   4.657  1.1699 -1.0905 -0.0684
 2734SOL    HW2 9275   5.862   1.586   4.558 -1.1450  0.1397  0.0462
 2735SOL     OW 9276   4.455   3.239   1.734 -0.3731 -0.6124 -0.2728
 2735SOL    HW1 9277   4.460   3.144   1.727 -0.7365 -0.5849 -0.9647
 2735SOL    HW2 9278   4.517   3.261   1.805 -0.5888 -1.3885  0.1691
 2736SOL     OW 9279   0.140   2.898   3.739 -0.9881  0.0579  0.2713
 2736SOL    HW1 9280   0.184   2.833   3.794 -0.8337 -0.2059 -0.1630
 2736SOL    HW2 9281   0.048   2.893   3.766 -1.1176 -0.8787 -0.2654
 2737SOL     OW 9282   3.576   3.118   5.414  0.1209  0.0403  0.4083
 2737SOL    HW1 9283   3.598   3.134   5.322  0.9446  0.9162  0.7450
 2737SOL    HW2 9284   3.508   3.182   5.433  0.0840 -0.0157  0.4636
 2738SOL     OW 9285   2.544   6.568   5.252 -0.1134  0.5352  0.4688
 2738SOL    HW1 9286   2.607   6.623   5.205 -1.4837  1.0090 -0.8914
 2738SOL    HW2 9287   2.533   6.491   5.197 -0.6231  0.3857  0.7751
 2739SOL     OW 9288   3.606   1.445   2.264 -0.1341 -0.2275 -0.3376
 2739SOL    HW1 9289   3.560   1.437   2.348 -1.7211 -0.5289 -1.1859
 2739SOL    HW2 9290   3.611   1.356   2.231  1.1687 -0.2034 -0.2314
 2740SOL     OW 9291   1.076   0.509   0.487  0.0717  0.3460 -0.2784
 2740SOL    HW1 9292   1.082   0.445   0.558 -0.0404 -0.2929 -0.8349
 2740SOL    HW2 9293   1.128   0.470   0.416 -1.1419  0.2179 -1.1122
 2741SOL     OW 9294   0.798   4.362   3.655 -0.2171  0.7066  0.4678
 2741SOL    HW1 9295   0.819   4.312   3.733  1.4157  0.9502  0.2181
 2741SOL    HW2 9296   0.712   4.330   3.628  1.0265 -2.5068 -0.1081
 2742SOL     OW 9297   6.539   6.022   1.155  0.2821 -0.3311  0.0902
 2742SOL    HW1 9298   6.619   6.044   1.107  0.3850 -0.2123  0.3096
 2742SOL    HW2 9299   6.563   5.944   1.206  1.0754  1.1291  2.0918
 2743SOL     OW 9300   0.267   1.133   0.840 -0.4166 -0.6384  0.2538
 2743SOL    HW1 9301   0.228   1.203   0.894 -0.0515 -0.0714 -0.2052
 2743SOL    HW2 9302   0.361   1.142   0.855 -0.3445 -0.7782 -0.1256
 2744SOL     OW 9303   5.458   6.162   6.870 -0.3804  0.3279 -0.0671
 2744SOL    HW1 9304   5.400   6.104   6.821  1.7153 -0.9786 -1.1522
 2744SOL    HW2 9305   5.468   6.121   6.955  0.2273 -0.3516 -0.4543
 2745SOL     OW 9306   2.512   3.021   6.714 -0.0177 -0.0637 -0.8222
 2745SOL    HW1 9307   2.458   2.982   6.783  0.0936 -0.6305 -1.0448
 2745SOL    HW2 9308   2.522   3.112   6.739 -0.9195 -0.0011 -0.6747
 2746SOL     OW 9309   5.854   7.218   6.485 -0.1977 -0.0181 -0.0688
 2746SOL    HW1 9310   5.774   7.170   6.465  1.3357 -2.2546 -1.2420
 2746SOL    HW2 9311   5.835   7.309   6.460 -2.1507 -0.5996 -0.8541
 2747SOL     OW 9312   3.787   2.516   6.275 -0.2193  0.0038 -0.2773
 2747SOL    HW1 9313   3.701   2.543   6.308  0.2707 -0.7506  1.8093
 2747SOL    HW2 9314   3.830   2.476   6.351  1.6908 -0.3340 -1.4644
 2748SOL     OW 9315   6.586   2.094   2.468  0.1433  0.0233 -0.1405
 2748SOL    HW1 9316   6.651   2.025   2.481 -0.6128 -0.7629 -0.4067
 2748SOL    HW2 9317   6.625   2.172   2.509  1.6637 -0.1560 -1.1585
 2749SOL     OW 9318   8.099   1.861   7.566 -0.3275  0.4659  0.3079
 2749SOL    HW1 9319   8.028   1.806   7.533  1.2066 -0.7472 -1.0873
 2749SOL    HW2 9320   8.163   1.799   7.602  1.7978  1.1808 -2.0008
 2750SOL     OW 9321   1.924   4.567   2.710  0.2747  0.0242 -0.3382
 2750SOL    HW1 9322   1.938   4.476   2.683 -0.3191  0.4215 -2.1599
 2750SOL    HW2 9323   1.955   4.619   2.636  4.6262  1.6165  2.1930
 2751SOL     OW 9324   1.514   5.718   2.543 -0.0192 -0.3687  0.3543
 2751SOL    HW1 9325   1.454   5.793   2.542  1.7561  1.1157  0.0325
 2751SOL    HW2 9326   1.542   5.708   2.452  1.6557  0.2039  0.7805
 2752SOL     OW 9327   1.680   3.278   6.659  0.3232  0.1852 -0.5259
 2752SOL    HW1 9328   1.636   3.258   6.741 -0.0621  2.5639 -0.0958
 2752SOL    HW2 9329   1.725   3.197   6.636 -1.0407 -1.0931  1.0655
 2753SOL     OW 9330   1.740   0.169   1.155  0.0588 -0.2428  0.1313
 2753SOL    HW1 9331   1.652   0.178   1.192  0.1073 -0.3229  0.2695
 2753SOL    HW2 9332   1.744   0.234   1.086 -0.6024 -1.1620 -0.8057
 2754SOL     OW 9333   3.339   1.296   0.664 -0.1016  0.2871 -0.6862
 2754SOL    HW1 9334   3.396   1.223   0.640 -0.3940 -0.3171  0.3952
 2754SOL    HW2 9335   3.293   1.266   0.743 -0.7186  1.3860 -0.6053
 2755SOL     OW 9336   7.414   6.106   5.879  0.3414  0.5263 -0.8487
 2755SOL    HW1 9337   7.425   6.100   5.974 -0.6252  0.9817 -0.7028
 2755SOL    HW2 9338   7.456   6.189   5.855  1.6547 -0.1620 -0.9980
 2756SOL     OW 9339   4.258   4.083   0.907 -0.4421 -0.2309 -0.4409
 2756SOL    HW1 9340   4.267   4.002   0.956 -0.6398  0.6450  1.1042
 2756SOL    HW2 9341   4.201   4.061   0.834 -0.1638 -1.5664 -0.2760
 2757SOL     OW 9342   6.926   0.544   5.228  0.4134 -0.1999 -0.1143
 2757SOL    HW1 9343   6.948   0.618   5.171  2.2507 -0.8821 -0.3449
 2757SOL    HW2 9344   7.000   0.537   5.289  0.6594 -2.2743 -0.5671
 2758SOL     OW 9345   3.371   1.513   4.865  0.2350 -0.7805 -0.1927
 2758SOL    HW1 9346   3.383   1.605   4.843  0.4968 -1.0648 -1.3375
 2758SOL    HW2 9347   3.318   1.478   4.793 -2.2700 -0.9368  1.5975
 2759SOL     OW 9348   3.616   6.303   3.578  0.4114  0.3675 -0.3395
 2759SOL    HW1 9349   3.612   6.348   3.662  0.6485 -0.6655  0.2399
 2759SOL    HW2 9350   3.686   6.238   3.589  0.5135  0.2943 -1.3652
 2760SOL     OW 9351   4.360   7.070   5.176 -0.3574 -0.1376 -0.2041
 2760SOL    HW1 9352   4.434   7.023   5.138  1.1255  1.7715  0.1583
 2760SOL    HW2 9353   4.283   7.019   5.151  0.9409 -1.3674 -1.8789
 2761SOL     OW 9354   1.439   1.421   5.412  0.2509 -0.7208 -0.4764
 2761SOL    HW1 9355   1.346   1.395   5.417  0.1674 -0.2136  2.3707
 2761SOL    HW2 9356   1.473   1.404   5.500  1.9612  2.3676 -0.4026
 2762SOL     OW 9357   5.932   5.931   4.964 -0.0432 -0.2687 -0.4075
 2762SOL    HW1 9358   5.885   5.848   4.969 -0.0459 -0.2239  0.3436
 2762SOL    HW2 9359   5.886   5.989   5.024  0.9355 -0.2182  0.3186
 2763SOL     OW 9360   8.014   4.564   6.740  0.2417  0.2537  0.0127
 2763SOL    HW1 9361   8.074   4.607   6.678 -0.5816 -1.2811 -1.9614
 2763SOL    HW2 9362   8.052   4.476   6.751 -1.5829 -0.7583 -1.3035
 2764SOL     OW 9363   7.042   5.481   7.879 -0.5306  0.3341  0.0795
 2764SOL    HW1 9364   6.958   5.498   7.923 -0.9330  0.3469 -0.6832
 2764SOL    HW2 9365   7.088   5.565   7.882 -0.4346  0.2634  0.7239
 2765SOL     OW 9366   7.497   0.219   3.674 -0.2530  0.3355  0.2001
 2765SOL    HW1 9367   7.536   0.163   3.608  1.3326  2.1783 -0.5208
 2765SOL    HW2 9368   7.456   0.159   3.736  0.2601 -1.5269 -1.1963
 2766SOL     OW 9369   4.978   0.198   2.253  0.2547  0.0311  0.0916
 2766SOL    HW1 9370   4.931   0.161   2.179  0.4610  0.0546 -0.0513
 2766SOL    HW2 9371   4.998   0.288   2.227 -0.0580  0.1756  0.3520
 2767SOL     OW 9372   7.654   0.908   2.939  0.6178 -0.3478  0.7208
 2767SOL    HW1 9373   7.584   0.967   2.967 -0.2548 -0.9160 -0.2071
 2767SOL    HW2 9374   7.685   0.944   2.856  0.5062 -0.8386  0.4599
 2768SOL     OW 9375   0.771   5.139   4.698  0.2229 -0.1919  0.2076
 2768SOL    HW1 9376   0.755   5.168   4.609  0.9813 -0.0862  0.0962
 2768SOL    HW2 9377   0.746   5.214   4.753  1.4360  0.4066 -0.0321
 2769SOL     OW 9378   3.049   1.101   0.069  0.2247  0.5194 -0.1826
 2769SOL    HW1 9379   3.048   1.093   0.165 -0.8491  2.7648  0.0691
 2769SOL    HW2 9380   3.071   1.013   0.038  1.7695 -0.0031  2.1275
 2770SOL     OW 9381   6.485   0.631   6.469 -0.3485 -0.4714  0.0291
 2770SOL    HW1 9382   6.498   0.717   6.510  0.3579 -0.3417 -0.4350
 2770SOL    HW2 9383   6.442   0.579   6.536  0.1932 -0.0730  0.7059
 2771SOL     OW 9384   5.859   0.456   3.696  0.2708  0.2059  0.5184
 2771SOL    HW1 9385   5.940   0.449   3.747  0.8533  2.7745  0.0842
 2771SOL    HW2 9386   5.884   0.509   3.620 -1.6485  0.3806 -0.0217
 2772SOL     OW 9387   3.069   3.736   3.297 -0.1718  0.1701  0.2912
 2772SOL    HW1 9388   3.126   3.813   3.303  1.2855 -0.9092  1.0680
 2772SOL    HW2 9389   3.039   3.722   3.387  0.3933 -0.7319  0.3538
 2773SOL     OW 9390   3.734   3.858   1.870  0.6075  0.6184  0.2933
 2773SOL    HW1 9391   3.770   3.895   1.790  0.8146  0.8578  0.4929
 2773SOL    HW2 9392   3.739   3.763   1.858 -1.1380  0.6260 -0.7670
 2774SOL     OW 9393   4.831   5.460   2.147  0.1437  0.1128 -0.0157
 2774SOL    HW1 9394   4.798   5.484   2.060  2.1932  1.2109 -0.5454
 2774SOL    HW2 9395   4.778   5.385   2.173 -1.8519  0.9681 -1.3454
 2775SOL     OW 9396   4.078   6.670   5.306 -0.1304 -0.9995 -0.1908
 2775SOL    HW1 9397   4.173   6.679   5.296 -0.3020  0.3164 -0.8953
 2775SOL    HW2 9398   4.047   6.647   5.218 -0.8092  2.4838 -1.0521
 2776SOL     OW 9399   0.614   5.748   4.808  0.9498 -0.1609 -0.5511
 2776SOL    HW1 9400   0.689   5.715   4.856 -0.0629  0.0368  1.2744
 2776SOL    HW2 9401   0.538   5.723   4.862 -0.1358  1.4227 -1.2584
 2777SOL     OW 9402   6.879   3.057   7.022  0.0586  1.0618  0.1853
 2777SOL    HW1 9403   6.905   3.057   7.114  2.1064 -0.1382 -0.3094
 2777SOL    HW2 9404   6.819   2.983   7.014  1.2535  0.0441  0.2684
 2778SOL     OW 9405   6.000   2.639   5.856  0.6508  0.6373  0.2435
 2778SOL    HW1 9406   6.069   2.685   5.904 -0.2352  1.6843  0.5670
 2778SOL    HW2 9407   5.937   2.707   5.834 -0.5702 -0.3803  0.4663
 2779SOL     OW 9408   5.356   1.991   4.677 -0.3988  0.1191  0.0482
 2779SOL    HW1 9409   5.298   2.048   4.626 -1.1379 -0.9120 -0.3082
 2779SOL    HW2 9410   5.437   1.987   4.626 -0.6193  0.2478 -0.3146
 2780SOL     OW 9411   4.425   4.551   4.245  0.1257 -0.4215 -0.4485
 2780SOL    HW1 9412   4.445   4.482   4.308 -0.1759 -0.2453 -0.1539
 2780SOL    HW2 9413   4.364   4.510   4.184 -1.3366  0.0139  0.6447
 2781SOL     OW 9414   0.955   3.732   0.393  0.8857 -0.2136  1.0186
 2781SOL    HW1 9415   0.864   3.708   0.375  1.0769 -0.1015 -0.2005
 2781SOL    HW2 9416   0.989   3.662   0.448  0.5448 -1.1461  0.0668
 2782SOL     OW 9417   0.472   5.494   1.312  0.2550  0.3137  0.0821
 2782SOL    HW1 9418   0.566   5.502   1.298  0.2121  0.3785 -0.1787
 2782SOL    HW2 9419   0.449   5.408   1.276  0.2380  0.2385  0.2713
 2783SOL     OW 9420   1.324   0.449   1.551 -0.2942 -0.6308 -0.3554
 2783SOL    HW1 9421   1.294   0.527   1.598  1.6350  0.0818 -0.2120
 2783SOL    HW2 9422   1.339   0.383   1.619 -1.8558 -1.1396 -0.4700
 2784SOL     OW 9423   0.498   5.005   3.606 -0.3601 -0.3668  0.2877
 2784SOL    HW1 9424   0.581   5.028   3.648 -0.8330 -0.0760  1.1026
 2784SOL    HW2 9425   0.493   4.910   3.613  1.0268 -0.6543 -1.9726
 2785SOL     OW 9426   1.530   2.802   6.542 -0.2608  0.8887 -0.0272
 2785SOL    HW1 9427   1.468   2.811   6.469 -0.5229  0.1254  0.0874
 2785SOL    HW2 9428   1.614   2.787   6.499 -0.6078 -0.7464 -0.1938
 2786SOL     OW 9429   3.644   4.454   5.898  0.1026 -0.1673 -0.0420
 2786SOL    HW1 9430   3.557   4.454   5.936 -0.4312 -2.3002 -1.1035
 2786SOL    HW2 9431   3.674   4.363   5.907  2.4148  0.5921  0.6899
 2787SOL     OW 9432   2.531   0.034   4.279  0.2419  0.0551 -0.1196
 2787SOL    HW1 9433   2.495  -0.052   4.299  0.9805 -0.4955 -1.0887
 2787SOL    HW2 9434   2.487   0.060   4.198  2.7531 -1.1611 -2.0237
 2788SOL     OW 9435   7.596   6.137   0.034 -0.3358  0.3869 -0.3200
 2788SOL    HW1 9436   7.602   6.206   0.100 -1.1625 -1.2258  1.5366
 2788SOL    HW2 9437   7.663   6.073   0.059  0.5179  0.5146 -2.0842
 2789SOL     OW 9438   6.880   1.266   6.427  0.5804 -0.3307 -0.0889
 2789SOL    HW1 9439   6.833   1.346   6.402  1.4427 -0.4890 -2.4406
 2789SOL    HW2 9440   6.891   1.218   6.345  2.1324 -1.7638  0.8940
 2790SOL     OW 9441   5.166   3.046   6.881  0.8734 -0.0176 -0.1598
 2790SOL    HW1 9442   5.195   2.963   6.918  2.1536 -0.0742 -1.1880
 2790SOL    HW2 9443   5.235   3.069   6.817 -0.7912  0.4795 -1.8661
 2791SOL     OW 9444   4.480   0.682   3.752  0.0620 -0.3335  0.4364
 2791SOL    HW1 9445   4.473   0.772   3.785  0.4951 -0.3778  0.6561
 2791SOL    HW2 9446   4.442   0.686   3.664  1.0145  0.2919  0.0347
 2792SOL     OW 9447   4.139   1.280   3.313  0.0605 -0.5138  0.2391
 2792SOL    HW1 9448   4.150   1.328   3.395 -1.3275  0.1816  0.0414
 2792SOL    HW2 9449   4.048   1.250   3.315 -0.4611  0.8032 -1.7172
 2793SOL     OW 9450   2.542   3.486   2.441 -0.1972 -0.1219 -0.2174
 2793SOL    HW1 9451   2.489   3.564   2.427  0.9201  0.5845 -0.6568
 2793SOL    HW2 9452   2.632   3.519   2.447  0.4404 -1.4745 -1.6370
 2794SOL     OW 9453   6.332   3.759   8.004 -0.1883 -0.2069  0.1711
 2794SOL    HW1 9454   6.343   3.683   8.062  0.6747 -1.0904 -1.0968
 2794SOL    HW2 9455   6.258   3.735   7.949 -0.6673  0.4018  0.5430
 2795SOL     OW 9456   7.229   6.850   2.310 -0.1161  0.2994 -0.3380
 2795SOL    HW1 9457   7.157   6.913   2.314 -0.2693  0.0834  1.9025
 2795SOL    HW2 9458   7.291   6.889   2.248  0.3571  3.4018  1.7936
 2796SOL     OW 9459   7.454   6.266   6.670 -0.3280 -0.0633  0.2360
 2796SOL    HW1 9460   7.464   6.320   6.748  0.8097 -0.0932  0.1167
 2796SOL    HW2 9461   7.511   6.306   6.605 -1.4618  0.1160 -0.6866
 2797SOL     OW 9462   2.502   0.881   5.927  0.2038 -0.0046  0.0296
 2797SOL    HW1 9463   2.596   0.866   5.915  0.0885 -0.6390 -0.1167
 2797SOL    HW2 9464   2.486   0.856   6.018  0.3519  1.0621  0.3675
 2798SOL     OW 9465   6.627   3.414   1.920 -0.3451 -0.9079 -0.1577
 2798SOL    HW1 9466   6.634   3.482   1.986 -0.2409 -1.1105  0.0412
 2798SOL    HW2 9467   6.533   3.406   1.904 -0.3326 -0.4156 -0.5005
 2799SOL     OW 9468   7.611   6.541   5.950 -0.3694  0.1473  0.5046
 2799SOL    HW1 9469   7.564   6.463   5.981  2.2272 -1.6942  0.2100
 2799SOL    HW2 9470   7.641   6.584   6.030 -2.6725  1.5653  0.7150
 2800SOL     OW 9471   0.483   1.948   5.653  0.1798 -0.5768  0.5313
 2800SOL    HW1 9472   0.394   1.956   5.618  1.1291  0.8754 -1.7386
 2800SOL    HW2 9473   0.486   2.012   5.725 -0.4034 -0.1222  0.1601
 2801SOL     OW 9474   5.773   6.649   1.665 -0.1915  0.0568 -0.2613
 2801SOL    HW1 9475   5.709   6.625   1.598 -0.8334 -0.3632  0.4969
 2801SOL    HW2 9476   5.858   6.628   1.625 -0.5415  0.1554 -1.0785
 2802SOL     OW 9477   2.216   5.881   1.326 -0.0458 -0.0902 -0.0524
 2802SOL    HW1 9478   2.262   5.959   1.294  0.1525 -0.6435 -1.1443
 2802SOL    HW2 9479   2.130   5.914   1.354  0.1736  0.5821 -0.1433
 2803SOL     OW 9480   4.916   7.195   2.212  0.2415  0.0991  0.0465
 2803SOL    HW1 9481   4.852   7.125   2.226  0.9435 -0.6391 -0.3353
 2803SOL    HW2 9482   4.948   7.181   2.122  0.8018  0.5586  0.1662
 2804SOL     OW 9483   6.578   2.106   0.995  0.3684  0.5244 -0.1525
 2804SOL    HW1 9484   6.658   2.077   1.039  0.9347  2.3883  0.1378
 2804SOL    HW2 9485   6.533   2.160   1.060 -1.3005 -0.7060 -0.2206
 2805SOL     OW 9486   8.148   6.868   2.855  0.7053  0.1193 -0.5326
 2805SOL    HW1 9487   8.084   6.927   2.896  0.9209  0.5502 -0.8063
 2805SOL    HW2 9488   8.112   6.781   2.868  0.4857  0.2928  0.0700
 2806SOL     OW 9489   1.253   4.708   7.647 -0.4596  0.2947 -0.0150
 2806SOL    HW1 9490   1.323   4.748   7.698  0.1613  0.5513 -1.0335
 2806SOL    HW2 9491   1.237   4.769   7.575 -1.9332  0.3738  0.3421
 2807SOL     OW 9492   2.526   1.597   4.061 -0.3852  0.6289 -0.1565
 2807SOL    HW1 9493   2.485   1.546   3.992 -1.0157  0.5755  0.2463
 2807SOL    HW2 9494   2.618   1.574   4.057 -0.5085  0.2065 -0.6167
 2808SOL     OW 9495   4.213   6.984   2.602  0.4014 -0.4572  0.1541
 2808SOL    HW1 9496   4.258   6.919   2.655  0.2386  1.0431  2.2335
 2808SOL    HW2 9497   4.121   6.976   2.626  0.1417 -0.5398 -0.8106
 2809SOL     OW 9498   1.582   2.439   4.888  0.0610 -0.5577 -0.1670
 2809SOL    HW1 9499   1.493   2.413   4.862 -0.3542  0.1850  0.4483
 2809SOL    HW2 9500   1.637   2.366   4.861 -1.1598 -2.4870  2.1819
 2810SOL     OW 9501   2.931   6.984   1.489 -0.5957 -0.4523 -0.5928
 2810SOL    HW1 9502   3.005   7.042   1.507 -2.0945  1.5200 -0.3484
 2810SOL    HW2 9503   2.938   6.915   1.554  0.8512 -0.1614 -0.3932
 2811SOL     OW 9504   1.435   7.496   4.760 -0.1204 -0.5223  0.1861
 2811SOL    HW1 9505   1.488   7.417   4.764 -0.7403 -1.2981 -3.2759
 2811SOL    HW2 9506   1.490   7.559   4.712 -1.0505 -0.1792 -0.4497
 2812SOL     OW 9507   4.616   3.856   0.930 -0.5420 -0.1350  0.6865
 2812SOL    HW1 9508   4.592   3.763   0.929  0.7914 -0.5119 -0.4427
 2812SOL    HW2 9509   4.706   3.857   0.964 -0.2023  0.6314 -0.1952
 2813SOL     OW 9510   0.761   5.268   6.593 -0.2020  0.0769  0.7685
 2813SOL    HW1 9511   0.831   5.285   6.656  0.2169  1.7149 -0.0760
 2813SOL    HW2 9512   0.764   5.343   6.533 -0.8166 -1.2294 -0.9872
 2814SOL     OW 9513   0.541   1.505   4.192  0.7401  0.0400 -0.5342
 2814SOL    HW1 9514   0.459   1.472   4.155 -0.7706  2.5795  0.3161
 2814SOL    HW2 9515   0.528   1.502   4.286  0.5480  2.8236 -0.4071
 2815SOL     OW 9516   3.904   6.803   5.502 -0.5231  0.2459 -0.1628
 2815SOL    HW1 9517   3.936   6.858   5.573 -1.2858 -0.5842  0.8632
 2815SOL    HW2 9518   3.972   6.808   5.435 -0.1384  1.6498  0.3002
 2816SOL     OW 9519   8.048   6.481   4.942 -1.1343  0.3776 -0.0599
 2816SOL    HW1 9520   8.050   6.574   4.967  1.8193 -0.0335  1.8683
 2816SOL    HW2 9521   7.992   6.440   5.008  0.0845  0.4389  1.0698
 2817SOL     OW 9522   5.120   5.756   6.239  0.0202 -0.2478  0.1116
 2817SOL    HW1 9523   5.043   5.804   6.208 -0.3815 -2.1503 -2.0691
 2817SOL    HW2 9524   5.084   5.675   6.275  0.9495 -0.7428 -0.0675
 2818SOL     OW 9525   1.450   4.732   0.182 -0.9676 -0.4173 -0.2740
 2818SOL    HW1 9526   1.495   4.648   0.187  0.9759  0.5637 -0.4948
 2818SOL    HW2 9527   1.384   4.720   0.114 -0.7319 -1.7679 -0.2887
 2819SOL     OW 9528   0.447   6.416   1.410 -0.2179  0.1357 -0.2555
 2819SOL    HW1 9529   0.414   6.342   1.359  0.6338  0.0115 -0.6507
 2819SOL    HW2 9530   0.542   6.400   1.416  0.0909  1.5438 -0.9389
 2820SOL     OW 9531   2.166   2.389   3.563  0.8151 -0.0483  0.5406
 2820SOL    HW1 9532   2.135   2.347   3.644  1.6751  0.1607  0.9886
 2820SOL    HW2 9533   2.237   2.446   3.591  1.3300 -0.2055 -0.4081
 2821SOL     OW 9534   0.956   5.644   4.049 -0.0711 -0.1297  0.2591
 2821SOL    HW1 9535   0.918   5.568   4.007 -1.0687  0.6597 -0.3185
 2821SOL    HW2 9536   0.995   5.611   4.130 -1.0710 -1.1279  0.3459
 2822SOL     OW 9537   1.787   6.784   0.912 -0.5455 -0.1833 -0.0682
 2822SOL    HW1 9538   1.808   6.762   1.003 -1.5518 -0.6034  0.0815
 2822SOL    HW2 9539   1.703   6.739   0.896 -0.8025  0.5871 -0.9283
 2823SOL     OW 9540   7.477   3.585   4.759  0.1453 -0.0324  0.0634
 2823SOL    HW1 9541   7.523   3.570   4.677  0.3119 -0.7451  0.2798
 2823SOL    HW2 9542   7.521   3.528   4.822 -0.4321 -0.0169  0.4873
 2824SOL     OW 9543   3.909   6.191   4.640 -0.0117  0.3101  0.2957
 2824SOL    HW1 9544   3.904   6.116   4.580 -2.3058  0.0851  0.6625
 2824SOL    HW2 9545   3.825   6.236   4.629 -0.2768  0.6004  2.8769
 2825SOL     OW 9546   1.019   1.380   1.713 -0.0147  0.3412 -0.6997
 2825SOL    HW1 9547   0.971   1.463   1.709  0.7447  0.7774 -0.9813
 2825SOL    HW2 9548   0.992   1.334   1.634  0.2135  0.6836 -0.9781
 2826SOL     OW 9549   4.385   4.231   5.805  0.3986  0.4970  0.1192
 2826SOL    HW1 9550   4.448   4.158   5.799 -1.0934 -0.7868 -0.7114
 2826SOL    HW2 9551   4.305   4.191   5.838 -0.7024  1.6005 -1.1033
 2827SOL     OW 9552   5.362   0.341   4.209  0.4289  0.2154  0.3285
 2827SOL    HW1 9553   5.379   0.284   4.134  1.6306  0.6351  0.2652
 2827SOL    HW2 9554   5.349   0.428   4.171  1.7610  0.5712  0.6281
 2828SOL     OW 9555   5.739   5.721   4.947 -0.0118 -0.7057 -0.9786
 2828SOL    HW1 9556   5.744   5.625   4.940 -3.1270 -0.9117 -2.0781
 2828SOL    HW2 9557   5.654   5.738   4.987  0.7037  1.6431 -0.2833
 2829SOL     OW 9558   4.412   7.980   5.891  0.4978  0.3737  0.1677
 2829SOL    HW1 9559   4.387   8.015   5.806  0.4423  0.8017  0.3580
 2829SOL    HW2 9560   4.478   8.040   5.924 -0.8247  1.2964  1.2475
 2830SOL     OW 9561   3.781   1.746   6.989  0.1879 -0.0746 -0.2132
 2830SOL    HW1 9562   3.773   1.835   7.024 -1.6186  0.2892 -1.4402
 2830SOL    HW2 9563   3.739   1.691   7.055  1.3480 -0.0580  0.5700
 2831SOL     OW 9564   4.650   2.497   0.852  0.2502  0.2158  0.2081
 2831SOL    HW1 9565   4.612   2.579   0.885  1.8117  0.5755  1.2312
 2831SOL    HW2 9566   4.703   2.524   0.776  0.8667  0.1922  0.6220
 2832SOL     OW 9567   4.244   2.072   2.889  0.9598  0.3018 -0.2086
 2832SOL    HW1 9568   4.153   2.044   2.877  0.6714  0.4168  1.3924
 2832SOL    HW2 9569   4.286   2.055   2.805  0.0775 -2.1765 -0.2365
 2833SOL     OW 9570   4.734   3.553   4.702  0.0888  0.0578  0.0427
 2833SOL    HW1 9571   4.774   3.609   4.768  0.0737 -2.0011  1.9310
 2833SOL    HW2 9572   4.730   3.467   4.744 -1.4963 -0.9656 -2.0513
 2834SOL     OW 9573   4.538   1.991   4.385 -0.1544  0.0549  0.1761
 2834SOL    HW1 9574   4.603   1.932   4.349  0.1994  1.3097 -1.3799
 2834SOL    HW2 9575   4.460   1.977   4.331  0.7566  2.8406 -2.1336
 2835SOL     OW 9576   0.483   3.935   2.840  0.3124 -0.3700 -0.3910
 2835SOL    HW1 9577   0.546   3.944   2.769  0.0744  0.5022 -0.5140
 2835SOL    HW2 9578   0.430   3.859   2.816 -1.3190  1.2854 -2.4378
 2836SOL     OW 9579   6.645   0.932   0.049 -0.3934  0.3540 -0.5808
 2836SOL    HW1 9580   6.722   0.875   0.047  0.1437  1.0707 -1.1888
 2836SOL    HW2 9581   6.586   0.895  -0.016 -0.2860  0.1722 -0.5750
 2837SOL     OW 9582   2.730   6.196   5.751  0.0203 -0.3778  0.2190
 2837SOL    HW1 9583   2.761   6.279   5.786 -0.8397  1.0517 -2.1893
 2837SOL    HW2 9584   2.651   6.177   5.801 -0.7224  1.1732 -0.3168
 2838SOL     OW 9585   2.311   5.410   4.873  0.0509  0.4289  0.4483
 2838SOL    HW1 9586   2.395   5.408   4.827 -0.2150 -0.5223 -0.0083
 2838SOL    HW2 9587   2.333   5.392   4.964  0.6011  2.4675  0.7741
 2839SOL     OW 9588   2.194   2.949   3.800  0.1480  0.1054 -0.2387
 2839SOL    HW1 9589   2.282   2.925   3.772 -0.5081 -0.7138 -1.6842
 2839SOL    HW2 9590   2.194   3.045   3.797  0.7952  0.0968 -0.8594
 2840SOL     OW 9591   7.859   5.315   0.231  0.2677 -0.3613  0.0645
 2840SOL    HW1 9592   7.765   5.298   0.238  0.2859 -0.1979  0.9058
 2840SOL    HW2 9593   7.865   5.405   0.198  0.1568 -0.9583 -1.6814
 2841SOL     OW 9594   7.008   4.035   0.761 -0.6222 -0.3608  0.1472
 2841SOL    HW1 9595   6.966   3.953   0.787 -2.4596  0.6840  0.6939
 2841SOL    HW2 9596   7.074   4.050   0.828 -0.8923 -0.9482  0.5622
 2842SOL     OW 9597   0.812   0.770   6.094 -0.4167 -0.2321  0.2236
 2842SOL    HW1 9598   0.896   0.754   6.052 -0.1012 -1.6163  1.3133
 2842SOL    HW2 9599   0.750   0.717   6.044 -0.0298 -1.9340  1.4464
 2843SOL     OW 9600   3.486   0.509   4.643 -0.3037  0.1438  0.1596
 2843SOL    HW1 9601   3.477   0.424   4.599  0.5674  0.2654 -0.2789
 2843SOL    HW2 9602   3.439   0.570   4.586 -0.2960  0.0812  0.0858
 2844SOL     OW 9603   2.818   1.860   2.998 -0.3374 -0.5140  0.0810
 2844SOL    HW1 9604   2.772   1.790   2.951  1.1653 -0.7311 -1.1258
 2844SOL    HW2 9605   2.889   1.886   2.940  0.3061  0.7039  1.3456
 2845SOL     OW 9606   4.043   2.485   2.636  0.2297 -0.0742 -0.3071
 2845SOL    HW1 9607   4.104   2.411   2.634  1.2153  0.7151 -0.4064
 2845SOL    HW2 9608   4.095   2.560   2.605 -1.4232  0.2105 -2.6793
 2846SOL     OW 9609   3.830   6.000   1.273 -0.1824 -0.2579 -0.5158
 2846SOL    HW1 9610   3.897   5.945   1.315 -0.5949 -0.4934 -0.1659
 2846SOL    HW2 9611   3.797   6.056   1.343 -1.7523 -1.5087 -0.2066
 2847SOL     OW 9612   0.813   1.101   2.385 -0.1517 -0.0224 -0.6501
 2847SOL    HW1 9613   0.869   1.139   2.452  2.2491  0.5179 -2.8078
 2847SOL    HW2 9614   0.863   1.028   2.349 -2.5340 -2.0560 -0.1055
 2848SOL     OW 9615   1.512   3.736   6.446 -0.6007  0.1893 -0.4254
 2848SOL    HW1 9616   1.452   3.760   6.516  1.4781  1.2418  1.1060
 2848SOL    HW2 9617   1.512   3.640   6.446  0.8632  0.0648  2.5377
 2849SOL     OW 9618   6.709   2.090   7.214 -0.3017 -0.2266  1.1460
 2849SOL    HW1 9619   6.758   2.145   7.152 -2.4987 -0.1414 -0.6345
 2849SOL    HW2 9620   6.654   2.152   7.261 -0.3344 -0.5578  1.5479
 2850SOL     OW 9621   7.755   0.558   3.650  0.1800  0.0608  0.5152
 2850SOL    HW1 9622   7.825   0.494   3.641  0.4242  0.5253 -1.4300
 2850SOL    HW2 9623   7.679   0.507   3.678  0.0527 -1.3853 -2.1017
 2851SOL     OW 9624   4.103   7.097   4.836  0.5202  0.5794  0.8878
 2851SOL    HW1 9625   4.132   7.068   4.750 -0.9364  0.0550  0.5363
 2851SOL    HW2 9626   4.139   7.185   4.847  2.2807 -0.0618  0.5584
 2852SOL     OW 9627   2.767   4.002   2.097 -0.3205 -0.0104  0.3042
 2852SOL    HW1 9628   2.749   4.071   2.033 -1.7680  1.0493  1.7690
 2852SOL    HW2 9629   2.731   4.036   2.179 -1.4923 -2.7308  1.0008
 2853SOL     OW 9630   7.908   2.809   5.875  0.3380 -0.8164  0.0564
 2853SOL    HW1 9631   7.843   2.749   5.914  0.4417 -0.9685 -0.0029
 2853SOL    HW2 9632   7.989   2.758   5.872  0.8169 -0.1738  1.3952
 2854SOL     OW 9633   2.012   7.566   4.863 -0.3443 -0.2174 -0.1564
 2854SOL    HW1 9634   2.043   7.548   4.774 -0.8791  0.5909 -0.5209
 2854SOL    HW2 9635   2.073   7.631   4.896  1.7398 -2.6785  1.2516
 2855SOL     OW 9636   6.641   6.892   2.541  0.1766  0.1972 -0.1773
 2855SOL    HW1 9637   6.561   6.844   2.560  1.4565 -0.6666  3.8465
 2855SOL    HW2 9638   6.685   6.839   2.475 -1.3165 -0.6978 -0.5099
 2856SOL     OW 9639   7.445   6.350   1.015 -0.1542 -0.3207  0.2061
 2856SOL    HW1 9640   7.397   6.416   0.964  2.1635  0.8035 -0.7008
 2856SOL    HW2 9641   7.443   6.383   1.104  1.1701  1.2364 -0.2701
 2857SOL     OW 9642   2.917   5.228   0.654  0.5527 -0.2799  0.0312
 2857SOL    HW1 9643   2.832   5.271   0.664  0.4980 -0.4620  0.3731
 2857SOL    HW2 9644   2.957   5.271   0.579  0.5658  0.4792  0.4651
 2858SOL     OW 9645   3.101   3.370   0.621  0.1476 -0.5175 -0.2789
 2858SOL    HW1 9646   3.028   3.412   0.666 -0.7091 -3.0016  0.8267
 2858SOL    HW2 9647   3.061   3.320   0.550  0.6609 -2.1990  0.5650
 2859SOL     OW 9648   5.415   7.959   4.996  0.2465  0.3824  0.5356
 2859SOL    HW1 9649   5.498   8.000   5.021 -0.1498  1.3477  0.3092
 2859SOL    HW2 9650   5.348   8.026   5.014 -0.1893  0.7275 -1.9140
 2860SOL     OW 9651   3.528   2.729   6.513  0.2094  0.2369 -0.3727
 2860SOL    HW1 9652   3.451   2.673   6.502  0.8200 -0.7928  0.4297
 2860SOL    HW2 9653   3.593   2.673   6.556  0.4820  1.8226  1.4243
 2861SOL     OW 9654   4.360   2.402   7.581 -0.2480 -0.0419 -0.6298
 2861SOL    HW1 9655   4.440   2.455   7.583 -0.5648  0.4421  0.7857
 2861SOL    HW2 9656   4.375   2.334   7.648 -1.7440  1.2308  1.0854
 2862SOL     OW 9657   6.942   0.741   6.414 -1.0787 -0.0373 -0.4050
 2862SOL    HW1 9658   6.992   0.788   6.348 -1.4186  0.0198 -0.6244
 2862SOL    HW2 9659   7.000   0.670   6.443 -0.8520  0.0628 -0.6155
 2863SOL     OW 9660   3.164   1.489   1.410  0.2672 -0.0461  0.1730
 2863SOL    HW1 9661   3.136   1.565   1.461  0.8163  1.1214 -1.2002
 2863SOL    HW2 9662   3.132   1.506   1.321  2.4198 -0.2188 -0.7071
 2864SOL     OW 9663   0.916   7.929   1.164 -0.2546 -0.4613  0.0901
 2864SOL    HW1 9664   0.906   8.023   1.152 -3.8251 -0.6541  0.3179
 2864SOL    HW2 9665   0.876   7.912   1.249  2.1900 -2.0222  1.0298
 2865SOL     OW 9666   7.849   3.348   0.394 -0.2207 -0.1083  0.3515
 2865SOL    HW1 9667   7.844   3.254   0.379  0.9105 -0.2620  0.8062
 2865SOL    HW2 9668   7.896   3.382   0.318  1.2657 -0.2332  1.1657
 2866SOL     OW 9669   2.653   3.802   5.787  0.0286  0.0287 -0.1299
 2866SOL    HW1 9670   2.559   3.817   5.776 -0.3686  1.4364  3.6761
 2866SOL    HW2 9671   2.659   3.709   5.811 -0.4750  0.0266  0.0066
 2867SOL     OW 9672   2.940   3.439   1.022  0.1204  0.0673  0.0685
 2867SOL    HW1 9673   2.936   3.366   1.084  0.3459  0.0795  0.1009
 2867SOL    HW2 9674   2.915   3.516   1.074  2.5447  0.4687  0.7941
 2868SOL     OW 9675   1.698   1.956   4.814 -0.0744  0.7095  0.6172
 2868SOL    HW1 9676   1.610   1.926   4.835 -0.4515  0.4024 -1.1896
 2868SOL    HW2 9677   1.756   1.887   4.844 -0.6562 -0.1893 -0.2674
 2869SOL     OW 9678   1.991   5.980   0.204  0.1605 -1.0828 -0.1686
 2869SOL    HW1 9679   1.939   6.035   0.147  2.1756  0.9275 -0.2099
 2869SOL    HW2 9680   2.077   5.975   0.162  0.8681 -1.8899  1.2734
 2870SOL     OW 9681   4.338   0.472   7.398  0.0019 -0.8583 -0.6135
 2870SOL    HW1 9682   4.408   0.423   7.442 -0.5095 -1.1525 -0.1174
 2870SOL    HW2 9683   4.310   0.537   7.463 -0.1653 -0.7169 -0.8260
 2871SOL     OW 9684   0.947   1.447   7.700  0.5027 -0.6194  0.3044
 2871SOL    HW1 9685   1.018   1.403   7.747 -1.8124  0.0899  5.0119
 2871SOL    HW2 9686   0.881   1.379   7.689  0.9272 -0.7220 -2.0233
 2872SOL     OW 9687   0.428   2.855   7.815 -0.5611 -0.6758 -0.1286
 2872SOL    HW1 9688   0.437   2.929   7.875  0.1932 -0.5136 -0.4344
 2872SOL    HW2 9689   0.504   2.800   7.834 -0.7807 -1.0529 -0.3466
 2873SOL     OW 9690   0.334   4.369   2.108  0.7258 -0.2609  0.4177
 2873SOL    HW1 9691   0.396   4.432   2.145  0.7826  0.0567 -0.2058
 2873SOL    HW2 9692   0.388   4.311   2.053  0.2816  1.0548 -1.4990
 2874SOL     OW 9693   3.575   6.131   5.847  0.8990  0.5411  0.1318
 2874SOL    HW1 9694   3.499   6.136   5.788 -0.1474 -1.7985  1.1625
 2874SOL    HW2 9695   3.557   6.197   5.914  0.7104  1.2828 -0.6278
 2875SOL     OW 9696   0.469   0.528   6.269  0.5903  0.9747 -0.5295
 2875SOL    HW1 9697   0.550   0.564   6.304 -0.4057  1.9667  0.8360
 2875SOL    HW2 9698   0.429   0.482   6.343 -0.0456  0.3770 -1.2231
 2876SOL     OW 9699   0.454   3.218   6.831 -0.1887  0.7101  0.4923
 2876SOL    HW1 9700   0.543   3.188   6.814 -0.6171 -0.6092  0.5215
 2876SOL    HW2 9701   0.416   3.229   6.744  0.0400  1.4290  0.4761
 2877SOL     OW 9702   8.122   0.224   1.010 -0.4227  0.7228 -0.0842
 2877SOL    HW1 9703   8.130   0.272   1.093  1.9294 -0.9193  0.7618
 2877SOL    HW2 9704   8.179   0.271   0.949  2.0427 -0.9143  0.8004
 2878SOL     OW 9705   6.380   5.255   2.082 -0.2914 -0.1992  0.0496
 2878SOL    HW1 9706   6.328   5.232   2.005 -0.0874 -1.1461  0.1787
 2878SOL    HW2 9707   6.449   5.189   2.085  1.3474  1.3955 -0.4912
 2879SOL     OW 9708   7.436   1.843   2.728 -0.0381 -0.0506 -0.4615
 2879SOL    HW1 9709   7.379   1.899   2.780  0.7696  1.4142 -1.0879
 2879SOL    HW2 9710   7.520   1.845   2.773  0.5173  0.7939 -1.4917
 2880SOL     OW 9711   2.334   4.519   1.203 -0.1563  0.2624  0.2303
 2880SOL    HW1 9712   2.361   4.505   1.113 -1.7280  0.2353 -0.2692
 2880SOL    HW2 9713   2.272   4.592   1.199 -1.3441 -0.6427  1.0429
 2881SOL     OW 9714   7.480   3.028   5.596 -0.2829 -0.6614 -0.0747
 2881SOL    HW1 9715   7.563   2.995   5.630 -0.9253 -0.8805  1.3373
 2881SOL    HW2 9716   7.449   2.960   5.536  1.1648  0.0069 -1.6549
 2882SOL     OW 9717   3.962   3.013   3.351 -0.3535 -0.5155 -0.1533
 2882SOL    HW1 9718   4.033   3.047   3.296 -1.2810 -3.2397 -3.3617
 2882SOL    HW2 9719   3.900   3.085   3.358 -0.3495 -0.1289 -3.0865
 2883SOL     OW 9720   5.989   4.029   5.879  0.1612 -0.1217 -0.0785
 2883SOL    HW1 9721   6.082   4.016   5.863  0.1528 -1.0815  0.5581
 2883SOL    HW2 9722   5.945   3.967   5.821 -0.1280  0.8354 -0.9143
 2884SOL     OW 9723   4.881   4.641   5.211 -0.4650  0.3290 -0.1676
 2884SOL    HW1 9724   4.808   4.667   5.154 -1.0704 -0.1623  0.3745
 2884SOL    HW2 9725   4.907   4.555   5.178 -0.7921  0.0600  0.2612
 2885SOL     OW 9726   7.470   6.868   5.980  0.0971  0.7937  0.2670
 2885SOL    HW1 9727   7.389   6.914   5.957 -0.1785  0.2054  0.0256
 2885SOL    HW2 9728   7.441   6.782   6.009  0.7321 -0.1819 -1.7960
 2886SOL     OW 9729   0.077   1.729   3.350  0.6124 -0.2678 -0.5748
 2886SOL    HW1 9730   0.052   1.646   3.390  1.3136 -0.3550 -0.2887
 2886SOL    HW2 9731   0.015   1.742   3.278 -1.2551  0.3086  1.0362
 2887SOL     OW 9732   5.086   1.660   5.588  0.0464  0.8090 -0.8592
 2887SOL    HW1 9733   5.013   1.656   5.650 -0.3278  1.0189 -1.2795
 2887SOL    HW2 9734   5.046   1.642   5.503  0.7490 -0.6636 -0.9077
 2888SOL     OW 9735   3.773   5.309   6.135 -0.1910 -0.3855 -0.4026
 2888SOL    HW1 9736   3.691   5.284   6.178 -0.4456 -0.2013 -0.7768
 2888SOL    HW2 9737   3.784   5.402   6.155 -0.4877 -0.2152 -1.0175
 2889SOL     OW 9738   7.153   0.559   3.278 -0.7958  1.0501 -0.2631
 2889SOL    HW1 9739   7.222   0.516   3.227  0.8338  1.3066  1.6029
 2889SOL    HW2 9740   7.127   0.635   3.225 -1.3330 -0.3135 -2.0404
 2890SOL     OW 9741   4.542   2.926   2.574  0.1942 -0.6139  0.2832
 2890SOL    HW1 9742   4.499   2.979   2.641  3.6543  0.5423  1.8108
 2890SOL    HW2 9743   4.513   2.837   2.592 -1.3735  0.0514  1.2774
 2891SOL     OW 9744   4.853   6.510   1.456  0.1763  0.3693 -0.2404
 2891SOL    HW1 9745   4.872   6.489   1.365 -2.9944 -0.3415 -0.8590
 2891SOL    HW2 9746   4.854   6.425   1.501 -0.3901  0.4493 -0.0750
 2892SOL     OW 9747   7.652   2.692   5.949 -0.3065 -0.5256  1.1693
 2892SOL    HW1 9748   7.590   2.718   6.018 -0.3158 -0.7843  1.2568
 2892SOL    HW2 9749   7.596   2.659   5.879 -0.3803  0.8549  0.5416
 2893SOL     OW 9750   7.280   5.736   3.724  0.5724  0.3621 -0.5663
 2893SOL    HW1 9751   7.258   5.643   3.734 -1.1475  0.8484  0.6277
 2893SOL    HW2 9752   7.311   5.744   3.634 -0.8267 -1.0985 -1.2285
 2894SOL     OW 9753   8.028   5.389   5.505  0.2363 -0.5545  0.2551
 2894SOL    HW1 9754   8.063   5.310   5.464  0.3461 -0.3800  0.0132
 2894SOL    HW2 9755   7.974   5.356   5.578  1.6739 -0.8069  1.2522
 2895SOL     OW 9756   7.149   1.267   1.114  0.1136  0.0559  0.0843
 2895SOL    HW1 9757   7.213   1.318   1.164 -0.2252  0.8743 -0.2995
 2895SOL    HW2 9758   7.064   1.307   1.137 -0.1997 -0.6137  0.1076
 2896SOL     OW 9759   4.837   6.978   3.046  0.0460  0.3060  0.5438
 2896SOL    HW1 9760   4.795   7.014   3.125  0.7944 -1.2785  1.7099
 2896SOL    HW2 9761   4.889   6.905   3.078  1.3751  0.4032 -1.2837
 2897SOL     OW 9762   7.664   5.489   0.624 -0.0108  0.3506  0.2361
 2897SOL    HW1 9763   7.686   5.415   0.681  1.3279  0.0388 -0.6355
 2897SOL    HW2 9764   7.637   5.448   0.542 -0.2355  0.8154  0.0785
 2898SOL     OW 9765   5.973   6.368   5.694 -0.3694  0.3398 -0.0938
 2898SOL    HW1 9766   6.030   6.294   5.716 -0.6019 -0.2808 -1.4732
 2898SOL    HW2 9767   5.967   6.366   5.599 -2.3343  0.6765 -0.0131
 2899SOL     OW 9768   5.151   1.208   6.973  0.2584 -0.0549  0.1901
 2899SOL    HW1 9769   5.185   1.161   6.896 -3.4972 -1.8904 -0.5467
 2899SOL    HW2 9770   5.194   1.293   6.969  1.7799 -0.8120 -2.7369
 2900SOL     OW 9771   6.620   0.324   1.735 -0.0220 -0.3349 -0.0087
 2900SOL    HW1 9772   6.645   0.232   1.737  0.9988 -0.0793 -0.0815
 2900SOL    HW2 9773   6.698   0.369   1.701 -0.2497  0.6195  0.6835
 2901SOL     OW 9774   0.720   4.355   7.648 -0.0583 -0.0679 -0.2057
 2901SOL    HW1 9775   0.692   4.340   7.739 -0.6533  1.2138 -0.1693
 2901SOL    HW2 9776   0.686   4.279   7.600 -2.7869  0.8987  0.0214
 2902SOL     OW 9777   5.777   5.457   5.286  0.0073 -0.9583  0.0424
 2902SOL    HW1 9778   5.686   5.441   5.262  0.3214 -1.4066 -0.9151
 2902SOL    HW2 9779   5.787   5.552   5.279  0.1423 -1.0734 -1.9642
 2903SOL     OW 9780   0.350   2.868   0.134 -0.6395 -0.4261  0.2962
 2903SOL    HW1 9781   0.422   2.914   0.092 -0.0215 -0.1765  1.5953
 2903SOL    HW2 9782   0.279   2.872   0.070  0.6172 -1.1067 -1.2225
 2904SOL     OW 9783   6.426   7.475   7.355 -0.0278 -0.3431 -0.5721
 2904SOL    HW1 9784   6.430   7.390   7.310 -0.7131  1.9363 -5.6735
 2904SOL    HW2 9785   6.492   7.528   7.312 -2.8641  3.0515 -1.2164
 2905SOL     OW 9786   6.658   7.669   7.859  0.3716  0.1893 -0.0392
 2905SOL    HW1 9787   6.637   7.600   7.796  1.4928 -1.3660  1.2222
 2905SOL    HW2 9788   6.754   7.673   7.860  0.3406  1.0814  0.6462
 2906SOL     OW 9789   4.688   3.730   2.537  0.4141 -0.7954  0.3689
 2906SOL    HW1 9790   4.732   3.663   2.485 -1.0702  0.2597 -2.4522
 2906SOL    HW2 9791   4.598   3.731   2.504  0.0404  1.6272  1.2430
 2907SOL     OW 9792   7.392   4.224   2.612  0.2464 -0.4453  0.1369
 2907SOL    HW1 9793   7.425   4.254   2.527 -0.5915 -2.6508 -1.0538
 2907SOL    HW2 9794   7.432   4.284   2.675  3.2077 -0.4481 -1.5379
 2908SOL     OW 9795   0.280   1.701   1.293 -0.0115 -0.5930 -0.7063
 2908SOL    HW1 9796   0.209   1.740   1.241 -0.1158 -1.2499 -1.0664
 2908SOL    HW2 9797   0.235   1.653   1.363  0.0085 -2.0190 -1.6340
 2909SOL     OW 9798   1.055   6.863   2.136  0.3143 -0.1122 -1.1076
 2909SOL    HW1 9799   1.058   6.837   2.044  0.4256 -0.0704 -1.1162
 2909SOL    HW2 9800   1.147   6.871   2.162  0.4181 -3.1617 -0.1137
 2910SOL     OW 9801   1.795   1.846   5.984  0.0012  0.2655  0.0026
 2910SOL    HW1 9802   1.724   1.910   5.990 -0.0963  0.2991 -1.2966
 2910SOL    HW2 9803   1.872   1.898   5.963  0.9669  0.5317  3.4889
 2911SOL     OW 9804   6.470   7.421   3.739  0.0600 -0.3653 -0.3008
 2911SOL    HW1 9805   6.411   7.483   3.781  0.6520  1.0096 -1.4213
 2911SOL    HW2 9806   6.460   7.437   3.646  0.6822 -1.5573 -0.5937
 2912SOL     OW 9807   7.986   3.117   0.337  0.3841 -0.1431 -0.3148
 2912SOL    HW1 9808   7.982   3.075   0.424 -1.9536 -0.1207 -0.3597
 2912SOL    HW2 9809   8.041   3.058   0.285  1.1967 -0.5562  0.9699
 2913SOL     OW 9810   1.145   3.882   2.233  0.0428 -0.4910  0.0952
 2913SOL    HW1 9811   1.210   3.909   2.298  0.6215  0.2360 -0.7472
 2913SOL    HW2 9812   1.113   3.964   2.196 -2.1918 -0.7714  1.2298
 2914SOL     OW 9813   6.282   5.224   1.387  0.4578 -0.0301  0.3572
 2914SOL    HW1 9814   6.256   5.292   1.325  0.3414  0.3250  0.7968
 2914SOL    HW2 9815   6.286   5.144   1.334  1.7887  0.5191 -0.4446
 2915SOL     OW 9816   2.780   7.896   3.023 -0.2832 -0.1456 -0.0419
 2915SOL    HW1 9817   2.709   7.960   3.019 -0.4083 -0.0443  2.2549
 2915SOL    HW2 9818   2.843   7.933   3.085  0.1051 -1.7705  0.5991
 2916SOL     OW 9819   4.426   1.434   3.354  0.3502  0.2670  0.1382
 2916SOL    HW1 9820   4.409   1.494   3.426  1.0270 -2.5304  2.8429
 2916SOL    HW2 9821   4.400   1.348   3.388  2.0998 -1.4222 -2.4215
 2917SOL     OW 9822   5.568   5.470   4.227  0.2793 -0.4175  0.1091
 2917SOL    HW1 9823   5.485   5.454   4.272  0.9877 -1.3758  1.1350
 2917SOL    HW2 9824   5.613   5.535   4.282  0.7040 -0.7938  0.2095
 2918SOL     OW 9825   2.242   0.005   1.801 -0.5032 -0.5466  0.2866
 2918SOL    HW1 9826   2.270  -0.026   1.887  0.4661  0.2870  0.2913
 2918SOL    HW2 9827   2.180   0.075   1.819 -0.0524 -0.1519  0.3153
 2919SOL     OW 9828   3.429   3.018   3.384 -0.0787 -0.8568  0.2283
 2919SOL    HW1 9829   3.475   2.999   3.466  0.5684 -0.2519  0.0165
 2919SOL    HW2 9830   3.437   3.113   3.374 -2.3093 -0.5552  0.7456
 2920SOL     OW 9831   2.991   7.267   0.558 -0.3057  0.6045 -0.4708
 2920SOL    HW1 9832   3.049   7.295   0.628 -1.2424 -0.9077  0.9951
 2920SOL    HW2 9833   2.934   7.342   0.542  0.8427  1.4569 -0.6450
 2921SOL     OW 9834   5.777   0.001   4.778 -0.1286 -0.1924 -0.0104
 2921SOL    HW1 9835   5.752   0.054   4.854  0.7061  0.1899  0.0135
 2921SOL    HW2 9836   5.694  -0.034   4.745 -0.3917 -1.6011  1.9469
 2922SOL     OW 9837   3.472   1.281   3.097  0.2054 -0.3490  0.3592
 2922SOL    HW1 9838   3.550   1.319   3.059  0.3839 -2.3055 -1.4321
 2922SOL    HW2 9839   3.473   1.309   3.189  1.7835  1.4697 -0.1720
 2923SOL     OW 9840   4.976   6.594   3.423 -0.2338 -0.0700 -0.0648
 2923SOL    HW1 9841   4.938   6.646   3.494 -0.6601 -0.9434  0.3629
 2923SOL    HW2 9842   5.025   6.657   3.370 -1.8149  1.0145 -0.3107
 2924SOL     OW 9843   5.765   3.423   0.497 -0.3583 -0.1889  0.1607
 2924SOL    HW1 9844   5.757   3.477   0.418  2.1041  0.2930  0.1644
 2924SOL    HW2 9845   5.786   3.485   0.566  0.0472 -0.9010  0.6821
 2925SOL     OW 9846   0.566   6.524   4.621 -0.2364 -0.6202  0.5212
 2925SOL    HW1 9847   0.552   6.611   4.659  1.9498  0.0036  0.0144
 2925SOL    HW2 9848   0.652   6.530   4.579 -0.6513 -2.6242 -0.7175
 2926SOL     OW 9849   1.167   4.317   1.941 -0.0061 -0.0945 -0.1842
 2926SOL    HW1 9850   1.098   4.323   1.876  0.4716  0.8113 -0.6142
 2926SOL    HW2 9851   1.236   4.266   1.898  0.7688  1.4276 -0.8295
 2927SOL     OW 9852   0.205   6.681   6.023  0.3656 -0.1413  0.1906
 2927SOL    HW1 9853   0.195   6.754   5.962 -0.7772 -0.6696 -0.2835
 2927SOL    HW2 9854   0.299   6.679   6.044  0.8693 -0.2078 -1.8890
 2928SOL     OW 9855   1.963   3.857   1.244 -0.1829 -0.4451 -0.0504
 2928SOL    HW1 9856   1.942   3.930   1.185 -0.8181 -2.5019 -2.5035
 2928SOL    HW2 9857   1.881   3.842   1.292 -0.1480  0.1903  0.2294
 2929SOL     OW 9858   3.321   2.364   4.012 -0.6786 -0.0602 -0.1429
 2929SOL    HW1 9859   3.325   2.270   4.031 -2.5596  0.1241  1.5310
 2929SOL    HW2 9860   3.245   2.373   3.955 -0.2611  0.4204 -0.6293
 2930SOL     OW 9861   3.979   5.875   2.772 -0.0783  0.1762  0.0164
 2930SOL    HW1 9862   4.038   5.910   2.839 -0.1864  0.5761 -0.0959
 2930SOL    HW2 9863   3.912   5.942   2.762 -1.9004 -1.2129  1.8391
 2931SOL     OW 9864   2.652   3.070   4.363 -0.4095 -0.1300 -0.2978
 2931SOL    HW1 9865   2.663   3.052   4.270  1.8236 -1.2763  0.1129
 2931SOL    HW2 9866   2.710   3.008   4.407  0.0886  1.6493  1.7645
 2932SOL     OW 9867   7.218   4.713   2.211  0.4140  0.3283 -0.1500
 2932SOL    HW1 9868   7.245   4.703   2.120 -2.4230  0.3368 -1.0770
 2932SOL    HW2 9869   7.233   4.628   2.251 -2.2902 -1.0601 -1.8449
 2933SOL     OW 9870   1.649   7.775   2.877 -0.0410 -0.4632  0.4375
 2933SOL    HW1 9871   1.654   7.732   2.792  0.9323 -1.4244  0.9543
 2933SOL    HW2 9872   1.666   7.867   2.859 -0.2296 -0.5942 -0.4463
 2934SOL     OW 9873   4.755   7.009   7.504  0.2756 -0.2994 -0.0098
 2934SOL    HW1 9874   4.671   6.993   7.548 -0.1009  0.4086 -0.4540
 2934SOL    HW2 9875   4.742   6.975   7.415  0.9537 -1.5058  0.3312
 2935SOL     OW 9876   5.747   3.838   3.271 -0.2478  0.0424 -0.2128
 2935SOL    HW1 9877   5.731   3.756   3.318 -1.2939 -0.2295 -1.0205
 2935SOL    HW2 9878   5.670   3.850   3.216  0.6680  0.6734 -1.4032
 2936SOL     OW 9879   2.814   4.151   3.449  0.2106  0.9394  0.3831
 2936SOL    HW1 9880   2.795   4.058   3.435  0.0091  1.1279 -0.6806
 2936SOL    HW2 9881   2.729   4.194   3.441 -0.2241  0.9822  3.6215
 2937SOL     OW 9882   3.877   1.577   3.051  0.2431  0.0006 -0.3525
 2937SOL    HW1 9883   3.893   1.516   3.123 -0.2830  0.3417  0.0591
 2937SOL    HW2 9884   3.942   1.645   3.063 -0.2668  0.4018  0.2010
 2938SOL     OW 9885   3.163   3.314   2.557 -0.2582  0.3110  0.0388
 2938SOL    HW1 9886   3.240   3.260   2.576 -0.5908 -0.5493 -0.9388
 2938SOL    HW2 9887   3.197   3.403   2.552  0.8067 -0.1149 -0.9500
 2939SOL     OW 9888   2.885   8.157   6.861 -0.2681 -0.0791 -0.4606
 2939SOL    HW1 9889   2.872   8.243   6.901 -0.3000 -0.6539  0.8094
 2939SOL    HW2 9890   2.810   8.145   6.804 -0.3683  0.6564 -0.4823
 2940SOL     OW 9891   4.445   6.133   0.134  0.0030 -0.3336  0.1197
 2940SOL    HW1 9892   4.474   6.042   0.142 -0.4623 -0.5268 -0.3158
 2940SOL    HW2 9893   4.365   6.138   0.186  0.6587  0.1340  1.1081
 2941SOL     OW 9894   7.745   0.008   2.084  0.0322 -0.3420  0.1590
 2941SOL    HW1 9895   7.790   0.092   2.069 -0.9865 -0.0019 -1.1343
 2941SOL    HW2 9896   7.807  -0.058   2.053  0.7073 -0.0683  0.8772
 2942SOL     OW 9897   3.827   5.013   6.450 -0.0695 -0.6287  0.3496
 2942SOL    HW1 9898   3.861   5.019   6.361 -2.2315 -2.0859 -0.6925
 2942SOL    HW2 9899   3.859   4.929   6.482 -1.5372 -1.4203 -0.1679
 2943SOL     OW 9900   0.329   3.256   6.613  0.3166 -0.4411  0.0293
 2943SOL    HW1 9901   0.235   3.261   6.600  0.6507 -1.1131 -3.6007
 2943SOL    HW2 9902   0.363   3.340   6.582  1.0994 -1.5572 -2.4267
 2944SOL     OW 9903   0.514   6.577   1.717  0.1852  0.2746 -0.5482
 2944SOL    HW1 9904   0.438   6.608   1.667  0.9175  0.1679 -1.7678
 2944SOL    HW2 9905   0.589   6.620   1.676  0.7380  0.9955  1.1357
 2945SOL     OW 9906   4.802   5.004   2.876 -0.4814  0.3131  0.0848
 2945SOL    HW1 9907   4.735   5.012   2.809 -1.2658 -0.9001  0.6867
 2945SOL    HW2 9908   4.841   5.091   2.882 -1.5516  0.8660 -0.7439
 2946SOL     OW 9909   3.001   5.550   0.504  0.3033  0.2126 -0.5276
 2946SOL    HW1 9910   3.026   5.458   0.493 -0.3325 -0.2002  1.2645
 2946SOL    HW2 9911   3.073   5.588   0.553  0.5434  0.6804 -1.2299
 2947SOL     OW 9912   5.494   2.239   7.322 -0.1447 -0.6920 -0.3993
 2947SOL    HW1 9913   5.478   2.164   7.265 -0.8777  0.1533 -1.3390
 2947SOL    HW2 9914   5.575   2.218   7.368 -0.7515 -2.4049 -0.0448
 2948SOL     OW 9915   4.030   5.507   4.931  0.3160  0.1984 -1.1022
 2948SOL    HW1 9916   4.066   5.590   4.900  1.3441 -0.0920 -0.7188
 2948SOL    HW2 9917   4.059   5.442   4.867  0.3524 -0.0181 -0.8711
 2949SOL     OW 9918   3.014   7.630   6.100  0.2650  0.1470  0.1323
 2949SOL    HW1 9919   2.928   7.594   6.121  1.1696 -1.0195  2.0642
 2949SOL    HW2 9920   3.008   7.653   6.007 -1.8330 -0.7421 -0.0034
 2950SOL     OW 9921   0.220   2.642   7.543  0.0020 -0.6607 -0.1341
 2950SOL    HW1 9922   0.212   2.724   7.592 -0.1702 -0.1271 -1.0357
 2950SOL    HW2 9923   0.260   2.667   7.460 -1.0517 -1.3133 -0.8603
 2951SOL     OW 9924   6.818   4.462   6.010  0.2173  0.8277 -0.4195
 2951SOL    HW1 9925   6.875   4.402   6.059 -0.1848  0.6582 -0.1547
 2951SOL    HW2 9926   6.737   4.413   5.997 -0.0635  1.2611 -0.3226
 2952SOL     OW 9927   7.537   7.915   5.707 -0.6547 -0.1059 -0.0609
 2952SOL    HW1 9928   7.622   7.933   5.747 -0.0587  2.3884 -2.1590
 2952SOL    HW2 9929   7.555   7.849   5.639 -0.5012 -0.0258 -0.0982
 2953SOL     OW 9930   5.582   7.795   4.363  0.6764  0.1016  0.0870
 2953SOL    HW1 9931   5.499   7.809   4.410  0.8735  0.4549  0.3312
 2953SOL    HW2 9932   5.557   7.797   4.271  0.3041 -0.4838  0.1671
 2954SOL     OW 9933   3.397   4.988   0.602  0.1777  0.0079 -0.2211
 2954SOL    HW1 9934   3.481   5.034   0.602  0.2733 -0.1597  0.1430
 2954SOL    HW2 9935   3.339   5.043   0.654 -0.1519  0.4911 -1.0779
 2955SOL     OW 9936   0.583   7.990   2.344 -0.1417  0.0504 -0.1466
 2955SOL    HW1 9937   0.536   8.011   2.264  0.0309 -0.9145 -0.5092
 2955SOL    HW2 9938   0.562   8.062   2.404 -2.4140 -0.5380 -0.1476
 2956SOL     OW 9939   2.815   7.071   3.040 -0.1749 -0.2241  0.3828
 2956SOL    HW1 9940   2.877   7.099   2.973 -0.9560  1.2953  0.2654
 2956SOL    HW2 9941   2.747   7.023   2.991 -0.6879  0.7883  0.0730
 2957SOL     OW 9942   6.267   3.326   5.485 -0.2197  0.1864 -0.3443
 2957SOL    HW1 9943   6.202   3.378   5.533 -0.1996  0.5305 -0.6873
 2957SOL    HW2 9944   6.221   3.295   5.407 -0.0401  0.2375 -0.4726
 2958SOL     OW 9945   1.587   3.889   2.542 -0.3003 -0.2629  0.1676
 2958SOL    HW1 9946   1.665   3.899   2.487 -0.9917  0.8484 -0.6569
 2958SOL    HW2 9947   1.619   3.846   2.621  1.2922  0.8149  0.1579
 2959SOL     OW 9948   2.558   0.450   4.691 -0.2298 -0.3035  1.0630
 2959SOL    HW1 9949   2.525   0.385   4.628  1.0847  0.3241 -0.3180
 2959SOL    HW2 9950   2.577   0.527   4.638 -1.2187  1.0430  2.5970
 2960SOL     OW 9951   5.745   1.858   6.398 -0.1535 -0.7091 -0.2766
 2960SOL    HW1 9952   5.787   1.884   6.316 -0.4704 -0.4976 -0.3743
 2960SOL    HW2 9953   5.804   1.793   6.436 -0.8224 -2.1228 -1.5179
 2961SOL     OW 9954   7.699   4.157   5.668  0.6725 -0.1000  0.8792
 2961SOL    HW1 9955   7.611   4.120   5.669 -0.2226  1.8068 -1.0183
 2961SOL    HW2 9956   7.720   4.168   5.576  2.1194  1.2917  1.3240
 2962SOL     OW 9957   2.388   0.367   1.854 -1.0185  0.0336  0.1368
 2962SOL    HW1 9958   2.383   0.333   1.943  0.7857 -0.0690  0.2307
 2962SOL    HW2 9959   2.306   0.415   1.842 -2.8908 -2.8161  0.6002
 2963SOL     OW 9960   1.010   3.232   4.999 -0.4829 -0.4319 -0.2661
 2963SOL    HW1 9961   0.948   3.305   4.999  1.3934  1.2625 -1.1321
 2963SOL    HW2 9962   1.008   3.198   4.910 -0.2841 -0.4833 -0.2519
 2964SOL     OW 9963   0.339   4.040   0.176 -0.0037  0.0149  0.5148
 2964SOL    HW1 9964   0.286   4.075   0.247  0.5823 -0.0151  0.9686
 2964SOL    HW2 9965   0.390   3.969   0.215  0.1523 -0.1572  0.0134
 2965SOL     OW 9966   1.088   2.149   2.476 -0.3802  0.3730  0.2771
 2965SOL    HW1 9967   1.027   2.127   2.546  0.6642  0.8049  1.3677
 2965SOL    HW2 9968   1.053   2.229   2.437 -1.0433  0.0545  0.2068
 2966SOL     OW 9969   6.029   2.529   4.477  0.5321 -0.3384 -0.0627
 2966SOL    HW1 9970   6.081   2.502   4.553  2.4383 -1.4702 -1.6739
 2966SOL    HW2 9971   6.041   2.459   4.413 -0.3374  0.9331 -1.7157
 2967SOL     OW 9972   2.533   0.001   0.578  0.5804  0.6945  0.1646
 2967SOL    HW1 9973   2.603   0.005   0.513 -1.8384  1.5187 -2.5739
 2967SOL    HW2 9974   2.498   0.090   0.581 -0.3549  0.3083  1.4860
 2968SOL     OW 9975   1.727   7.589   1.277  0.1481 -0.2584  0.4487
 2968SOL    HW1 9976   1.742   7.683   1.285  1.3433 -0.3908  0.0611
 2968SOL    HW2 9977   1.814   7.550   1.289 -0.2732 -1.2895  0.2761
 2969SOL     OW 9978   5.443   2.401   2.513  0.4761 -0.1006 -0.0366
 2969SOL    HW1 9979   5.514   2.356   2.467 -0.6569  0.2631 -2.2526
 2969SOL    HW2 9980   5.413   2.338   2.578  2.2563 -0.5699  0.4023
 2970SOL     OW 9981   2.432   7.334   4.279  0.4773 -0.3021 -0.2421
 2970SOL    HW1 9982   2.464   7.308   4.365  0.4287 -0.2822 -0.2183
 2970SOL    HW2 9983   2.337   7.337   4.288  0.3219 -2.1418 -0.7816
 2971SOL     OW 9984   3.651   3.410   2.297  0.3463 -1.0380 -0.3920
 2971SOL    HW1 9985   3.699   3.480   2.342  0.5837 -1.3703 -0.1249
 2971SOL    HW2 9986   3.697   3.398   2.214 -0.3155 -0.1635 -0.9148
 2972SOL     OW 9987   5.404   1.815   7.469 -0.1010 -0.2774  0.4040
 2972SOL    HW1 9988   5.386   1.908   7.482  0.2627 -0.1272 -0.1131
 2972SOL    HW2 9989   5.357   1.771   7.539 -0.2141  0.3041  0.6971
 2973SOL     OW 9990   1.747   5.036   6.981  0.2951 -0.6558  0.9557
 2973SOL    HW1 9991   1.807   5.019   6.907 -2.0889 -0.3868 -1.1692
 2973SOL    HW2 9992   1.691   4.959   6.985 -0.7266  0.0889  1.3496
 2974SOL     OW 9993   5.418   2.395   7.050 -0.3594 -0.2912 -0.1968
 2974SOL    HW1 9994   5.427   2.341   6.972 -2.0348 -3.6845  1.7252
 2974SOL    HW2 9995   5.349   2.352   7.101 -1.1740  3.2103  2.0333
 2975SOL     OW 9996   1.138   6.081   6.820  0.4347 -0.0693 -0.5041
 2975SOL    HW1 9997   1.139   5.989   6.849 -1.6520 -0.2627 -0.9072
 2975SOL    HW2 9998   1.175   6.129   6.894 -0.0159 -1.0635  0.3986
 2976SOL     OW 9999   5.137   1.382   5.562 -0.1727 -0.6739  0.1029
 2976SOL    HW110000   5.053   1.391   5.608  0.1482 -3.1522  1.3461
 2976SOL    HW210001   5.183   1.464   5.580 -1.2018 -0.4211  1.8652
 2977SOL     OW10002   6.694   5.277   0.717 -0.0681  0.3319 -0.3880
 2977SOL    HW110003   6.656   5.355   0.677  0.0896 -0.3805 -2.0242
 2977SOL    HW210004   6.764   5.310   0.773 -0.3485  1.3940 -0.6421
 2978SOL     OW10005   3.261   4.846   1.935  0.1752 -0.7537  0.2034
 2978SOL    HW110006   3.227   4.866   2.022 -2.1838  0.4828 -0.9147
 2978SOL    HW210007   3.230   4.757   1.917  2.1931 -1.7423  1.2465
 2979SOL     OW10008   7.395   7.460   1.952 -0.3567  0.1172 -0.0340
 2979SOL    HW110009   7.340   7.521   2.001  0.0723  0.1352  0.4270
 2979SOL    HW210010   7.476   7.454   2.003  0.2230  0.3869 -0.9009
 2980SOL     OW10011   2.661   3.148   1.741 -0.7355 -0.0843 -0.1773
 2980SOL    HW110012   2.695   3.120   1.656  0.9170  3.7745 -1.0133
 2980SOL    HW210013   2.566   3.154   1.727 -0.7940 -1.9245 -0.8697
 2981SOL     OW10014   2.983   7.359   7.434  0.6611 -0.1521 -0.3581
 2981SOL    HW110015   2.992   7.334   7.526  0.9828 -1.8776 -0.8161
 2981SOL    HW210016   2.950   7.449   7.437  0.1913 -0.3338  1.4366
 2982SOL     OW10017   6.523   1.699   7.060 -0.3101 -0.1232  0.5040
 2982SOL    HW110018   6.493   1.623   7.010  2.1953  0.8190 -2.7899
 2982SOL    HW210019   6.466   1.771   7.031 -1.2285 -0.2427  1.9202
 2983SOL     OW10020   3.128   7.633   0.242  0.2937  0.1130  1.1276
 2983SOL    HW110021   3.163   7.710   0.288  0.2235 -0.1025  1.5451
 2983SOL    HW210022   3.033   7.642   0.248  0.2837  0.0899  1.0093
 2984SOL     OW10023   6.055   7.066   5.813  0.2679  0.5819  0.0294
 2984SOL    HW110024   6.044   7.114   5.895  0.7020  0.3538  0.2217
 2984SOL    HW210025   6.150   7.059   5.802  0.2349 -0.9351  0.4201
 2985SOL     OW10026   4.373   6.564   4.945  0.3593 -0.2126  0.8385
 2985SOL    HW110027   4.451   6.528   4.987  1.3973  1.9713  0.9159
 2985SOL    HW210028   4.405   6.599   4.862 -0.3648  1.4256  1.2222
 2986SOL     OW10029   1.989   2.344   7.581 -0.0168  0.4949  0.5200
 2986SOL    HW110030   1.926   2.370   7.648  0.6360  0.2527  1.2299
 2986SOL    HW210031   1.935   2.331   7.502 -1.1257 -1.5039  1.5421
 2987SOL     OW10032   4.485   6.433   6.969  0.4636  0.3800 -0.5015
 2987SOL    HW110033   4.561   6.378   6.989 -1.2650 -2.7338 -1.8788
 2987SOL    HW210034   4.439   6.441   7.052  2.2423  2.4566  0.3965
 2988SOL     OW10035   4.615   1.848   3.583 -0.1537 -0.6955 -0.4236
 2988SOL    HW110036   4.655   1.844   3.670  1.3051  0.9017 -0.9552
 2988SOL    HW210037   4.592   1.940   3.571 -2.9670 -1.3381 -0.6678
 2989SOL     OW10038   5.535   5.934   1.638 -0.3270 -0.2843  0.2606
 2989SOL    HW110039   5.606   5.917   1.576  1.0797 -1.3416  2.0339
 2989SOL    HW210040   5.560   6.016   1.680 -1.3207  0.4784 -0.6208
 2990SOL     OW10041   3.689   2.521   4.339 -0.2162  0.0490 -0.9286
 2990SOL    HW110042   3.688   2.574   4.418  0.6201 -0.8525 -0.2834
 2990SOL    HW210043   3.655   2.436   4.366  1.6972 -0.8299 -1.0629
 2991SOL     OW10044   1.595   3.779   5.061 -0.4319 -0.5470  0.1690
 2991SOL    HW110045   1.688   3.757   5.057 -0.7197 -1.6674 -1.2951
 2991SOL    HW210046   1.574   3.776   5.154  0.6074 -2.1073  0.3976
 2992SOL     OW10047   3.009   3.776   4.131 -0.1356  0.2583 -0.5735
 2992SOL    HW110048   3.081   3.837   4.150 -0.4420  0.2665  0.6795
 2992SOL    HW210049   3.051   3.703   4.086  0.8508 -0.1628  0.9252
 2993SOL     OW10050   0.985   7.498   1.807 -0.1153 -0.4332  0.2179
 2993SOL    HW110051   1.076   7.525   1.795 -0.1601 -0.1137  0.5583
 2993SOL    HW210052   0.980   7.468   1.898 -0.1746 -1.1788 -0.0242
 2994SOL     OW10053   5.632   4.012   4.929 -0.2270  0.3744  0.3844
 2994SOL    HW110054   5.585   3.997   4.847  0.2061  0.0086  0.1966
 2994SOL    HW210055   5.646   3.925   4.965 -1.5544  0.6019  1.5121
 2995SOL     OW10056   6.386   4.847   0.678 -0.4466 -0.6692  0.1784
 2995SOL    HW110057   6.453   4.785   0.649 -0.4214 -0.8303  0.5666
 2995SOL    HW210058   6.433   4.909   0.733  0.1693  1.6359 -2.7101
 2996SOL     OW10059   6.464   4.147   7.317 -0.5170 -0.3244 -0.5141
 2996SOL    HW110060   6.457   4.173   7.226  0.6812  0.6380 -0.3540
 2996SOL    HW210061   6.529   4.076   7.317 -0.0778  0.0718 -0.3488
 2997SOL     OW10062   2.605   2.634   8.097 -0.0685 -0.4034 -0.2394
 2997SOL    HW110063   2.511   2.652   8.089 -0.6925 -2.9535  0.4257
 2997SOL    HW210064   2.639   2.708   8.147 -1.9204  0.0903  0.3855
 2998SOL     OW10065   0.009   4.873   7.518  0.6855  0.2031  0.0264
 2998SOL    HW110066   0.016   4.786   7.555  1.1221  0.3261  0.2328
 2998SOL    HW210067   0.075   4.876   7.449  0.3247  0.1978 -0.3207
 2999SOL     OW10068   5.534   4.548   2.166 -0.2004  0.0627 -0.1169
 2999SOL    HW110069   5.589   4.617   2.129  0.1772 -0.2651 -0.1810
 2999SOL    HW210070   5.564   4.468   2.122  0.6735 -0.4393  1.3130
 3000SOL     OW10071   5.045   6.156   2.552 -0.3169  0.1464 -0.3011
 3000SOL    HW110072   5.113   6.199   2.604 -0.0346 -0.9836  0.2967
 3000SOL    HW210073   4.980   6.224   2.535  0.3097  0.8935  0.2785
 3001SOL     OW10074   2.294   5.337   4.395 -0.2299  0.1400  0.4282
 3001SOL    HW110075   2.249   5.286   4.327 -0.3067 -1.3262  1.5287
 3001SOL    HW210076   2.283   5.428   4.368 -2.0362 -0.2870 -0.4554
 3002SOL     OW10077   0.248   2.853   1.014 -0.3843  0.2762 -0.3694
 3002SOL    HW110078   0.224   2.830   0.924  0.7757  1.3779 -0.9895
 3002SOL    HW210079   0.333   2.812   1.028 -1.0001 -0.7337  0.6078
 3003SOL     OW10080   5.445   4.209   2.836 -0.1324 -0.1269  0.2489
 3003SOL    HW110081   5.401   4.224   2.919  0.1106 -0.0117  0.3568
 3003SOL    HW210082   5.375   4.216   2.770 -0.5153 -1.2206  0.5195
 3004SOL     OW10083   0.783   7.655   4.684 -0.1558  0.3337 -0.1167
 3004SOL    HW110084   0.829   7.725   4.637  0.4738 -1.0859 -1.7670
 3004SOL    HW210085   0.708   7.635   4.628  0.5765 -1.3568 -0.5716
 3005SOL     OW10086   1.653   6.120   5.232  0.0900  0.3423  0.1803
 3005SOL    HW110087   1.656   6.213   5.210  0.1596  0.5135  0.8912
 3005SOL    HW210088   1.742   6.088   5.217  0.5606  0.8398  1.8252
 3006SOL     OW10089   3.398   1.684   3.535 -0.0830 -0.0045  0.3981
 3006SOL    HW110090   3.359   1.617   3.480 -0.1548 -0.5391  1.0870
 3006SOL    HW210091   3.472   1.641   3.578 -0.1461  0.3390  0.8694
 3007SOL     OW10092   1.486   7.099   3.453  0.4627 -0.7259  0.2943
 3007SOL    HW110093   1.465   7.022   3.506  1.0343 -1.7497 -0.9066
 3007SOL    HW210094   1.447   7.080   3.368 -1.1783  1.2564  0.5190
 3008SOL     OW10095   5.509   0.331   5.472 -0.0736  0.1586 -0.0496
 3008SOL    HW110096   5.592   0.320   5.424 -0.6547  1.1145 -1.3168
 3008SOL    HW210097   5.442   0.336   5.403 -0.9255  1.6533  0.8532
 3009SOL     OW10098   3.972   3.914   1.979 -0.0152  0.2427 -0.3786
 3009SOL    HW110099   3.928   3.978   2.036 -0.6083  0.5617 -1.1828
 3009SOL    HW210100   3.901   3.875   1.928  0.3474 -1.0631  0.0918
 3010SOL     OW10101   5.111   4.336   1.694  0.6144 -0.3189 -0.2159
 3010SOL    HW110102   5.119   4.344   1.789 -0.4892 -2.0156  0.0645
 3010SOL    HW210103   5.066   4.416   1.667 -0.4163 -0.4942  0.9056
 3011SOL     OW10104   6.931   5.388   0.060 -0.2925 -0.6585 -0.0026
 3011SOL    HW110105   6.931   5.293   0.045  0.5269 -0.6916  0.1344
 3011SOL    HW210106   6.865   5.402   0.127  0.8131 -1.3622  1.2762
 3012SOL     OW10107   0.924   1.545   5.753  0.1290  0.3081 -0.1329
 3012SOL    HW110108   0.861   1.611   5.724  0.9057 -0.1116 -3.0981
 3012SOL    HW210109   1.009   1.581   5.729  0.7253 -0.8780  0.1217
 3013SOL     OW10110   1.250   5.854   0.352  0.0087  0.8267  0.2610
 3013SOL    HW110111   1.186   5.909   0.307  1.6413  0.6877 -2.4055
 3013SOL    HW210112   1.229   5.865   0.445 -3.5622  1.1010 -0.4247
 3014SOL     OW10113   3.841   4.323   3.240  0.2707  0.2482 -0.0748
 3014SOL    HW110114   3.919   4.291   3.286 -0.1021  0.9153  1.0512
 3014SOL    HW210115   3.778   4.340   3.309 -1.9336 -2.9173 -1.0829
 3015SOL     OW10116   2.420   4.767   0.150 -0.1122 -0.3400 -0.0936
 3015SOL    HW110117   2.492   4.830   0.151  0.3650 -0.8897  0.8761
 3015SOL    HW210118   2.347   4.814   0.190 -0.1837  0.0607 -0.6633
 3016SOL     OW10119   4.620   4.413   5.205  0.1734 -0.1322  0.7896
 3016SOL    HW110120   4.620   4.470   5.282  0.9040 -0.1153  0.7855
 3016SOL    HW210121   4.587   4.469   5.134  0.3861  0.1272  0.8945
 3017SOL     OW10122   6.420   2.924   0.139  0.2958 -0.0070 -0.2145
 3017SOL    HW110123   6.391   2.833   0.144  0.0125  0.0490 -0.7401
 3017SOL    HW210124   6.494   2.922   0.078 -0.4215  0.2699 -1.1246
 3018SOL     OW10125   3.888   5.693   7.213 -0.2948  0.0450 -0.4694
 3018SOL    HW110126   3.916   5.779   7.242 -1.0361  0.0876  0.1646
 3018SOL    HW210127   3.917   5.633   7.282 -0.9542 -0.0271 -0.2480
 3019SOL     OW10128   7.195   0.846   3.479 -0.5392 -0.4730  0.2877
 3019SOL    HW110129   7.196   0.927   3.428 -0.5374 -0.6042  0.0799
 3019SOL    HW210130   7.195   0.776   3.414  3.9060 -0.7813  0.3430
 3020SOL     OW10131   3.556   7.757   2.614 -0.3683 -0.0549 -0.0972
 3020SOL    HW110132   3.525   7.847   2.626  0.3916  0.2173 -0.1226
 3020SOL    HW210133   3.586   7.755   2.523  0.5777 -0.0361  0.2135
 3021SOL     OW10134   5.371   0.199   5.678  0.2090  0.0254  0.0945
 3021SOL    HW110135   5.389   0.258   5.605  0.1798 -0.5388 -0.3851
 3021SOL    HW210136   5.324   0.125   5.637 -0.1324 -0.1259  0.7457
 3022SOL     OW10137   0.291   1.984   4.000 -0.5226 -0.1795 -0.1134
 3022SOL    HW110138   0.223   1.934   4.045 -1.7963  1.1865 -0.4504
 3022SOL    HW210139   0.371   1.964   4.048 -1.5240 -0.1912  1.6304
 3023SOL     OW10140   1.483   1.425   0.768 -0.3934  0.4512  0.1111
 3023SOL    HW110141   1.518   1.339   0.743  0.8822  0.3892  1.8498
 3023SOL    HW210142   1.411   1.405   0.829  0.0907  0.5864  0.7434
 3024SOL     OW10143   2.141   0.674   1.020  0.2040  0.1467  0.2532
 3024SOL    HW110144   2.143   0.616   1.096  0.1438 -0.3525 -0.1220
 3024SOL    HW210145   2.049   0.682   0.997  0.0277  1.8024  1.3531
 3025SOL     OW10146   0.707   2.693   7.132  0.3193  0.0645  0.7051
 3025SOL    HW110147   0.644   2.697   7.060  0.8881 -0.7245  0.1407
 3025SOL    HW210148   0.791   2.715   7.091  0.5205  0.4346  1.3075
 3026SOL     OW10149   1.814   3.384   3.529 -0.2259 -0.0896 -0.7063
 3026SOL    HW110150   1.727   3.423   3.529  0.5783  1.9480 -2.8694
 3026SOL    HW210151   1.812   3.320   3.457 -0.3489 -1.1569  0.2244
 3027SOL     OW10152   2.531   5.601   7.342 -0.1536  0.0655  0.0213
 3027SOL    HW110153   2.518   5.674   7.282  0.3376 -0.6268 -0.9651
 3027SOL    HW210154   2.623   5.577   7.331 -0.1905 -0.4058  0.6698
 3028SOL     OW10155   5.664   0.915   6.549  0.0960 -0.2519  0.0343
 3028SOL    HW110156   5.735   0.903   6.486 -1.0953 -1.5994 -1.1439
 3028SOL    HW210157   5.630   1.003   6.530  0.9674  0.1058  0.1047
 3029SOL     OW10158   0.325   4.496   0.469 -0.3557  0.3963 -0.7371
 3029SOL    HW110159   0.370   4.476   0.551 -0.4390 -0.8957 -0.9885
 3029SOL    HW210160   0.394   4.528   0.411  0.1129 -0.7381 -0.8376
 3030SOL     OW10161   3.539   1.882   5.835 -0.0043  0.2325  0.1631
 3030SOL    HW110162   3.564   1.792   5.811 -1.1099  0.2904 -1.3552
 3030SOL    HW210163   3.446   1.888   5.810  0.2899  2.0657 -0.6116
 3031SOL     OW10164   8.079   1.992   6.966 -0.2575  0.5137 -0.7292
 3031SOL    HW110165   8.145   2.052   7.000  0.1467  0.3177 -1.1456
 3031SOL    HW210166   8.046   2.035   6.887 -1.0172  0.8566 -0.2369
 3032SOL     OW10167   6.373   1.891   6.969 -0.4325 -0.2659  0.0691
 3032SOL    HW110168   6.412   1.951   6.905 -0.2297 -0.7500 -0.2632
 3032SOL    HW210169   6.282   1.921   6.977 -0.0569  0.7555  0.7195
 3033SOL     OW10170   5.912   0.998   7.696  0.3137 -0.5040  0.4203
 3033SOL    HW110171   5.949   0.911   7.685 -0.4868 -0.6130 -1.9274
 3033SOL    HW210172   5.817   0.984   7.695  0.1780  0.3797  0.0374
 3034SOL     OW10173   3.327   3.303   4.457 -0.2969 -0.3599 -0.0106
 3034SOL    HW110174   3.238   3.319   4.487 -0.6643 -0.1148 -1.1749
 3034SOL    HW210175   3.320   3.227   4.400  0.2532 -0.3893 -0.0452
 3035SOL     OW10176   1.166   1.032   5.221  0.5380 -0.2738 -0.1499
 3035SOL    HW110177   1.226   0.957   5.219 -0.6518 -1.2394 -0.2805
 3035SOL    HW210178   1.100   1.011   5.155 -1.4857 -0.5443  1.8596
 3036SOL     OW10179   4.817   3.933   1.393  0.4477 -0.4703  0.5567
 3036SOL    HW110180   4.866   4.010   1.421  1.1937 -1.0960  1.0222
 3036SOL    HW210181   4.727   3.950   1.421 -0.2361  1.8411 -2.5389
 3037SOL     OW10182   4.170   2.459   1.834 -0.1969  0.2007 -0.1937
 3037SOL    HW110183   4.205   2.412   1.910 -0.2307 -1.4951 -1.1783
 3037SOL    HW210184   4.086   2.418   1.817 -0.5564  1.1167 -0.6659
 3038SOL     OW10185   4.848   7.536   5.509 -0.0514 -0.9006  0.1276
 3038SOL    HW110186   4.843   7.459   5.565  0.0906 -1.0448 -0.0563
 3038SOL    HW210187   4.799   7.513   5.430 -0.6359 -0.5317  0.3807
 3039SOL     OW10188   5.710   3.869   7.459  0.7036 -0.1611  0.7345
 3039SOL    HW110189   5.668   3.940   7.410 -2.6296 -0.4684  2.8226
 3039SOL    HW210190   5.717   3.797   7.397  0.7915  0.8142 -0.4377
 3040SOL     OW10191   4.499   0.260   2.935  0.0857 -0.1586  0.2652
 3040SOL    HW110192   4.548   0.195   2.885 -0.3858  0.5965 -1.2617
 3040SOL    HW210193   4.508   0.233   3.026  0.7377 -1.7715 -0.2417
 3041SOL     OW10194   7.982   4.993   3.507  0.2630  0.5814  0.1938
 3041SOL    HW110195   7.922   5.027   3.440  1.2249  1.5939 -0.1854
 3041SOL    HW210196   8.066   4.985   3.463  0.9941  1.5647  1.3211
 3042SOL     OW10197   4.800   0.622   7.563  0.7426  0.4058  0.0492
 3042SOL    HW110198   4.799   0.706   7.518  3.4529  1.0057  0.9435
 3042SOL    HW210199   4.771   0.642   7.652  1.8941  0.5242  0.4099
 3043SOL     OW10200   2.015   5.742   4.241 -0.1859  0.2585 -0.2651
 3043SOL    HW110201   1.980   5.823   4.204 -1.4242  0.1281  0.5673
 3043SOL    HW210202   2.056   5.698   4.166  1.8464  2.2882 -0.4658
 3044SOL     OW10203   5.763   0.222   3.396 -0.4228 -0.1193 -0.2323
 3044SOL    HW110204   5.687   0.230   3.453 -0.3551  1.0586 -0.2682
 3044SOL    HW210205   5.773   0.309   3.358 -0.8330 -1.0121 -2.5497
 3045SOL     OW10206   5.853   1.353   2.188  0.2342  0.0873  0.3770
 3045SOL    HW110207   5.802   1.275   2.213 -0.2492  0.4480  0.5388
 3045SOL    HW210208   5.828   1.419   2.253 -1.5042  1.2335 -1.3507
 3046SOL     OW10209   1.941   2.645   7.699  0.5822 -0.4161 -0.2960
 3046SOL    HW110210   1.878   2.656   7.628  0.0332  1.6463  0.4476
 3046SOL    HW210211   2.026   2.664   7.659  0.2456  1.0275 -0.3600
 3047SOL     OW10212   1.416   5.937   4.604  0.4855 -0.2433 -0.1358
 3047SOL    HW110213   1.445   5.897   4.686  0.9628 -0.6076 -0.4698
 3047SOL    HW210214   1.322   5.950   4.615  0.2925 -1.5271 -0.0278
 3048SOL     OW10215   1.201   2.686   2.476  0.0493  0.6684 -0.0195
 3048SOL    HW110216   1.160   2.719   2.396  0.5226 -0.1221 -0.6127
 3048SOL    HW210217   1.288   2.726   2.476 -0.4119  1.7057  0.8086
 3049SOL     OW10218   7.796   2.591   3.440  0.5248  0.2263  0.1721
 3049SOL    HW110219   7.796   2.623   3.349  1.8082  0.6932  0.3219
 3049SOL    HW210220   7.789   2.496   3.432 -1.4454  0.3725 -0.3415
 3050SOL     OW10221   0.211   1.261   5.521 -0.4764  0.4731  0.2767
 3050SOL    HW110222   0.300   1.229   5.537  0.0667 -0.0067 -2.9527
 3050SOL    HW210223   0.218   1.356   5.529  0.3170  0.4340  0.1597
 3051SOL     OW10224   7.027   8.149   0.131 -0.4914  0.1708 -0.1165
 3051SOL    HW110225   7.079   8.114   0.204  1.0175 -1.5597 -1.9118
 3051SOL    HW210226   7.061   8.238   0.118 -0.3061  0.2508  0.8239
 3052SOL     OW10227   4.613   4.846   5.272 -0.0449  0.2989 -0.5081
 3052SOL    HW110228   4.544   4.788   5.302  1.0529  0.1575  2.0164
 3052SOL    HW210229   4.640   4.810   5.187 -3.0362  0.4221 -1.6270
 3053SOL     OW10230   3.334   5.025   6.378 -0.9904  0.0959 -0.6116
 3053SOL    HW110231   3.321   5.019   6.473 -1.6494 -0.9304 -0.7611
 3053SOL    HW210232   3.249   5.049   6.343 -0.5596  1.2926 -0.8903
 3054SOL     OW10233   3.521   0.180   5.318  0.1540 -0.0429 -0.7993
 3054SOL    HW110234   3.431   0.155   5.298 -0.4261  2.2612 -1.4374
 3054SOL    HW210235   3.538   0.254   5.260  2.1338  0.1813 -0.0023
 3055SOL     OW10236   3.011   6.139   7.531  0.4261  0.4609  0.1380
 3055SOL    HW110237   2.917   6.153   7.540  0.0993 -1.0209 -0.7073
 3055SOL    HW210238   3.031   6.174   7.444 -0.1245 -2.5687 -1.3552
 3056SOL     OW10239   3.640   1.514   7.537 -0.6603 -0.1442 -0.1286
 3056SOL    HW110240   3.645   1.610   7.531  1.0641  0.0991  2.9837
 3056SOL    HW210241   3.704   1.483   7.473 -0.5750  0.8063 -0.5259
 3057SOL     OW10242   5.552   0.678   2.766  0.3082  0.3712  0.3051
 3057SOL    HW110243   5.574   0.771   2.770 -0.3573  0.4943  1.4734
 3057SOL    HW210244   5.457   0.676   2.754  0.1570 -0.1436  1.4501
 3058SOL     OW10245   3.054   3.689   5.130  0.2842 -0.9133 -0.1574
 3058SOL    HW110246   2.988   3.638   5.083 -0.0523 -0.9985  0.4005
 3058SOL    HW210247   3.047   3.659   5.220 -0.6143  0.8549  0.3803
 3059SOL     OW10248   3.622   3.713   2.772  0.3022 -0.2116  0.4344
 3059SOL    HW110249   3.716   3.701   2.764  0.2168  0.1260 -1.6069
 3059SOL    HW210250   3.594   3.746   2.687 -1.5096  0.7773  1.3402
 3060SOL     OW10251   6.313   2.134   4.695 -0.0970 -0.2449 -0.4621
 3060SOL    HW110252   6.346   2.124   4.784  1.6832 -0.4413 -1.1141
 3060SOL    HW210253   6.360   2.068   4.644 -1.7844 -0.7944 -1.3985
 3061SOL     OW10254   5.557   2.135   0.506 -0.2673  0.3183  0.5992
 3061SOL    HW110255   5.531   2.211   0.559 -0.6554  0.3714  0.3382
 3061SOL    HW210256   5.476   2.087   0.492 -0.5482  1.2942 -1.5375
 3062SOL     OW10257   3.902   3.415   3.647 -0.6114  0.0694  0.2603
 3062SOL    HW110258   3.958   3.340   3.627 -1.6090 -0.8029  0.6182
 3062SOL    HW210259   3.866   3.396   3.734  0.3140  1.7281  1.0466
 3063SOL     OW10260   6.743   6.241   5.090  0.2741  0.3964 -0.4003
 3063SOL    HW110261   6.727   6.147   5.089  0.8501  0.2559  1.1950
 3063SOL    HW210262   6.663   6.280   5.054 -0.6409 -0.6263  0.4904
 3064SOL     OW10263   3.846   2.489   1.864 -0.0178 -0.5061 -0.3474
 3064SOL    HW110264   3.788   2.420   1.833  1.7647 -2.2496 -0.0368
 3064SOL    HW210265   3.840   2.485   1.959  0.0304 -0.1655 -0.3269
 3065SOL     OW10266   0.063   6.875   5.497 -0.0833  0.2242  0.1624
 3065SOL    HW110267   0.071   6.935   5.572 -0.0778 -1.1851  1.3177
 3065SOL    HW210268  -0.023   6.895   5.460 -0.1082  0.9064  0.5516
 3066SOL     OW10269   7.689   4.520   3.448  0.7073  0.3685 -0.4945
 3066SOL    HW110270   7.644   4.605   3.439  1.7439  0.8519 -1.2784
 3066SOL    HW210271   7.653   4.466   3.378  1.2955  0.7387 -1.0887
 3067SOL     OW10272   7.765   2.060   4.381 -0.0021  0.1168 -0.1081
 3067SOL    HW110273   7.751   1.977   4.428  1.4245  1.4364  2.9667
 3067SOL    HW210274   7.677   2.090   4.360 -0.7072 -0.9775  1.0685
 3068SOL     OW10275   0.689   5.167   4.445  0.0098 -0.2072 -0.4518
 3068SOL    HW110276   0.699   5.107   4.372  0.2684  0.0678 -0.6462
 3068SOL    HW210277   0.668   5.251   4.404  1.4262  0.2449 -0.2892
 3069SOL     OW10278   5.833   7.132   4.949 -0.2667  0.0207 -0.1926
 3069SOL    HW110279   5.789   7.060   4.904 -2.5568  0.3212  1.4136
 3069SOL    HW210280   5.835   7.203   4.884 -1.2576 -0.3589 -0.6620
 3070SOL     OW10281   6.703   5.079   2.311  0.0123 -0.7329 -0.7356
 3070SOL    HW110282   6.786   5.102   2.269  0.9618  0.2453  1.5024
 3070SOL    HW210283   6.728   5.053   2.400 -2.1377  0.3716  0.2688
 3071SOL     OW10284   4.705   3.315   5.635 -0.0400  0.3819  0.0017
 3071SOL    HW110285   4.731   3.242   5.579 -1.1113  0.2097 -0.2903
 3071SOL    HW210286   4.628   3.353   5.592 -0.6642  0.4765  1.1470
 3072SOL     OW10287   6.239   0.143   7.649  0.1011 -0.2798  0.0621
 3072SOL    HW110288   6.153   0.179   7.670 -0.2107 -1.5387  1.0882
 3072SOL    HW210289   6.282   0.131   7.734  0.7952 -0.8093 -0.3489
 3073SOL     OW10290   3.503   0.929   1.172  0.0777  0.2257 -0.2238
 3073SOL    HW110291   3.479   0.983   1.096 -1.8118  1.3316  1.0708
 3073SOL    HW210292   3.562   0.985   1.223  0.9310 -0.3185 -0.5958
 3074SOL     OW10293   2.990   0.990   4.469  0.4433 -0.5203 -0.0540
 3074SOL    HW110294   3.014   0.943   4.389  1.8694  2.3081 -1.4294
 3074SOL    HW210295   3.024   1.079   4.456 -1.3594  0.7123  2.7113
 3075SOL     OW10296   4.197   0.010   1.168  0.0928 -0.0914 -0.1120
 3075SOL    HW110297   4.173   0.084   1.113 -1.3669 -0.2889  0.2187
 3075SOL    HW210298   4.242  -0.050   1.109  1.5602  1.1393 -0.3212
 3076SOL     OW10299   6.287   0.213   7.199 -0.4422  0.1163 -0.1795
 3076SOL    HW110300   6.359   0.152   7.183 -1.4537 -1.3113  0.4620
 3076SOL    HW210301   6.290   0.274   7.125  0.2450 -1.0670 -1.1620
 3077SOL     OW10302   0.977   0.238   6.284 -0.4845 -0.3739 -0.2551
 3077SOL    HW110303   0.887   0.210   6.303 -0.7181  0.7884  0.4328
 3077SOL    HW210304   0.984   0.325   6.324  1.2514 -0.8453  0.5653
 3078SOL     OW10305   7.455   1.980   3.569  0.0006 -0.8557  0.5789
 3078SOL    HW110306   7.509   2.056   3.549  1.4627 -1.6062  1.4567
 3078SOL    HW210307   7.365   2.013   3.572  0.1428  0.1317 -2.5763
 3079SOL     OW10308   7.622   3.265   4.320 -0.4413  0.3089 -0.1596
 3079SOL    HW110309   7.541   3.263   4.371 -0.6907 -1.2533 -0.5527
 3079SOL    HW210310   7.628   3.178   4.281  1.4744  0.3506 -0.0851
 3080SOL     OW10311   2.531   5.169   3.073 -0.4696 -0.5136 -0.1714
 3080SOL    HW110312   2.516   5.234   3.141 -0.3601 -0.0446 -0.5942
 3080SOL    HW210313   2.550   5.088   3.121  1.4723  0.2127  0.3870
 3081SOL     OW10314   6.371   2.266   7.806 -0.3049  0.3208 -0.1680
 3081SOL    HW110315   6.307   2.278   7.736 -1.3582 -1.5504  0.3970
 3081SOL    HW210316   6.337   2.193   7.857  1.5553  0.2192  1.0220
 3082SOL     OW10317   5.852   5.855   0.304 -0.4594  0.0452  0.2587
 3082SOL    HW110318   5.911   5.878   0.375 -0.2346 -0.6558  0.3069
 3082SOL    HW210319   5.775   5.911   0.317 -0.3187  0.0891  0.9125
 3083SOL     OW10320   1.272   4.029   6.096 -0.2438  0.4826 -0.2818
 3083SOL    HW110321   1.220   4.109   6.107 -0.4744  0.3565 -0.4681
 3083SOL    HW210322   1.238   3.969   6.162  0.9537  1.0527  0.9279
 3084SOL     OW10323   1.047   5.766   3.311  0.0967 -0.0637  0.3273
 3084SOL    HW110324   0.990   5.697   3.277 -0.8769  0.0782  1.6001
 3084SOL    HW210325   1.113   5.719   3.362  0.0457 -0.1042  0.3557
 3085SOL     OW10326   0.671   2.773   0.184 -0.1424 -0.2076  0.2098
 3085SOL    HW110327   0.632   2.847   0.137 -0.0846  0.8050  1.6786
 3085SOL    HW210328   0.609   2.701   0.173 -0.0542 -0.0469 -1.5003
 3086SOL     OW10329   3.752   4.220   4.441 -0.1467  0.2874  0.1905
 3086SOL    HW110330   3.666   4.208   4.483 -0.0795 -1.0956 -0.0293
 3086SOL    HW210331   3.769   4.137   4.397  1.6268  0.2798  0.8163
 3087SOL     OW10332   3.693   1.214   0.446  0.2269  0.2632  0.0407
 3087SOL    HW110333   3.728   1.252   0.526  0.9472 -1.1914  0.4547
 3087SOL    HW210334   3.732   1.127   0.441 -0.5507 -0.0492 -1.3943
 3088SOL     OW10335   0.177   8.088   3.683 -0.2621 -0.5096 -0.1776
 3088SOL    HW110336   0.249   8.064   3.624 -1.1652 -0.8332 -1.1737
 3088SOL    HW210337   0.220   8.101   3.767  0.8624 -1.5133 -0.5489
 3089SOL     OW10338   7.947   3.674   7.911  0.2428  0.4724  0.2710
 3089SOL    HW110339   8.000   3.710   7.981 -0.9906 -0.2211  1.6038
 3089SOL    HW210340   7.947   3.742   7.843 -0.2514  2.0673  1.8170
 3090SOL     OW10341   6.777   8.001   2.927  0.0947  0.4926 -0.1991
 3090SOL    HW110342   6.815   7.917   2.902  0.9179  1.4470 -2.3964
 3090SOL    HW210343   6.710   8.018   2.861  0.4539  1.8891 -0.2445
 3091SOL     OW10344   2.904   0.823   6.557  0.2236  0.0735 -0.0204
 3091SOL    HW110345   2.946   0.901   6.521 -1.0545  1.1509  0.7331
 3091SOL    HW210346   2.877   0.848   6.645  1.1024 -1.7172  0.8187
 3092SOL     OW10347   2.648   2.799   0.709  0.1259 -0.4475  0.2050
 3092SOL    HW110348   2.714   2.853   0.752  0.5926 -1.8863  1.3655
 3092SOL    HW210349   2.579   2.861   0.684  1.0332  0.8016  0.6851
 3093SOL     OW10350   6.746   5.544   2.874  0.4568 -0.2382 -0.0046
 3093SOL    HW110351   6.730   5.545   2.780 -2.1697  1.0940  0.3498
 3093SOL    HW210352   6.771   5.634   2.895 -2.7224  0.5742  0.9603
 3094SOL     OW10353   6.681   3.157   3.753 -0.7563  0.1778 -0.1149
 3094SOL    HW110354   6.615   3.222   3.776 -0.4565  0.0343  1.2344
 3094SOL    HW210355   6.764   3.205   3.753 -0.8083  0.3165 -1.6174
 3095SOL     OW10356   7.832   4.172   3.010  0.4061  0.0039 -0.3001
 3095SOL    HW110357   7.862   4.262   3.020 -0.8752  0.4016  0.1102
 3095SOL    HW210358   7.888   4.136   2.941  2.6556  0.3019  1.2486
 3096SOL     OW10359   1.308   4.001   4.341  0.3157  0.4521  0.0559
 3096SOL    HW110360   1.229   3.954   4.315  0.0585  0.2371  1.1555
 3096SOL    HW210361   1.300   4.009   4.437  1.8217  0.0651  0.2371
 3097SOL     OW10362   5.562   7.509   6.783 -0.5520 -0.1425  0.0349
 3097SOL    HW110363   5.495   7.555   6.835  0.5497  0.4650  0.9441
 3097SOL    HW210364   5.600   7.446   6.844 -0.2543 -0.4522 -0.4723
 3098SOL     OW10365   4.658   2.234   4.510 -0.0660 -0.2317  0.2455
 3098SOL    HW110366   4.623   2.156   4.468  0.9778 -0.9877  0.7300
 3098SOL    HW210367   4.598   2.252   4.582 -0.1968 -0.7026  0.2547
 3099SOL     OW10368   5.597   0.380   0.877 -0.8390 -0.4663  0.0438
 3099SOL    HW110369   5.528   0.314   0.873 -1.9945  0.7735 -1.5437
 3099SOL    HW210370   5.649   0.365   0.798  0.2342 -0.8413  0.7940
 3100SOL     OW10371   4.897   7.257   4.935  0.1691  0.3911 -0.4338
 3100SOL    HW110372   4.810   7.216   4.940  0.4022 -0.0486 -0.0035
 3100SOL    HW210373   4.944   7.225   5.012  0.0034  2.3078  0.5261
 3101SOL     OW10374   0.636   4.178   1.083 -0.5642 -0.6543 -0.5837
 3101SOL    HW110375   0.578   4.172   1.008 -1.1013 -1.8417 -0.1118
 3101SOL    HW210376   0.722   4.195   1.046 -1.1470  0.7940 -1.3170
 3102SOL     OW10377   0.530   4.956   7.394  0.4790 -0.4589 -0.0171
 3102SOL    HW110378   0.505   4.980   7.305 -0.5637  1.0052  0.6322
 3102SOL    HW210379   0.449   4.924   7.434 -0.1903  2.8143  1.6151
 3103SOL     OW10380   2.022   5.224   5.443  0.1433 -0.3158 -0.1564
 3103SOL    HW110381   2.044   5.207   5.534 -1.8792 -2.0288  0.0781
 3103SOL    HW210382   2.018   5.319   5.436  0.0745 -0.1704  1.5925
 3104SOL     OW10383   2.886   1.484   6.605 -0.3680  0.2116 -0.0836
 3104SOL    HW110384   2.936   1.539   6.545 -0.8012 -1.6624 -2.2940
 3104SOL    HW210385   2.861   1.543   6.677  3.6636  1.5869  0.4399
 3105SOL     OW10386   2.526   2.923   1.169 -0.1451  0.5880  0.5764
 3105SOL    HW110387   2.526   2.967   1.254  1.0231  2.0559 -0.1607
 3105SOL    HW210388   2.615   2.891   1.158 -0.2463  0.5434 -0.1638
 3106SOL     OW10389   6.228   5.745   2.236 -0.0799  0.1696 -0.1422
 3106SOL    HW110390   6.134   5.754   2.252 -0.0385 -0.6169  0.6474
 3106SOL    HW210391   6.262   5.703   2.315  0.6463 -1.1396 -1.1036
 3107SOL     OW10392   2.228   0.399   3.267 -0.2443 -0.2944 -0.4461
 3107SOL    HW110393   2.274   0.470   3.310 -1.8819  1.6652 -1.7174
 3107SOL    HW210394   2.231   0.326   3.329  1.5465  0.8427  0.8826
 3108SOL     OW10395   0.003   2.139   3.303  0.3067  0.1082  0.0808
 3108SOL    HW110396  -0.009   2.045   3.289 -2.8586  0.6389 -1.6944
 3108SOL    HW210397   0.018   2.174   3.215  1.0769  1.3425  0.6766
 3109SOL     OW10398   1.550   3.131   7.656  0.6126  0.2401 -0.4342
 3109SOL    HW110399   1.586   3.185   7.586  0.2238  1.1870  0.0701
 3109SOL    HW210400   1.461   3.110   7.628 -0.4429  2.6812  0.8039
 3110SOL     OW10401   7.963   5.117   6.930  0.0114 -0.1712  0.3954
 3110SOL    HW110402   7.888   5.128   6.872  0.9598  1.7461 -0.5566
 3110SOL    HW210403   8.005   5.036   6.900 -2.2623 -1.9730  1.7349
 3111SOL     OW10404   0.812   5.119   1.397  0.5042 -0.2671  0.5393
 3111SOL    HW110405   0.726   5.143   1.430  0.0041 -1.4372  0.1568
 3111SOL    HW210406   0.794   5.057   1.326  1.6486 -0.2512  0.2139
 3112SOL     OW10407   5.546   1.160   3.147 -0.5512 -0.7936  0.3367
 3112SOL    HW110408   5.524   1.242   3.191 -0.0539  0.7058 -2.0279
 3112SOL    HW210409   5.601   1.113   3.210  0.8077  1.5911  1.0667
 3113SOL     OW10410   5.789   1.547   5.977  0.0978  0.0482 -0.5100
 3113SOL    HW110411   5.863   1.583   6.026  0.1051  2.5641 -2.2055
 3113SOL    HW210412   5.711   1.582   6.020  0.0200  0.1362 -0.7184
 3114SOL     OW10413   5.655   0.325   3.007  0.2404  0.0918  0.0731
 3114SOL    HW110414   5.630   0.236   3.033  0.7359  0.0764  0.5161
 3114SOL    HW210415   5.671   0.370   3.090 -1.7052  1.1203 -0.0422
 3115SOL     OW10416   1.180   3.775   7.497 -0.0357  0.7045  0.5031
 3115SOL    HW110417   1.239   3.782   7.422  0.4154  0.0080  0.7760
 3115SOL    HW210418   1.218   3.706   7.551 -0.5522  0.9422  1.1952
 3116SOL     OW10419   2.392   5.785   2.476  0.0489  0.5030 -0.0688
 3116SOL    HW110420   2.453   5.775   2.549  0.1929  0.6910 -0.1630
 3116SOL    HW210421   2.356   5.697   2.463  0.4898  0.3348 -0.1788
 3117SOL     OW10422   0.796   3.605   2.969  0.1312  0.8587 -0.4450
 3117SOL    HW110423   0.711   3.612   3.013 -0.3950 -0.6412 -1.1282
 3117SOL    HW210424   0.776   3.565   2.884  1.7493 -2.4372  0.5212
 3118SOL     OW10425   4.769   4.775   7.651 -0.3218 -0.1302 -0.1236
 3118SOL    HW110426   4.717   4.835   7.704  0.0695  0.8151 -0.7746
 3118SOL    HW210427   4.709   4.703   7.629 -1.9705  1.7922 -2.3669
 3119SOL     OW10428   7.159   3.869   4.806 -0.0652 -0.4898 -0.7495
 3119SOL    HW110429   7.110   3.864   4.888 -0.1213 -3.8389 -0.8681
 3119SOL    HW210430   7.143   3.786   4.763  3.0489 -0.4052 -2.3700
 3120SOL     OW10431   6.149   2.508   6.635 -0.5425  0.0948 -0.0411
 3120SOL    HW110432   6.207   2.583   6.621 -0.0055 -0.4887 -1.0539
 3120SOL    HW210433   6.080   2.541   6.693  0.5816  0.9148  0.8756
 3121SOL     OW10434   0.299   2.727   5.493 -0.0628 -0.8476  0.2780
 3121SOL    HW110435   0.248   2.723   5.575 -1.7126  0.8937 -0.5914
 3121SOL    HW210436   0.382   2.768   5.519 -0.5862 -0.2503  1.0884
 3122SOL     OW10437   2.842   7.947   0.212  0.0267  0.4296  0.3903
 3122SOL    HW110438   2.878   8.012   0.272 -0.4762  0.0155  1.1549
 3122SOL    HW210439   2.898   7.870   0.223 -1.0460 -0.2149  1.5807
 3123SOL     OW10440   6.901   5.313   3.135 -0.4104  0.0168  0.4382
 3123SOL    HW110441   6.913   5.406   3.154  0.4644 -0.0042  0.0222
 3123SOL    HW210442   6.866   5.276   3.216 -0.9562  0.7409  0.5396
 3124SOL     OW10443   2.620   0.165   7.580 -0.4540 -0.3432 -0.0882
 3124SOL    HW110444   2.552   0.109   7.543 -1.6694  1.6143 -1.0139
 3124SOL    HW210445   2.640   0.126   7.665 -1.9812 -1.5657 -0.2425
 3125SOL     OW10446   2.983   0.560   1.685  0.0840 -0.1541  0.0974
 3125SOL    HW110447   3.040   0.637   1.676 -0.2864  0.0774 -0.3383
 3125SOL    HW210448   2.907   0.592   1.733  0.5442 -0.5906  1.1491
 3126SOL     OW10449   1.930   7.978   3.085  0.1893 -0.3719 -0.0582
 3126SOL    HW110450   1.962   7.952   2.999 -1.7003 -2.1911 -0.2774
 3126SOL    HW210451   1.961   7.909   3.144  0.1396  0.0377  0.4572
 3127SOL     OW10452   0.155   0.455   7.880 -0.0443  0.1112  0.1414
 3127SOL    HW110453   0.121   0.428   7.795 -2.2273  2.3967  0.1778
 3127SOL    HW210454   0.135   0.549   7.885  0.7264  0.2086  2.8628
 3128SOL     OW10455   3.865   4.708   5.901  0.4121  0.0361  0.0730
 3128SOL    HW110456   3.826   4.622   5.885 -1.8319  0.7444  1.3206
 3128SOL    HW210457   3.897   4.703   5.991 -1.0604  0.9113  0.6854
 3129SOL     OW10458   6.343   0.889   5.305  0.2539  0.1774  0.6577
 3129SOL    HW110459   6.270   0.905   5.364  0.8849  0.7098  1.3092
 3129SOL    HW210460   6.351   0.794   5.301 -0.7531  0.0972  0.2209
 3130SOL     OW10461   2.522   7.991   4.869 -0.2893  0.2417 -0.4188
 3130SOL    HW110462   2.577   7.913   4.866 -3.4270 -2.1084 -1.5462
 3130SOL    HW210463   2.516   8.013   4.963  0.0713 -1.3291 -0.0068
 3131SOL     OW10464   2.579   5.515   5.597 -0.4106 -0.6634  0.2554
 3131SOL    HW110465   2.486   5.537   5.587  0.0883  2.5354  1.3505
 3131SOL    HW210466   2.612   5.504   5.508 -1.7260 -1.3573 -0.1615
 3132SOL     OW10467   6.052   2.646   5.369 -0.0776  0.3818  0.1912
 3132SOL    HW110468   6.094   2.633   5.284  1.2670  1.3233  0.6705
 3132SOL    HW210469   6.079   2.570   5.421  0.0227  0.3679  0.1194
 3133SOL     OW10470   5.699   1.625   1.390 -0.6646  0.1735  1.2135
 3133SOL    HW110471   5.731   1.702   1.344 -2.1882  0.4168  0.4942
 3133SOL    HW210472   5.699   1.650   1.482  1.3173  0.0868  1.2881
 3134SOL     OW10473   5.574   1.454   2.797  0.0235  0.0517 -0.1969
 3134SOL    HW110474   5.584   1.515   2.869 -2.4922 -0.9196  1.0954
 3134SOL    HW210475   5.601   1.370   2.832 -2.0859 -0.6025 -0.0095
 3135SOL     OW10476   2.433   5.987   3.028 -0.7436  0.1399 -0.3193
 3135SOL    HW110477   2.408   6.079   3.030 -0.4166  0.3218 -2.2617
 3135SOL    HW210478   2.383   5.950   2.955  1.8780 -0.2948 -2.0425
 3136SOL     OW10479   0.768   1.295   0.878  0.5084 -0.0634 -0.5065
 3136SOL    HW110480   0.802   1.363   0.936  1.7134  0.3658 -1.6693
 3136SOL    HW210481   0.811   1.311   0.794 -2.0546  0.0738 -1.8984
 3137SOL     OW10482   6.132   2.961   3.434 -0.0774 -0.4361  0.4930
 3137SOL    HW110483   6.165   2.953   3.523 -1.0838 -1.6252  0.7983
 3137SOL    HW210484   6.082   2.880   3.420 -0.2692 -0.0882 -1.0052
 3138SOL     OW10485   4.069   3.120   2.044 -0.3074 -0.3182 -0.7111
 3138SOL    HW110486   4.078   3.194   1.984  2.1838 -1.8775 -2.4768
 3138SOL    HW210487   4.055   3.159   2.130 -1.8467  2.0634 -1.9492
 3139SOL     OW10488   5.035   7.030   1.559 -0.0480  0.3318  0.1445
 3139SOL    HW110489   5.002   7.117   1.537 -0.6526 -0.1502 -0.9462
 3139SOL    HW210490   5.128   7.044   1.578 -0.4603  1.4430  1.5389
 3140SOL     OW10491   7.956   5.089   7.221  0.2711  0.3995  0.3792
 3140SOL    HW110492   7.969   5.183   7.236 -1.6790  0.9286 -0.9257
 3140SOL    HW210493   7.960   5.079   7.126  1.3639 -1.0147  0.5470
 3141SOL     OW10494   1.734   4.413   4.119 -0.0268 -0.0637  0.2450
 3141SOL    HW110495   1.742   4.333   4.068  0.2469  0.4185 -0.4765
 3141SOL    HW210496   1.746   4.385   4.210 -2.2104 -1.1991  0.2416
 3142SOL     OW10497   4.065   5.330   4.687 -0.4059 -0.4240  0.4797
 3142SOL    HW110498   4.049   5.317   4.593 -1.0988  0.2395  0.4958
 3142SOL    HW210499   4.154   5.297   4.700 -0.4837 -0.9958 -0.3098
 3143SOL     OW10500   7.392   6.645   6.170 -0.1169 -0.6787 -0.4455
 3143SOL    HW110501   7.336   6.675   6.241 -0.3224  0.8327 -1.2006
 3143SOL    HW210502   7.453   6.583   6.211 -0.0961  0.3018  1.0822
 3144SOL     OW10503   6.917   6.815   5.539 -0.2720  0.2923  0.5422
 3144SOL    HW110504   6.990   6.867   5.573 -0.5491  0.5353  0.7717
 3144SOL    HW210505   6.948   6.725   5.543  0.8534  0.5384 -1.4468
 3145SOL     OW10506   2.992   5.306   6.428  0.2616  0.0219  0.4814
 3145SOL    HW110507   3.017   5.382   6.480  0.5137 -0.8641  1.6774
 3145SOL    HW210508   2.928   5.340   6.366  2.1603  1.7185 -0.6760
 3146SOL     OW10509   3.233   7.701   4.303 -0.4149  0.2997 -0.3799
 3146SOL    HW110510   3.194   7.783   4.333  0.7445  0.9292 -0.5497
 3146SOL    HW210511   3.180   7.677   4.227 -2.0159 -0.1866  0.8351
 3147SOL     OW10512   0.598   1.484   4.489 -0.2956  0.2418 -0.2148
 3147SOL    HW110513   0.638   1.405   4.452  0.7102  0.6248 -0.0016
 3147SOL    HW210514   0.551   1.453   4.566 -2.5075 -0.5786 -1.8066
 3148SOL     OW10515   2.964   7.464   1.148  0.5008 -0.1096 -0.2987
 3148SOL    HW110516   3.018   7.485   1.072  1.5756  0.1261  0.5141
 3148SOL    HW210517   3.026   7.451   1.220 -0.3913 -1.6598  0.2603
 3149SOL     OW10518   4.420   3.796   2.437  0.0897 -0.2332 -0.4498
 3149SOL    HW110519   4.393   3.831   2.352 -1.6058 -0.3232  0.0072
 3149SOL    HW210520   4.413   3.870   2.497  0.9614 -0.2497 -0.3228
 3150SOL     OW10521   6.039   7.816   6.020 -0.2641  0.0318 -0.1181
 3150SOL    HW110522   6.035   7.737   6.074 -1.5654 -0.6841 -1.1762
 3150SOL    HW210523   5.960   7.864   6.043  0.4295  0.9470  0.3809
 3151SOL     OW10524   0.035   2.852   7.034 -0.3731  0.0744 -0.1672
 3151SOL    HW110525   0.093   2.848   6.958  1.1874 -1.0096  1.0240
 3151SOL    HW210526  -0.052   2.838   6.998  0.5899 -3.6005 -1.5003
 3152SOL     OW10527   5.007   6.228   0.969  0.0820 -0.2716 -0.3191
 3152SOL    HW110528   5.001   6.186   1.054  0.3274  0.5722  0.1285
 3152SOL    HW210529   4.991   6.158   0.906 -0.0553 -0.9117  0.4160
 3153SOL     OW10530   5.842   6.912   6.926 -0.3023 -0.2596 -0.1501
 3153SOL    HW110531   5.784   6.906   7.002  0.1829 -2.6295  0.1191
 3153SOL    HW210532   5.831   6.828   6.881  0.6159  0.4751 -1.8259
 3154SOL     OW10533   4.136   7.515   1.727 -0.1029 -0.0494 -0.3083
 3154SOL    HW110534   4.171   7.583   1.670  0.7717  1.7773  2.2050
 3154SOL    HW210535   4.194   7.516   1.804 -2.3104 -0.9813  1.4912
 3155SOL     OW10536   3.478   5.334   7.114 -0.2573  0.2715  0.4538
 3155SOL    HW110537   3.508   5.244   7.101  3.1567  1.2374  0.5459
 3155SOL    HW210538   3.455   5.339   7.206 -0.7195 -0.5336  0.3946
 3156SOL     OW10539   6.746   2.806   7.126  0.2632  0.0980  0.6840
 3156SOL    HW110540   6.831   2.819   7.167  0.5808 -1.6572  0.6276
 3156SOL    HW210541   6.745   2.714   7.099 -0.7433  0.6401 -1.3961
 3157SOL     OW10542   4.552   5.324   5.347  0.3300  0.0379  0.0918
 3157SOL    HW110543   4.467   5.357   5.376  0.8430  3.7442 -1.9010
 3157SOL    HW210544   4.539   5.231   5.334 -2.3253 -0.2350  3.3131
 3158SOL     OW10545   6.044   0.520   0.695  0.0712  0.1583 -0.1825
 3158SOL    HW110546   6.052   0.431   0.660  1.0046 -0.1295  0.7134
 3158SOL    HW210547   6.011   0.508   0.784  1.4305  0.6075  0.4036
 3159SOL     OW10548   1.043   1.293   0.789 -0.1281  0.0230  0.1026
 3159SOL    HW110549   1.093   1.212   0.795 -1.7410 -1.1294 -1.0620
 3159SOL    HW210550   1.008   1.293   0.700 -1.3838  1.2651  0.5541
 3160SOL     OW10551   0.398   4.410   0.143  0.3344 -0.1777 -0.0546
 3160SOL    HW110552   0.465   4.346   0.121  1.1493  0.4867  0.4588
 3160SOL    HW210553   0.443   4.477   0.193 -0.8215  0.0205  0.7713
 3161SOL     OW10554   1.962   3.066   4.133 -0.1522  0.7970  0.2524
 3161SOL    HW110555   1.984   2.973   4.127  0.7615  0.9944  0.3914
 3161SOL    HW210556   1.946   3.092   4.042 -0.7727  0.4235  0.2504
 3162SOL     OW10557   1.798   5.495   2.682  0.3893  0.0241 -0.1938
 3162SOL    HW110558   1.864   5.427   2.678 -0.5007 -0.8876  0.2661
 3162SOL    HW210559   1.822   5.548   2.758 -1.1511 -2.2228  2.0208
 3163SOL     OW10560   3.865   2.349   6.483 -0.3503  0.0873  0.1542
 3163SOL    HW110561   3.879   2.255   6.477  0.8848  0.2694 -0.1842
 3163SOL    HW210562   3.823   2.362   6.568  0.4171 -0.6759  0.6637
 3164SOL     OW10563   0.625   0.338   3.932 -0.6074  0.3018 -0.4866
 3164SOL    HW110564   0.658   0.262   3.981 -0.1776  1.3636  0.9232
 3164SOL    HW210565   0.531   0.339   3.951 -0.2786  1.3239  1.2464
 3165SOL     OW10566   6.219   1.614   0.089  0.1620 -0.3623  0.2548
 3165SOL    HW110567   6.176   1.657   0.014  0.8138  0.6266  0.4193
 3165SOL    HW210568   6.296   1.669   0.106  1.0796 -1.6664  0.4362
 3166SOL     OW10569   6.790   5.731   6.082 -0.1627 -0.2994 -0.2488
 3166SOL    HW110570   6.735   5.717   6.005  0.0512  0.1051 -0.4786
 3166SOL    HW210571   6.779   5.652   6.134 -0.3030 -0.5780 -0.6993
 3167SOL     OW10572   5.932   2.322   5.227  0.0055  0.6603 -0.4716
 3167SOL    HW110573   5.922   2.284   5.314  1.3802  2.6269  0.6373
 3167SOL    HW210574   5.853   2.374   5.214 -0.6251 -0.3630 -0.8243
 3168SOL     OW10575   7.275   0.867   4.914  0.1658  0.2646 -0.5403
 3168SOL    HW110576   7.280   0.865   5.010  0.0337  1.5501 -0.4887
 3168SOL    HW210577   7.350   0.814   4.885  0.6338  0.4654  0.2743
 3169SOL     OW10578   5.196   3.783   5.453  0.2123  0.2474  0.5979
 3169SOL    HW110579   5.264   3.849   5.468 -1.1077  1.5154  1.3218
 3169SOL    HW210580   5.127   3.831   5.407 -0.4259 -0.8698  0.3539
 3170SOL     OW10581   7.827   1.518   7.046 -0.3584 -0.1618  0.4568
 3170SOL    HW110582   7.821   1.507   7.141 -0.2299  3.3829  1.0047
 3170SOL    HW210583   7.740   1.547   7.020  0.2030  1.0758 -0.1128
 3171SOL     OW10584   2.427   7.698   5.575 -0.2215  0.2714 -0.0989
 3171SOL    HW110585   2.418   7.781   5.622 -0.6296  0.1385  0.0680
 3171SOL    HW210586   2.505   7.658   5.612  0.2492  0.7874 -0.5081
 3172SOL     OW10587   1.406   6.742   3.827  0.1034 -0.4337  0.0803
 3172SOL    HW110588   1.314   6.765   3.838  0.6952  0.9682  3.4840
 3172SOL    HW210589   1.407   6.646   3.833 -1.0520 -0.3967  1.6576
 3173SOL     OW10590   1.288   5.793   3.671  0.2339 -0.1988 -0.0506
 3173SOL    HW110591   1.204   5.750   3.687 -0.5910  1.4006  0.1600
 3173SOL    HW210592   1.278   5.879   3.712  1.6783  0.3356 -0.7672
 3174SOL     OW10593   2.228   7.586   4.542  0.0911  0.0007  0.4824
 3174SOL    HW110594   2.158   7.522   4.535 -1.3698  1.6064 -0.2830
 3174SOL    HW210595   2.299   7.549   4.489 -0.8343 -0.8293 -0.2302
 3175SOL     OW10596   1.511   1.442   5.151  0.3952 -0.0175  0.4427
 3175SOL    HW110597   1.594   1.483   5.174 -0.2405  1.3547  0.4225
 3175SOL    HW210598   1.461   1.441   5.232 -0.2865  0.9834  0.0562
 3176SOL     OW10599   1.202   2.724   7.200  0.7381 -0.2226  0.0401
 3176SOL    HW110600   1.245   2.809   7.193  0.2270 -0.0201 -0.9429
 3176SOL    HW210601   1.136   2.736   7.269  0.5601  0.2370 -0.2028
 3177SOL     OW10602   5.501   6.656   7.114  0.7029 -0.1913  0.3020
 3177SOL    HW110603   5.446   6.714   7.061  0.9862 -1.0442 -0.9571
 3177SOL    HW210604   5.495   6.571   7.071  0.2403 -1.1597  2.1559
 3178SOL     OW10605   6.592   5.954   0.779 -0.5739  0.4089  0.5638
 3178SOL    HW110606   6.513   5.904   0.759 -0.7883  0.6291  0.8564
 3178SOL    HW210607   6.561   6.034   0.821 -0.1887  0.4064  0.8655
 3179SOL     OW10608   1.385   4.934   5.684  0.0094  0.3074  0.3506
 3179SOL    HW110609   1.352   5.015   5.644  1.3338  0.8913  0.3659
 3179SOL    HW210610   1.475   4.956   5.710  0.3604 -1.1549  0.4346
 3180SOL     OW10611   3.870   6.388   7.953  0.1231 -0.2282 -0.5316
 3180SOL    HW110612   3.798   6.445   7.923 -1.3307 -1.4392  0.5132
 3180SOL    HW210613   3.839   6.299   7.933  1.8706 -0.7430 -1.1208
 3181SOL     OW10614   4.980   7.855   5.258 -0.0907 -0.2687 -0.5412
 3181SOL    HW110615   5.027   7.862   5.174  1.2988 -0.9582  0.1422
 3181SOL    HW210616   5.001   7.937   5.303 -1.3051  0.3591 -1.0576
 3182SOL     OW10617   5.084   6.196   7.855 -0.2159 -0.2705 -0.0681
 3182SOL    HW110618   5.001   6.182   7.811 -0.7726  0.4754  0.7113
 3182SOL    HW210619   5.134   6.252   7.796 -0.3512 -0.5363 -0.4372
 3183SOL     OW10620   2.655   2.156   1.016 -0.3855 -0.2374  0.4777
 3183SOL    HW110621   2.585   2.177   1.078 -1.1439 -0.5247 -0.2535
 3183SOL    HW210622   2.642   2.218   0.944  0.1698 -0.2357  0.3783
 3184SOL     OW10623   1.074   8.087   4.793  0.2124 -0.3220  0.7063
 3184SOL    HW110624   1.037   8.120   4.874 -2.2899 -1.9622  0.3646
 3184SOL    HW210625   1.041   8.147   4.726  0.3417 -0.2918  0.6699
 3185SOL     OW10626   0.746   5.417   7.415  0.3413 -0.4361  0.4478
 3185SOL    HW110627   0.787   5.330   7.416 -0.4436 -0.8758 -1.2405
 3185SOL    HW210628   0.703   5.421   7.330  1.8613  2.3457 -0.3014
 3186SOL     OW10629   5.968   0.437   6.789 -0.1068  0.0555  0.0676
 3186SOL    HW110630   5.876   0.466   6.785  0.1900  1.2517  1.2672
 3186SOL    HW210631   6.019   0.518   6.781  0.8075 -0.3956  1.1612
 3187SOL     OW10632   4.307   3.956   2.231 -0.4411 -0.2406  0.0036
 3187SOL    HW110633   4.373   3.994   2.173 -0.4331  0.4133  0.4316
 3187SOL    HW210634   4.261   4.032   2.268 -0.2000 -0.6268  1.1374
 3188SOL     OW10635   7.196   7.414   6.011  0.6291  0.0046  0.5108
 3188SOL    HW110636   7.149   7.363   6.077 -0.2147 -0.7725 -0.6510
 3188SOL    HW210637   7.155   7.390   5.929  1.0631  1.6338 -0.2223
 3189SOL     OW10638   5.882   2.710   7.405  0.2275  0.5761  0.3002
 3189SOL    HW110639   5.855   2.722   7.314 -0.7021  1.1464  0.6310
 3189SOL    HW210640   5.952   2.645   7.401  0.8939  1.3348 -0.9196
 3190SOL     OW10641   0.351   6.773   7.109  0.1080  0.1755 -0.6333
 3190SOL    HW110642   0.388   6.701   7.057  0.0312  0.2173 -0.7470
 3190SOL    HW210643   0.384   6.852   7.067  0.1440  0.2081 -0.5433
 3191SOL     OW10644   4.106   7.883   0.958 -0.4018  0.1527  0.4153
 3191SOL    HW110645   4.179   7.944   0.945  1.3808 -2.0077 -0.3699
 3191SOL    HW210646   4.084   7.891   1.051  1.0408  0.6601  0.7428
 3192SOL     OW10647   1.517   5.935   7.143  0.1668  0.1733  0.2926
 3192SOL    HW110648   1.510   6.027   7.168  1.2006 -0.1043  1.7096
 3192SOL    HW210649   1.562   5.936   7.059  0.2919  0.9535  0.3603
 3193SOL     OW10650   5.304   6.233   6.167  0.0243 -0.1668  0.6534
 3193SOL    HW110651   5.360   6.162   6.197  1.1326  0.8866  1.1907
 3193SOL    HW210652   5.328   6.246   6.075 -1.8279 -1.9659 -0.1461
 3194SOL     OW10653   6.711   0.120   0.010 -0.3821 -0.3409 -0.7389
 3194SOL    HW110654   6.724   0.214  -0.005  0.0062 -0.6239 -2.3363
 3194SOL    HW210655   6.742   0.105   0.099 -0.4556  1.0450 -0.4596
 3195SOL     OW10656   7.107   1.227   7.000 -0.3963  0.1764 -0.2321
 3195SOL    HW110657   7.017   1.218   7.032 -0.9039  0.7249 -1.4274
 3195SOL    HW210658   7.110   1.171   6.922  0.7842 -1.0970  0.6901
 3196SOL     OW10659   4.101   7.128   3.682 -0.1557  0.6425  0.9198
 3196SOL    HW110660   4.034   7.119   3.613  0.3742 -0.6234  0.5363
 3196SOL    HW210661   4.166   7.186   3.644 -0.6543  1.2598  0.9937
 3197SOL     OW10662   6.299   1.839   5.161 -0.2133 -0.0113 -0.0651
 3197SOL    HW110663   6.278   1.754   5.198  1.8743 -1.0772 -1.1664
 3197SOL    HW210664   6.393   1.847   5.170 -0.2349  1.7258 -0.9515
 3198SOL     OW10665   0.239   5.508   1.899  0.2405 -0.5103  0.2768
 3198SOL    HW110666   0.258   5.511   1.805  0.6405 -2.5582  0.2547
 3198SOL    HW210667   0.294   5.577   1.936  1.2289 -0.6610 -0.8270
 3199SOL     OW10668   2.365   2.216   2.095 -0.2063 -0.4700 -0.5816
 3199SOL    HW110669   2.388   2.132   2.136 -1.6004 -0.3502  0.5048
 3199SOL    HW210670   2.292   2.195   2.038 -1.1796  0.1322  0.4005
 3200SOL     OW10671   2.650   3.918   4.521 -0.2039  0.8419  0.4950
 3200SOL    HW110672   2.614   3.852   4.581  0.8831  0.8448  1.1757
 3200SOL    HW210673   2.716   3.963   4.573  1.3688  0.2938 -0.9408
 3201SOL     OW10674   5.217   2.813   4.820 -0.4485  0.6892 -0.5082
 3201SOL    HW110675   5.180   2.746   4.764  1.6213  2.0039 -3.7713
 3201SOL    HW210676   5.156   2.887   4.813 -0.2116  0.8387 -1.0459
 3202SOL     OW10677   6.382   0.386   5.369 -0.1319  0.3322  0.1789
 3202SOL    HW110678   6.454   0.426   5.320  0.2822  0.8982  1.2167
 3202SOL    HW210679   6.421   0.362   5.453 -0.7324 -0.9851  0.1034
 3203SOL     OW10680   6.420   0.844   3.168 -0.2480  0.5042 -0.2763
 3203SOL    HW110681   6.438   0.751   3.153 -1.3393  0.0632  0.9156
 3203SOL    HW210682   6.500   0.879   3.206 -0.3615 -0.3436  0.7713
 3204SOL     OW10683   1.382   6.117   1.768  0.1542  0.0491 -0.0468
 3204SOL    HW110684   1.423   6.204   1.773 -0.0378  0.1043  0.6385
 3204SOL    HW210685   1.422   6.077   1.690  1.2601  0.2368  0.3972
 3205SOL     OW10686   0.255   4.437   2.800  0.0164  0.2192 -0.0868
 3205SOL    HW110687   0.278   4.492   2.725 -0.5381 -1.4992 -1.5711
 3205SOL    HW210688   0.336   4.391   2.821 -0.4889 -1.4197 -1.5175
 3206SOL     OW10689   4.757   3.887   4.082  0.1884  0.4249  0.1427
 3206SOL    HW110690   4.792   3.942   4.153  2.2005 -1.0053  0.3403
 3206SOL    HW210691   4.774   3.797   4.111 -0.2104 -0.2268 -1.5374
 3207SOL     OW10692   1.664   0.585   6.107  0.0093  0.0067 -0.0290
 3207SOL    HW110693   1.756   0.587   6.134  0.8633  1.5267 -2.5836
 3207SOL    HW210694   1.632   0.500   6.136  2.2360 -0.5992  0.8888
 3208SOL     OW10695   5.240   2.568   3.644  0.4159 -0.0973  0.7923
 3208SOL    HW110696   5.329   2.547   3.671  0.3375 -3.9080 -1.3175
 3208SOL    HW210697   5.184   2.511   3.697 -0.5001 -0.1225 -0.1650
 3209SOL     OW10698   6.945   1.376   5.649  0.3412 -0.4020 -0.4836
 3209SOL    HW110699   6.949   1.362   5.743 -0.4033 -1.7409 -0.6303
 3209SOL    HW210700   6.851   1.384   5.629  0.3904 -1.5958 -1.2866
 3210SOL     OW10701   3.419   7.752   5.312 -0.1473 -0.3096  0.0633
 3210SOL    HW110702   3.406   7.830   5.366  0.8662  1.2417 -1.8087
 3210SOL    HW210703   3.481   7.699   5.361  0.0221  0.5931  0.8487
 3211SOL     OW10704   3.970   7.328   7.144 -0.0736  0.1601 -0.3258
 3211SOL    HW110705   4.007   7.299   7.227 -0.5684 -0.9401 -0.4824
 3211SOL    HW210706   3.962   7.423   7.154  0.3938  0.1085  0.6702
 3212SOL     OW10707   1.646   0.879   3.936  0.3256 -0.1609  0.7764
 3212SOL    HW110708   1.644   0.789   3.904 -1.1104 -0.5369  1.8144
 3212SOL    HW210709   1.607   0.875   4.023 -0.1737  1.5379  0.6808
 3213SOL     OW10710   1.836   4.708   6.068 -0.3430 -0.0721  0.5540
 3213SOL    HW110711   1.870   4.639   6.010 -1.0528 -0.5103  0.6451
 3213SOL    HW210712   1.845   4.788   6.017 -3.2077 -0.7311 -1.2209
 3214SOL     OW10713   4.606   0.785   0.349 -0.7204 -0.1868 -0.2236
 3214SOL    HW110714   4.647   0.726   0.286 -1.1045  0.2210 -0.8707
 3214SOL    HW210715   4.543   0.835   0.298 -0.9750  0.2242  0.4695
 3215SOL     OW10716   2.895   4.781   3.658 -0.0030  0.1749  0.6084
 3215SOL    HW110717   2.945   4.798   3.738  0.3146 -1.2658  0.7459
 3215SOL    HW210718   2.840   4.706   3.680  0.7437 -0.8229 -0.7848
 3216SOL     OW10719   6.642   7.241   7.927  0.0498 -0.0720  0.1360
 3216SOL    HW110720   6.671   7.183   7.997  0.3675  0.3128  0.3263
 3216SOL    HW210721   6.723   7.277   7.891 -0.1240 -0.0773 -0.2688
 3217SOL     OW10722   4.752   2.869   3.204  0.6640 -0.1953  0.7226
 3217SOL    HW110723   4.716   2.807   3.140 -0.4890 -0.4815  1.6279
 3217SOL    HW210724   4.724   2.835   3.289  2.8480 -0.2517  1.4605
 3218SOL     OW10725   2.800   4.459   6.315  0.3047 -0.2183 -0.2123
 3218SOL    HW110726   2.803   4.554   6.306  2.2411 -0.1115  0.9558
 3218SOL    HW210727   2.707   4.439   6.328 -0.2123  1.4160 -1.0853
 3219SOL     OW10728   1.147   5.146   2.469 -0.7678 -0.0810  0.4685
 3219SOL    HW110729   1.145   5.242   2.473 -0.3329  0.0271 -1.1687
 3219SOL    HW210730   1.182   5.119   2.553 -1.1064  1.1899  1.0368
 3220SOL     OW10731   4.746   4.680   2.748 -0.0422 -0.0565 -0.6057
 3220SOL    HW110732   4.653   4.677   2.771 -0.2863 -2.1988 -1.6937
 3220SOL    HW210733   4.747   4.692   2.653  0.7628 -0.7286 -0.6956
 3221SOL     OW10734   5.198   5.471   6.852 -0.3474 -0.0432  0.0669
 3221SOL    HW110735   5.144   5.409   6.803 -2.0152  1.1085  0.3508
 3221SOL    HW210736   5.249   5.416   6.912 -0.4030 -1.2497 -0.9561
 3222SOL     OW10737   6.226   2.736   2.074  0.6860 -0.1104 -0.0793
 3222SOL    HW110738   6.258   2.678   2.005  1.2380 -1.2320  1.0777
 3222SOL    HW210739   6.305   2.766   2.118  0.3837  1.2757 -0.4360
 3223SOL     OW10740   6.661   1.049   3.594  0.1601 -0.0429 -0.4088
 3223SOL    HW110741   6.688   1.108   3.523  1.5289  0.1330  0.2242
 3223SOL    HW210742   6.715   0.971   3.582  0.4667  0.0252  0.4815
 3224SOL     OW10743   5.025   5.423   3.341  0.0987  0.1739  0.4913
 3224SOL    HW110744   5.050   5.381   3.424  1.9617  1.6429  0.7416
 3224SOL    HW210745   5.078   5.503   3.338 -1.9581  1.5670 -0.8415
 3225SOL     OW10746   7.835   3.381   0.082  0.5258  0.3435  0.0982
 3225SOL    HW110747   7.787   3.399   0.001 -1.2374  0.6735  1.1582
 3225SOL    HW210748   7.766   3.369   0.148  1.9109 -0.0680  1.5157
 3226SOL     OW10749   5.313   4.240   4.870 -0.0061  0.2175  0.2218
 3226SOL    HW110750   5.261   4.320   4.870  1.1912  1.0711  2.3508
 3226SOL    HW210751   5.314   4.211   4.961  2.0528 -0.5224  0.0242
 3227SOL     OW10752   7.162   6.656   3.667  0.3880  0.6631 -0.2186
 3227SOL    HW110753   7.156   6.747   3.637  0.8956  0.5791 -0.6005
 3227SOL    HW210754   7.210   6.611   3.597 -0.5085 -0.0702 -0.3864
 3228SOL     OW10755   5.222   7.292   0.259 -0.2533  0.2336  0.2758
 3228SOL    HW110756   5.292   7.331   0.310 -1.2633  1.7297  0.5853
 3228SOL    HW210757   5.192   7.363   0.201  0.1166 -1.0786 -1.6245
 3229SOL     OW10758   1.446   5.077   4.700  0.5250  0.0585  0.1147
 3229SOL    HW110759   1.500   5.101   4.625 -0.2990 -4.4925 -2.3477
 3229SOL    HW210760   1.502   5.021   4.753 -0.6708 -2.1543 -0.8102
 3230SOL     OW10761   0.951   7.989   6.210  0.0953 -0.6908  0.1874
 3230SOL    HW110762   0.864   7.965   6.242 -0.7155  1.2280 -0.4739
 3230SOL    HW210763   0.935   8.055   6.143  2.1041  0.1830  0.5066
 3231SOL     OW10764   5.778   0.036   0.077 -0.1910 -0.2863 -0.7013
 3231SOL    HW110765   5.806   0.009  -0.010 -0.3685 -2.4571 -0.1558
 3231SOL    HW210766   5.683   0.024   0.077 -0.3355  0.7785 -0.5402
 3232SOL     OW10767   2.547   3.039   7.369 -0.1677  0.4154 -0.0169
 3232SOL    HW110768   2.465   3.002   7.338 -0.1355 -0.4264  0.8629
 3232SOL    HW210769   2.553   3.012   7.461  1.5372 -0.3527 -0.3055
 3233SOL     OW10770   0.748   5.758   0.953  0.0165  0.0119 -0.8000
 3233SOL    HW110771   0.745   5.708   0.872 -0.0748 -0.6524 -0.3934
 3233SOL    HW210772   0.804   5.833   0.933 -0.9268  0.4741 -1.8098
 3234SOL     OW10773   3.205   1.538   7.831 -0.3858  0.1520 -0.3368
 3234SOL    HW110774   3.164   1.499   7.908  0.3302  0.3761  0.1648
 3234SOL    HW210775   3.195   1.632   7.845  2.1468  0.3154  0.8693
 3235SOL     OW10776   6.792   7.629   1.227  0.1546  0.2861  0.2478
 3235SOL    HW110777   6.859   7.591   1.170  0.6912  0.9234  0.4384
 3235SOL    HW210778   6.830   7.625   1.314 -0.0915  0.5748  0.3706
 3236SOL     OW10779   5.321   5.996   4.055 -0.3055 -0.5215 -0.3652
 3236SOL    HW110780   5.327   6.052   3.978 -2.2842 -0.8479 -0.8060
 3236SOL    HW210781   5.263   6.044   4.115  1.2865 -0.2149  1.0309
 3237SOL     OW10782   7.488   7.070   3.555 -0.0280  0.1442 -0.4270
 3237SOL    HW110783   7.434   7.096   3.480 -0.7899 -0.2330 -0.0145
 3237SOL    HW210784   7.449   7.115   3.630  2.5347  3.0448 -0.6155
 3238SOL     OW10785   7.964   7.637   5.526 -0.1258 -0.1831  0.5362
 3238SOL    HW110786   7.986   7.622   5.434 -1.6009  0.5452  0.0279
 3238SOL    HW210787   7.996   7.559   5.571  1.0961 -0.3195 -0.5008
 3239SOL     OW10788   0.654   7.265   5.883 -0.3021  0.5178 -0.5935
 3239SOL    HW110789   0.589   7.335   5.882  0.1990  0.9808 -0.7516
 3239SOL    HW210790   0.607   7.190   5.920 -1.2401  0.5330 -1.7035
 3240SOL     OW10791   3.732   4.089   3.864 -0.0220  0.1539 -0.5537
 3240SOL    HW110792   3.757   4.027   3.933 -1.1810 -0.4937 -0.6845
 3240SOL    HW210793   3.759   4.175   3.897  2.2014 -0.4633 -0.6471
 3241SOL     OW10794   6.066   1.023   6.670  0.2006  0.0117  0.7667
 3241SOL    HW110795   6.140   1.060   6.718 -0.4034  1.5364  0.5760
 3241SOL    HW210796   6.042   1.091   6.606 -0.2051 -1.2010 -0.4291
 3242SOL     OW10797   4.994   5.257   2.540  0.4575  0.5993  0.2529
 3242SOL    HW110798   4.947   5.236   2.460 -1.3815 -2.8593  2.0106
 3242SOL    HW210799   5.067   5.195   2.542  0.4181  0.5640  1.2594
 3243SOL     OW10800   3.442   4.820   6.688  0.4095  0.2661  0.4374
 3243SOL    HW110801   3.437   4.758   6.616  0.6673  0.9643 -0.1943
 3243SOL    HW210802   3.411   4.771   6.765  1.3121 -0.8505  0.1005
 3244SOL     OW10803   1.961   6.524   2.330 -0.6369  0.1282 -0.4170
 3244SOL    HW110804   2.043   6.550   2.288  0.8420 -0.2687  1.9810
 3244SOL    HW210805   1.909   6.485   2.261  1.1960  0.3861 -2.0318
 3245SOL     OW10806   4.857   2.660   0.312  0.2237 -0.4127 -0.0292
 3245SOL    HW110807   4.771   2.642   0.273  0.4401  2.1206 -1.9216
 3245SOL    HW210808   4.919   2.612   0.257  0.1578 -0.8378  0.2653
 3246SOL     OW10809   7.748   5.668   0.911  0.7405 -0.3561 -0.2971
 3246SOL    HW110810   7.686   5.601   0.938  0.3977  0.4148  0.9067
 3246SOL    HW210811   7.753   5.659   0.816 -0.3426 -1.1827 -0.2953
 3247SOL     OW10812   0.922   0.639   2.075 -0.0239 -0.4095  0.4337
 3247SOL    HW110813   1.006   0.636   2.120  0.3636 -0.1589 -0.2583
 3247SOL    HW210814   0.936   0.592   1.993  0.1128  1.5306 -0.7260
 3248SOL     OW10815   7.838   5.529   2.011 -0.4396 -0.6568 -0.0961
 3248SOL    HW110816   7.858   5.535   2.105 -1.3868 -2.6646  0.2769
 3248SOL    HW210817   7.881   5.449   1.982  1.3902  0.8688 -1.8567
 3249SOL     OW10818   2.167   1.219   7.232  0.7678  0.0957 -0.0679
 3249SOL    HW110819   2.151   1.254   7.145  0.9836 -1.1546 -0.6280
 3249SOL    HW210820   2.142   1.290   7.292 -1.7267  0.1109 -1.0438
 3250SOL     OW10821   7.838   0.807   7.635  0.4079  0.5171  0.2788
 3250SOL    HW110822   7.866   0.898   7.626 -1.3671  0.9688 -1.4927
 3250SOL    HW210823   7.762   0.800   7.577  0.5458 -2.1304  0.3084
 3251SOL     OW10824   1.416   7.867   2.535  0.0869 -0.0138  0.5039
 3251SOL    HW110825   1.370   7.908   2.609  2.2096  0.3010  1.7272
 3251SOL    HW210826   1.454   7.787   2.572  0.5132 -0.2679 -0.4618
 3252SOL     OW10827   0.974   2.015   4.604 -0.0914 -0.4890  0.5831
 3252SOL    HW110828   1.014   2.099   4.583 -1.5718 -0.0585 -0.6910
 3252SOL    HW210829   1.042   1.950   4.583  0.6824  0.3169  0.5291
 3253SOL     OW10830   2.230   1.572   6.524  0.4833  0.0220 -0.2249
 3253SOL    HW110831   2.214   1.587   6.617  1.0601  1.9197 -0.3914
 3253SOL    HW210832   2.204   1.653   6.482  0.7881 -0.5944 -1.6600
 3254SOL     OW10833   4.701   7.402   5.181  0.3419 -0.4168  0.1050
 3254SOL    HW110834   4.615   7.372   5.150  0.5227 -1.4415  0.5618
 3254SOL    HW210835   4.739   7.326   5.225  0.5043  0.6888  1.9861
 3255SOL     OW10836   7.434   7.469   4.804  0.6185 -0.1638  0.6865
 3255SOL    HW110837   7.368   7.464   4.873  0.0172 -1.9377  0.0593
 3255SOL    HW210838   7.404   7.406   4.738  2.8059 -0.8639  0.2639
 3256SOL     OW10839   2.169   0.642   5.348  0.6051 -0.1428  0.3194
 3256SOL    HW110840   2.122   0.586   5.286 -0.2796  1.2644 -0.3244
 3256SOL    HW210841   2.204   0.713   5.294  0.2904  0.8141  1.3342
 3257SOL     OW10842   7.067   2.617   2.606  0.0893 -0.0384  0.1577
 3257SOL    HW110843   7.058   2.543   2.665  1.6544  0.4379  1.0668
 3257SOL    HW210844   6.978   2.648   2.591 -0.4312 -1.0237  1.1602
 3258SOL     OW10845   0.427   5.073   6.078  0.3023 -0.4708 -0.6116
 3258SOL    HW110846   0.400   5.132   6.008  0.3317  0.5406  0.2082
 3258SOL    HW210847   0.352   5.015   6.090  0.1780 -0.4582 -1.2520
 3259SOL     OW10848   4.594   5.364   1.501 -0.2246  0.8068 -0.3639
 3259SOL    HW110849   4.616   5.389   1.411 -2.3849  2.1236 -0.5900
 3259SOL    HW210850   4.504   5.394   1.513 -0.1328  0.2852  2.1282
 3260SOL     OW10851   0.036   0.626   3.490  0.6714 -0.3309  0.1283
 3260SOL    HW110852   0.111   0.649   3.545 -0.4150 -0.9429  1.9221
 3260SOL    HW210853  -0.040   0.658   3.538 -0.4803 -2.8270  0.0793
 3261SOL     OW10854   3.521   5.489   1.585 -0.4629 -0.1867  0.2753
 3261SOL    HW110855   3.480   5.452   1.507  1.0979  0.0862 -0.7221
 3261SOL    HW210856   3.588   5.549   1.551 -0.3573  0.6466  1.8353
 3262SOL     OW10857   5.408   1.629   1.863 -0.2207 -0.1525  0.5362
 3262SOL    HW110858   5.376   1.605   1.777  0.0592  1.0178  0.0954
 3262SOL    HW210859   5.490   1.676   1.847 -1.6118  2.6825  1.2082
 3263SOL     OW10860   2.060   3.019   5.309 -0.0185  0.1804  0.0866
 3263SOL    HW110861   2.042   2.938   5.260 -4.4837  0.7234  0.3642
 3263SOL    HW210862   2.059   3.088   5.242  1.7400  0.2635  0.1047
 3264SOL     OW10863   1.220   0.960   5.945  0.0120 -0.0063 -0.3044
 3264SOL    HW110864   1.226   0.999   5.858 -1.2753 -1.3746 -1.0575
 3264SOL    HW210865   1.187   1.031   6.001 -1.9297  0.1344 -1.5472
 3265SOL     OW10866   0.199   4.596   2.064 -0.3366 -0.1400  0.0745
 3265SOL    HW110867   0.241   4.522   2.108 -0.8551 -0.4745  0.0185
 3265SOL    HW210868   0.251   4.610   1.985 -0.5358 -0.7755 -0.1750
 3266SOL     OW10869   6.786   1.686   0.859 -0.2184 -0.1890  0.1413
 3266SOL    HW110870   6.725   1.613   0.870 -0.6369 -0.0656 -1.1873
 3266SOL    HW210871   6.863   1.646   0.817  1.5857 -0.7769  3.6688
 3267SOL     OW10872   1.088   0.211   2.559 -0.9667  0.1742 -0.1806
 3267SOL    HW110873   1.095   0.134   2.615 -2.5173  1.2041  1.5419
 3267SOL    HW210874   1.001   0.204   2.519 -0.9620  0.8450 -0.3190
 3268SOL     OW10875   3.122   2.603   6.395 -0.2600 -0.3209  0.1747
 3268SOL    HW110876   3.069   2.564   6.325 -3.2290  1.4660  1.2286
 3268SOL    HW210877   3.141   2.691   6.365 -0.9698  0.2333  1.2681
 3269SOL     OW10878   1.028   3.724   6.975  0.0184 -0.0344 -0.2180
 3269SOL    HW110879   1.038   3.629   6.969  0.2620 -0.0087 -0.2034
 3269SOL    HW210880   0.934   3.737   6.991 -0.3806 -0.2003 -2.1380
 3270SOL     OW10881   4.459   1.611   3.577 -0.4894 -0.2116  0.2907
 3270SOL    HW110882   4.444   1.605   3.671 -0.2810 -1.8580  0.2528
 3270SOL    HW210883   4.533   1.671   3.568 -0.3979 -0.1728  1.1883
 3271SOL     OW10884   5.967   1.828   7.728  0.5891 -0.3691  0.0474
 3271SOL    HW110885   6.024   1.858   7.656 -0.2557 -1.1989 -1.0044
 3271SOL    HW210886   5.880   1.862   7.705 -0.0654 -2.2021 -0.3274
 3272SOL     OW10887   3.989   7.093   1.754 -0.0312  0.2172 -0.2078
 3272SOL    HW110888   3.926   7.148   1.801  1.7300  1.8353  0.3795
 3272SOL    HW210889   4.009   7.144   1.675  0.1503 -0.5394 -0.6523
 3273SOL     OW10890   7.395   5.510   1.815 -0.3057 -0.0882  0.4906
 3273SOL    HW110891   7.445   5.465   1.746 -0.3722  1.0308 -0.3197
 3273SOL    HW210892   7.461   5.535   1.880  0.0246  0.2847  0.0251
 3274SOL     OW10893   3.448   1.375   7.152 -0.1594 -0.3659  0.3022
 3274SOL    HW110894   3.379   1.442   7.154  1.5763  1.4784  1.2528
 3274SOL    HW210895   3.410   1.301   7.200 -1.9644  0.0491 -0.3876
 3275SOL     OW10896   0.967   0.522   3.748  0.0295  0.7851 -0.0457
 3275SOL    HW110897   1.050   0.547   3.707 -0.3525 -0.2441 -1.5057
 3275SOL    HW210898   0.900   0.557   3.690 -0.5547  0.6281  0.5235
 3276SOL     OW10899   0.684   1.244   5.882 -0.3023 -0.4249  0.1945
 3276SOL    HW110900   0.701   1.197   5.964 -1.7349 -0.0188  0.7463
 3276SOL    HW210901   0.600   1.210   5.851  1.8088 -3.3578 -3.1587
 3277SOL     OW10902   4.482   1.583   6.282  0.1946  0.5736  0.5383
 3277SOL    HW110903   4.555   1.527   6.255  0.1686  0.9512 -0.3287
 3277SOL    HW210904   4.411   1.560   6.222 -1.0115 -1.0447  2.4230
 3278SOL     OW10905   2.796   4.546   1.121  0.0154 -0.4723 -0.6451
 3278SOL    HW110906   2.890   4.539   1.131 -0.0131  0.0311  0.0349
 3278SOL    HW210907   2.770   4.618   1.179 -0.7878 -0.6131 -0.8066
 3279SOL     OW10908   1.296   0.312   8.123  0.3814 -0.3495  0.4485
 3279SOL    HW110909   1.380   0.354   8.104 -0.1958  0.9433  0.6449
 3279SOL    HW210910   1.287   0.246   8.055  0.4820  1.0881 -1.0361
 3280SOL     OW10911   7.716   1.002   6.754  0.0847 -0.0177  0.0033
 3280SOL    HW110912   7.799   1.013   6.801  0.7220  1.7141 -1.4311
 3280SOL    HW210913   7.737   1.023   6.663 -2.2981  2.5907 -0.0928
 3281SOL     OW10914   5.538   5.777   3.733 -0.2083 -0.7007 -0.2619
 3281SOL    HW110915   5.473   5.717   3.697 -0.6452  0.0337 -0.7365
 3281SOL    HW210916   5.562   5.740   3.818 -0.5616 -1.4659 -0.4937
 3282SOL     OW10917   1.266   6.732   1.857 -0.4817  0.3275  0.2457
 3282SOL    HW110918   1.339   6.794   1.858  1.0062 -1.3498  0.0399
 3282SOL    HW210919   1.196   6.779   1.811  0.8312  1.5970 -0.5466
 3283SOL     OW10920   2.528   0.287   4.442  0.0701  0.1316 -0.5207
 3283SOL    HW110921   2.530   0.204   4.394 -0.1550 -1.3891  1.9220
 3283SOL    HW210922   2.569   0.350   4.383  2.6935 -2.2637 -1.4875
 3284SOL     OW10923   3.892   6.960   0.914  0.6994  0.9087 -0.1177
 3284SOL    HW110924   3.922   7.006   0.836  0.1437 -0.4267 -1.1675
 3284SOL    HW210925   3.816   7.009   0.943 -0.9715 -0.2466 -2.2571
 3285SOL     OW10926   7.059   4.769   6.961 -0.2739  0.2575 -0.3615
 3285SOL    HW110927   7.005   4.691   6.972 -2.0235  1.4178 -0.2443
 3285SOL    HW210928   7.067   4.779   6.866  1.2294 -0.8512 -0.3868
 3286SOL     OW10929   2.144   5.414   7.537 -0.4725  0.1620 -0.1223
 3286SOL    HW110930   2.159   5.402   7.630 -1.1109 -1.9452 -0.2192
 3286SOL    HW210931   2.224   5.382   7.495 -0.3129  0.7985 -0.3166
 3287SOL     OW10932   4.790   4.425   2.072 -0.1262 -0.1952 -0.4490
 3287SOL    HW110933   4.884   4.408   2.073 -0.1099 -0.1351 -0.9478
 3287SOL    HW210934   4.770   4.448   2.163 -0.2248 -3.1187  0.3739
 3288SOL     OW10935   4.000   1.006   4.958 -0.3845 -0.1554  0.5630
 3288SOL    HW110936   4.042   1.091   4.969 -0.7709  0.3033 -1.2011
 3288SOL    HW210937   3.923   1.024   4.903  0.6240 -1.9079 -1.5780
 3289SOL     OW10938   4.530   1.107   7.557 -0.1038 -0.1450  0.2159
 3289SOL    HW110939   4.503   1.197   7.578 -1.4873 -0.8110  1.5317
 3289SOL    HW210940   4.622   1.103   7.582  0.4957  1.3936 -1.5607
 3290SOL     OW10941   7.753   6.120   5.753 -0.0292  0.2866  0.1448
 3290SOL    HW110942   7.772   6.038   5.707 -2.4534  0.3110 -1.0197
 3290SOL    HW210943   7.800   6.112   5.836  2.8482 -0.6363 -1.4158
 3291SOL     OW10944   2.211   6.123   0.450 -0.2484  1.1555 -0.0601
 3291SOL    HW110945   2.179   6.171   0.374  2.4681 -1.9597 -3.5807
 3291SOL    HW210946   2.306   6.134   0.448  0.2686 -2.0102  0.4588
 3292SOL     OW10947   5.982   6.989   1.603 -0.3086  0.2133 -0.0093
 3292SOL    HW110948   6.064   7.014   1.559 -1.6575  0.0040 -2.8221
 3292SOL    HW210949   5.985   7.037   1.686  3.6469 -1.4949  1.0960
 3293SOL     OW10950   1.303   6.608   0.660 -0.5717 -0.0271 -0.0433
 3293SOL    HW110951   1.313   6.703   0.651  0.6999 -0.1395  0.0111
 3293SOL    HW210952   1.259   6.596   0.744 -1.4579  0.5308 -0.4048
 3294SOL     OW10953   3.901   4.766   3.364 -0.3607  0.6190 -1.2363
 3294SOL    HW110954   3.940   4.845   3.326 -1.5166 -0.1176 -4.2661
 3294SOL    HW210955   3.967   4.698   3.351  0.4337  0.9204  0.9165
 3295SOL     OW10956   0.420   0.709   2.195 -0.1259 -0.1931 -0.0391
 3295SOL    HW110957   0.453   0.640   2.137 -1.4450 -1.4470  0.6107
 3295SOL    HW210958   0.352   0.665   2.247  0.5279  1.0474  1.9805
 3296SOL     OW10959   7.689   3.386   7.764 -1.1538  0.3783 -0.0595
 3296SOL    HW110960   7.710   3.428   7.681 -1.1123  0.8900  0.2052
 3296SOL    HW210961   7.645   3.305   7.740  2.1536 -1.3874 -0.6770
 3297SOL     OW10962   6.608   0.199   0.458  0.1729 -0.0784  0.1066
 3297SOL    HW110963   6.591   0.105   0.467 -3.5978  0.6292  2.2167
 3297SOL    HW210964   6.670   0.205   0.385 -0.8510 -4.0483 -1.3363
 3298SOL     OW10965   5.046   4.215   4.593  0.1836  0.2188  0.2174
 3298SOL    HW110966   5.037   4.302   4.632  1.2355 -0.0428  1.1370
 3298SOL    HW210967   5.071   4.159   4.667  1.7679 -0.4031 -0.7207
 3299SOL     OW10968   1.955   5.357   3.500 -0.0934  0.2100 -1.0314
 3299SOL    HW110969   1.893   5.430   3.489  0.9522  1.0086 -1.8949
 3299SOL    HW210970   1.957   5.341   3.594  0.4501  2.0535 -0.6824
 3300SOL     OW10971   3.408   0.694   0.523 -0.1277 -0.0527 -0.4129
 3300SOL    HW110972   3.419   0.599   0.529 -0.6185 -0.0456  0.7294
 3300SOL    HW210973   3.358   0.718   0.601  0.3664  1.2017 -0.4570
 3301SOL     OW10974   0.531   6.793   4.613  0.0852 -0.3514 -0.3857
 3301SOL    HW110975   0.579   6.874   4.630  1.1936 -0.2640 -3.3372
 3301SOL    HW210976   0.537   6.781   4.518 -1.6886 -2.9099 -0.2812
 3302SOL     OW10977   6.008   1.248   7.695  0.3052 -0.5241 -0.3705
 3302SOL    HW110978   5.977   1.158   7.700  0.6010 -0.6927 -1.3834
 3302SOL    HW210979   6.064   1.250   7.617 -0.8205  0.8541 -1.1980
 3303SOL     OW10980   0.227   4.946   3.506 -0.0608 -0.0432  0.1276
 3303SOL    HW110981   0.315   4.933   3.543  0.3935  0.4375 -0.7507
 3303SOL    HW210982   0.233   5.030   3.460 -0.3759 -0.9635 -1.6648
 3304SOL     OW10983   4.427   7.396   6.507 -0.0696  1.1553 -0.1617
 3304SOL    HW110984   4.385   7.442   6.434 -1.0939 -0.5261 -0.6704
 3304SOL    HW210985   4.449   7.310   6.473 -1.1556  0.0878  1.6890
 3305SOL     OW10986   7.307   3.865   1.501  0.1220  0.1237  0.5651
 3305SOL    HW110987   7.392   3.897   1.469 -0.0803 -0.9426 -1.1391
 3305SOL    HW210988   7.243   3.922   1.460 -0.0461  0.2331  0.9754
 3306SOL     OW10989   1.259   6.636   2.858 -0.5577 -0.3383  0.2491
 3306SOL    HW110990   1.206   6.620   2.935  0.1953  2.5393  1.5077
 3306SOL    HW210991   1.201   6.683   2.797 -0.0510  1.2219  0.9034
 3307SOL     OW10992   4.903   2.232   0.072 -0.4371  0.3185 -0.4210
 3307SOL    HW110993   4.860   2.289   0.009 -1.5928  0.0613  0.0845
 3307SOL    HW210994   4.871   2.262   0.157  2.1630  1.5576  0.2079
 3308SOL     OW10995   7.710   5.385   3.157  0.4647 -1.1744  0.2040
 3308SOL    HW110996   7.777   5.319   3.174  0.5842 -1.3977 -1.0912
 3308SOL    HW210997   7.627   5.338   3.168  0.4769 -0.9119  1.7458
 3309SOL     OW10998   5.595   1.651   2.191  0.1544  0.2832  0.4386
 3309SOL    HW110999   5.596   1.747   2.187 -0.9434  0.2652 -0.3481
 3309SOL    HW211000   5.508   1.626   2.163  1.2795 -1.0758 -2.1851
 3310SOL     OW11001   1.366   3.672   7.324 -0.2047 -0.7187  0.3724
 3310SOL    HW111002   1.454   3.696   7.354  0.2531  0.0140 -1.4437
 3310SOL    HW211003   1.360   3.578   7.342  2.3788 -1.6243 -2.6702
 3311SOL     OW11004   7.370   1.565   4.047  0.0363 -0.5353  0.1007
 3311SOL    HW111005   7.393   1.657   4.061 -0.2551 -0.6949  1.7864
 3311SOL    HW211006   7.278   1.568   4.020  0.1592 -0.3071 -0.3039
 3312SOL     OW11007   1.284   4.082   0.699 -0.3188 -0.3198  0.6499
 3312SOL    HW111008   1.263   4.001   0.653 -0.1747  0.3850 -0.6954
 3312SOL    HW211009   1.287   4.057   0.791  0.4871 -2.0116  0.2040
 3313SOL     OW11010   1.076   4.065   5.301  0.4356 -0.1039 -0.1331
 3313SOL    HW111011   1.153   4.120   5.290  0.2040  0.0779 -0.8948
 3313SOL    HW211012   1.110   3.982   5.336  0.8506  0.3204  0.4741
 3314SOL     OW11013   3.830   3.587   2.405 -0.5074 -0.2436  0.6031
 3314SOL    HW111014   3.872   3.666   2.371 -0.1729 -1.0464 -0.9768
 3314SOL    HW211015   3.903   3.528   2.425 -0.7731 -0.3958  1.1313
 3315SOL     OW11016   7.854   6.890   0.439 -0.2264 -0.2756 -0.0260
 3315SOL    HW111017   7.798   6.821   0.476  0.5939 -1.2495 -0.5308
 3315SOL    HW211018   7.792   6.954   0.404 -1.1084 -1.8802 -1.6270
 3316SOL     OW11019   0.984   5.247   1.909  0.0592 -0.6374 -0.4086
 3316SOL    HW111020   0.917   5.180   1.927  0.0719 -1.3566 -2.6453
 3316SOL    HW211021   1.015   5.274   1.995 -2.0299 -1.3814  0.6617
 3317SOL     OW11022   5.040   4.237   4.192 -0.0261  0.1869  0.6961
 3317SOL    HW111023   5.107   4.221   4.259  0.3123 -0.3121  0.2449
 3317SOL    HW211024   5.062   4.323   4.157 -0.3398  0.5537  1.3759
 3318SOL     OW11025   3.475   4.286   2.732 -0.6721 -0.1772 -0.4031
 3318SOL    HW111026   3.523   4.358   2.774 -1.3998  0.1000 -0.0306
 3318SOL    HW211027   3.384   4.298   2.760 -0.7677 -1.3794 -0.1576
 3319SOL     OW11028   5.157   5.573   5.591 -0.2170 -0.1788  0.2553
 3319SOL    HW111029   5.104   5.516   5.647  0.7297 -1.6225 -0.2554
 3319SOL    HW211030   5.209   5.625   5.652 -1.9499  1.0709  0.7605
 3320SOL     OW11031   7.443   0.768   0.957  0.0303  0.2032  0.3632
 3320SOL    HW111032   7.374   0.811   1.007  0.2532  1.7924 -0.6569
 3320SOL    HW211033   7.511   0.835   0.945 -0.1010 -0.0235 -2.2346
 3321SOL     OW11034   6.726   2.040   2.062 -0.2387 -0.1964  0.2151
 3321SOL    HW111035   6.680   1.996   1.990 -0.1444 -0.9394  0.5960
 3321SOL    HW211036   6.658   2.084   2.112 -0.5131 -1.0616  0.6184
 3322SOL     OW11037   3.736   5.564   8.142 -0.0019 -0.1123  0.2464
 3322SOL    HW111038   3.726   5.499   8.211  1.3675 -1.2585 -0.5699
 3322SOL    HW211039   3.795   5.630   8.179 -1.0936  0.4942  0.9433
 3323SOL     OW11040   4.944   5.094   5.009 -0.1602  0.1474  0.1937
 3323SOL    HW111041   4.909   5.160   4.950 -0.5317 -0.9484 -0.8528
 3323SOL    HW211042   4.881   5.022   5.005  1.4211 -1.2946 -0.6372
 3324SOL     OW11043   2.259   1.348   3.252  0.1318  0.3793 -0.7697
 3324SOL    HW111044   2.181   1.294   3.265  0.2598  0.4663  0.5208
 3324SOL    HW211045   2.329   1.285   3.234  0.5960 -0.1101  2.2026
 3325SOL     OW11046   0.474   1.760   2.238  0.0521  0.0265 -0.1836
 3325SOL    HW111047   0.462   1.671   2.203 -0.2413  0.5900 -1.5883
 3325SOL    HW211048   0.390   1.803   2.221 -0.5191  0.0248  2.2782
 3326SOL     OW11049   5.263   6.036   6.734  0.2426  0.1836 -0.2953
 3326SOL    HW111050   5.174   6.070   6.738  0.5097  0.7974  1.6746
 3326SOL    HW211051   5.253   5.941   6.733 -0.4234  0.2502 -0.3758
 3327SOL     OW11052   3.939   7.236   0.004 -0.3093 -0.2993  0.3021
 3327SOL    HW111053   3.854   7.280  -0.007  0.8144  1.5175 -2.2275
 3327SOL    HW211054   3.966   7.213  -0.085  2.3909  0.3268  0.8634
 3328SOL     OW11055   7.531   3.691   6.412 -0.4394  0.1487  0.4075
 3328SOL    HW111056   7.549   3.600   6.388 -0.4324  0.7347 -2.0285
 3328SOL    HW211057   7.533   3.738   6.329  1.8860  2.8011  1.8195
 3329SOL     OW11058   4.260   1.899   6.518  0.4003 -0.0007  0.4233
 3329SOL    HW111059   4.230   1.989   6.533  0.3513 -0.1800  1.4855
 3329SOL    HW211060   4.289   1.869   6.604  2.6278 -0.2122 -0.3349
 3330SOL     OW11061   8.079   1.580   1.960  0.0103 -0.1746  0.1337
 3330SOL    HW111062   7.993   1.617   1.976 -0.0962 -0.0619 -0.6738
 3330SOL    HW211063   8.133   1.654   1.932 -0.2675 -0.6364 -1.7247
 3331SOL     OW11064   5.317   1.559   3.418  0.2443 -0.1876 -0.0277
 3331SOL    HW111065   5.298   1.629   3.356  0.0589  0.7521  1.0623
 3331SOL    HW211066   5.231   1.531   3.450  0.4170  1.1955  1.7868
 3332SOL     OW11067   5.427   2.764   0.154 -0.0696  0.3932 -0.5609
 3332SOL    HW111068   5.335   2.786   0.168 -0.2974 -0.4438 -0.7110
 3332SOL    HW211069   5.433   2.739   0.062  0.7149  2.3358 -1.0998
 3333SOL     OW11070   2.538   0.882   2.414  0.4182 -0.1504  0.3580
 3333SOL    HW111071   2.631   0.906   2.408 -0.2626  2.5452 -0.5658
 3333SOL    HW211072   2.494   0.962   2.444 -1.7725 -0.9923 -0.4334
 3334SOL     OW11073   0.254   8.007   5.494 -0.2232  0.2947 -0.0986
 3334SOL    HW111074   0.274   8.067   5.422  2.6475 -2.2207 -1.6325
 3334SOL    HW211075   0.294   8.048   5.571  2.2172  0.2216 -1.2281
 3335SOL     OW11076   5.901   3.131   2.405 -0.1863  0.1792 -0.7815
 3335SOL    HW111077   5.936   3.218   2.388 -0.0322  0.2132 -0.3146
 3335SOL    HW211078   5.818   3.147   2.449  0.8787  0.1097  1.3698
 3336SOL     OW11079   7.396   6.077   2.849 -0.3173 -0.1178  0.0767
 3336SOL    HW111080   7.403   6.172   2.858  1.2809 -0.3556  1.9418
 3336SOL    HW211081   7.481   6.049   2.816 -0.0955 -1.0341  1.3253
 3337SOL     OW11082   8.148   3.857   5.940 -0.3023  0.2270 -0.6703
 3337SOL    HW111083   8.118   3.898   6.021  0.7219  1.1242 -0.7166
 3337SOL    HW211084   8.090   3.891   5.872 -1.0839 -0.4284 -0.3512
 3338SOL     OW11085   4.521   1.043   7.307  0.4730  0.3562  0.5529
 3338SOL    HW111086   4.522   1.079   7.396 -0.7806 -0.7414  1.0514
 3338SOL    HW211087   4.502   1.118   7.251  0.6038  0.9470  1.2857
 3339SOL     OW11088   5.789   3.024   7.216  0.0285  0.1662  0.4537
 3339SOL    HW111089   5.773   3.003   7.124  1.9648  0.4414  0.0143
 3339SOL    HW211090   5.736   2.962   7.265 -0.4944 -0.4366 -0.8449
 3340SOL     OW11091   5.763   1.338   7.433 -0.0371 -0.3121 -0.0830
 3340SOL    HW111092   5.778   1.255   7.386 -0.1054 -0.9281  0.9617
 3340SOL    HW211093   5.760   1.404   7.363  1.9156 -0.9131 -0.7949
 3341SOL     OW11094   3.913   0.983   0.072  0.1873 -0.3259  0.2645
 3341SOL    HW111095   3.819   0.994   0.064  0.0726 -0.0965  1.6664
 3341SOL    HW211096   3.936   1.032   0.152  1.4983 -0.3036 -0.1075
 3342SOL     OW11097   2.236   7.431   0.195  0.6578 -0.5703 -0.4310
 3342SOL    HW111098   2.155   7.482   0.186  0.4474 -1.0291 -1.1891
 3342SOL    HW211099   2.271   7.426   0.107  0.8198 -1.5229 -0.3169
 3343SOL     OW11100   6.782   0.595   7.309  0.0409  0.3624  0.0350
 3343SOL    HW111101   6.816   0.680   7.337 -0.1195  0.4234  0.0437
 3343SOL    HW211102   6.788   0.540   7.386 -0.6097  0.5928  0.2514
 3344SOL     OW11103   0.725   5.325   5.098 -0.3367 -0.2455 -0.3558
 3344SOL    HW111104   0.716   5.354   5.007  0.5353  0.5899 -0.1851
 3344SOL    HW211105   0.750   5.233   5.091 -0.5671 -0.2691 -0.9508
 3345SOL     OW11106   3.779   0.391   7.778  0.2845  0.1129 -0.1879
 3345SOL    HW111107   3.852   0.332   7.760  1.9723  2.0098  0.0759
 3345SOL    HW211108   3.714   0.336   7.822  1.3677 -1.7306 -0.7924
 3346SOL     OW11109   1.997   4.791   5.531  0.0454 -0.1197  0.2190
 3346SOL    HW111110   1.916   4.744   5.549  0.5417 -1.3150 -0.6116
 3346SOL    HW211111   1.977   4.846   5.456  0.0101 -0.4292  0.0018
 3347SOL     OW11112   5.995   2.224   2.362 -0.4236  0.4633 -0.4389
 3347SOL    HW111113   6.030   2.252   2.446  0.6281 -1.5759 -0.1366
 3347SOL    HW211114   5.927   2.160   2.384 -0.2541  0.0297 -1.1328
 3348SOL     OW11115   0.736   6.254   6.148  0.3296  0.2507 -0.3073
 3348SOL    HW111116   0.763   6.299   6.228 -2.1987  0.4278  0.5484
 3348SOL    HW211117   0.641   6.265   6.146  0.0019 -2.2013 -1.8504
 3349SOL     OW11118   0.206   5.363   5.073 -0.8750 -0.6657  0.1619
 3349SOL    HW111119   0.124   5.413   5.065 -2.2833 -2.7345  1.0131
 3349SOL    HW211120   0.253   5.406   5.144 -0.6862  1.1595 -0.9828
 3350SOL     OW11121   6.784   5.370   1.022  0.0254  0.7487  0.3895
 3350SOL    HW111122   6.859   5.366   0.964  1.1684  0.8780  1.7912
 3350SOL    HW211123   6.776   5.462   1.046 -1.0275  0.8475 -0.2793
 3351SOL     OW11124   6.716   3.260   6.102  0.3959 -0.3186  0.0167
 3351SOL    HW111125   6.690   3.239   6.012  2.0684 -0.6489 -0.4273
 3351SOL    HW211126   6.740   3.176   6.140 -2.0628 -0.4632  1.4363
 3352SOL     OW11127   1.069   0.778   0.432 -0.3433  0.1762 -0.1379
 3352SOL    HW111128   1.067   0.682   0.430 -0.0345  0.1802 -1.2649
 3352SOL    HW211129   1.161   0.799   0.450 -0.2959  0.2565 -0.4662
 3353SOL     OW11130   7.244   5.178   6.022  0.2209  0.2672  0.4214
 3353SOL    HW111131   7.228   5.117   5.950  1.6886 -1.0894  1.1646
 3353SOL    HW211132   7.275   5.122   6.093  1.4464  1.8602  1.2006
 3354SOL     OW11133   0.198   1.048   5.005  0.6962  0.5356 -0.1935
 3354SOL    HW111134   0.216   1.098   4.925  1.1975 -0.5872 -0.8220
 3354SOL    HW211135   0.181   1.114   5.072 -1.7206  1.5070 -1.6393
 3355SOL     OW11136   5.855   4.432   6.511 -0.0628  0.3509 -0.5260
 3355SOL    HW111137   5.862   4.339   6.489 -1.0143  0.4450 -1.2634
 3355SOL    HW211138   5.891   4.478   6.435  1.6640  0.5908  0.3786
 3356SOL     OW11139   7.095   5.603   4.548 -0.0863 -0.3703 -0.5757
 3356SOL    HW111140   7.001   5.620   4.560  0.2534  0.7909  0.6788
 3356SOL    HW211141   7.115   5.533   4.610  0.1114  0.2489  0.0727
 3357SOL     OW11142   1.769   1.372   2.147  0.3356  0.3252 -0.4724
 3357SOL    HW111143   1.834   1.306   2.124  1.9711  1.2036  1.2894
 3357SOL    HW211144   1.751   1.418   2.065  3.6466  1.4486 -0.7379
 3358SOL     OW11145   3.365   3.842   0.678 -0.2018  1.0645 -0.1590
 3358SOL    HW111146   3.325   3.772   0.731  1.9761 -0.9656 -1.0147
 3358SOL    HW211147   3.291   3.897   0.651 -2.0262 -0.8453  0.6388
 3359SOL     OW11148   6.710   8.152   3.987 -0.6729  0.5167 -0.7831
 3359SOL    HW111149   6.770   8.079   3.976  0.1301  1.2316 -1.3305
 3359SOL    HW211150   6.736   8.193   4.069 -2.0992 -0.6658  0.3125
 3360SOL     OW11151   5.485   5.659   2.127 -0.3132 -0.5562  0.3871
 3360SOL    HW111152   5.527   5.730   2.176 -1.1601 -0.8924  1.6590
 3360SOL    HW211153   5.436   5.610   2.194 -0.2194 -1.9882 -0.5602
 3361SOL     OW11154   6.288   6.274   5.245  0.4475 -0.1098 -0.7748
 3361SOL    HW111155   6.251   6.187   5.261  0.9621 -0.3125 -0.6607
 3361SOL    HW211156   6.222   6.334   5.279  0.8097 -0.5009  0.7416
 3362SOL     OW11157   3.641   7.172   2.875 -0.6887  0.5121  0.1175
 3362SOL    HW111158   3.562   7.154   2.825  0.7161 -1.2365 -1.6635
 3362SOL    HW211159   3.686   7.240   2.824  0.5719 -1.0089 -0.8970
 3363SOL     OW11160   5.924   3.056   2.797 -0.9966  0.3048 -0.0693
 3363SOL    HW111161   5.958   3.068   2.885 -0.0536  2.8981 -0.6962
 3363SOL    HW211162   5.992   3.006   2.752 -0.7072  0.4314  0.2249
 3364SOL     OW11163   8.134   6.714   4.586 -0.0347 -0.0378 -0.2401
 3364SOL    HW111164   8.166   6.626   4.607  0.0911  0.4965  2.0005
 3364SOL    HW211165   8.204   6.772   4.616 -2.2553  1.0744  3.3873
 3365SOL     OW11166   5.282   0.519   1.532 -0.2616  0.2561  0.7746
 3365SOL    HW111167   5.214   0.585   1.535 -1.1124 -0.5810  0.4731
 3365SOL    HW211168   5.239   0.438   1.559  0.8771 -0.0977  1.6672
 3366SOL     OW11169   5.128   1.934   4.996 -0.0531  0.4721  0.2310
 3366SOL    HW111170   5.164   1.846   5.006  0.9868  1.0960  2.8405
 3366SOL    HW211171   5.203   1.989   4.976 -0.6070  0.8902 -0.7930
 3367SOL     OW11172   1.222   0.758   2.524 -0.0184 -0.0417 -0.4373
 3367SOL    HW111173   1.231   0.817   2.449 -0.1619  0.5823  0.0293
 3367SOL    HW211174   1.301   0.771   2.575 -0.4620  0.4371  0.1446
 3368SOL     OW11175   3.696   7.609   4.518 -0.0516  0.9113 -0.0285
 3368SOL    HW111176   3.692   7.513   4.515  1.3533  0.8010  0.9265
 3368SOL    HW211177   3.779   7.631   4.476  0.0646  1.6616  0.5707
 3369SOL     OW11178   0.868   0.022   5.487 -0.0641 -0.2806 -0.5108
 3369SOL    HW111179   0.903  -0.043   5.426  2.4418  1.7574 -1.4156
 3369SOL    HW211180   0.918   0.009   5.567  2.3213  2.0394 -1.5075
 3370SOL     OW11181   5.970   4.710   4.930  0.4377  0.3789 -0.1222
 3370SOL    HW111182   5.891   4.685   4.978 -0.3524  0.8548 -1.1054
 3370SOL    HW211183   5.961   4.805   4.919  1.8417  0.6492  0.9274
 3371SOL     OW11184   4.116   1.121   7.205 -0.0391  0.0883  0.2825
 3371SOL    HW111185   4.111   1.134   7.300  0.3189 -2.7883  0.7854
 3371SOL    HW211186   4.029   1.090   7.181 -0.2400  1.1740 -0.4140
 3372SOL     OW11187   4.551   6.825   3.429 -0.3441 -0.2345  0.6071
 3372SOL    HW111188   4.483   6.764   3.400  0.0387 -1.3306  1.9259
 3372SOL    HW211189   4.567   6.801   3.520  0.9983  0.7649  0.6572
 3373SOL     OW11190   1.752   7.043   3.067  0.2106 -0.0265  0.0695
 3373SOL    HW111191   1.680   6.992   3.030  0.6036 -0.3884 -0.2073
 3373SOL    HW211192   1.749   7.027   3.161 -0.0598 -0.0520  0.0558
 3374SOL     OW11193   2.578   1.881   3.131 -0.3822 -0.9898 -0.3130
 3374SOL    HW111194   2.657   1.873   3.077 -0.1320  0.0269 -0.1108
 3374SOL    HW211195   2.513   1.825   3.087  0.5081 -2.0290 -0.3411
 3375SOL     OW11196   3.298   3.494   7.246 -0.1080 -0.1449 -0.1876
 3375SOL    HW111197   3.332   3.442   7.318 -1.5264 -0.6400  0.1498
 3375SOL    HW211198   3.274   3.578   7.286  1.9349  0.7334 -0.6821
 3376SOL     OW11199   0.527   8.069   0.567  0.5367 -0.1689  0.3624
 3376SOL    HW111200   0.519   8.095   0.475  1.0255  0.7873  0.5700
 3376SOL    HW211201   0.444   8.025   0.587  0.0422  0.4324 -0.2918
 3377SOL     OW11202   0.538   5.653   5.812 -0.5128 -0.4674 -0.6719
 3377SOL    HW111203   0.567   5.563   5.795  0.1387 -0.2619 -0.6840
 3377SOL    HW211204   0.496   5.680   5.730  1.0575 -0.0885 -1.3862
 3378SOL     OW11205   4.284   5.718   0.819  0.0755 -0.0070 -0.0385
 3378SOL    HW111206   4.361   5.708   0.764  0.1896 -0.8222  0.2661
 3378SOL    HW211207   4.319   5.725   0.908 -0.2302 -0.8802  0.1517
 3379SOL     OW11208   4.508   2.646   0.448 -0.1502  0.1894 -0.2213
 3379SOL    HW111209   4.571   2.623   0.516  0.4418  0.7365 -0.5637
 3379SOL    HW211210   4.536   2.733   0.419 -1.4744  0.7365  0.0790
 3380SOL     OW11211   4.227   7.283   0.102 -0.3184 -0.0652 -0.0194
 3380SOL    HW111212   4.279   7.225   0.047 -1.0975  0.6236 -1.5243
 3380SOL    HW211213   4.140   7.244   0.102 -0.0523 -0.7764  1.8391
 3381SOL     OW11214   4.987   4.482   0.372  0.0016  0.1619 -0.8826
 3381SOL    HW111215   4.998   4.473   0.467  0.7715  0.1069 -0.9680
 3381SOL    HW211216   4.987   4.577   0.358 -3.5027  0.3712 -0.4887
 3382SOL     OW11217   1.026   3.275   0.929 -0.2517  0.3608  0.4026
 3382SOL    HW111218   1.039   3.336   0.857 -1.6958  1.9119  1.3815
 3382SOL    HW211219   1.055   3.190   0.895  0.7864  1.3779 -1.3616
 3383SOL     OW11220   7.932   0.850   4.150  0.1082 -0.3453  0.3424
 3383SOL    HW111221   7.843   0.858   4.184 -0.3044 -0.3308 -0.6912
 3383SOL    HW211222   7.935   0.763   4.111  1.1630 -1.1154  2.0128
 3384SOL     OW11223   1.668   4.837   4.467  0.2659  0.2274  0.6239
 3384SOL    HW111224   1.593   4.862   4.521  1.0778 -0.7391  2.2859
 3384SOL    HW211225   1.654   4.882   4.384 -3.1530 -1.3706  0.1443
 3385SOL     OW11226   7.295   4.163   7.816 -0.7564 -0.4448 -0.0204
 3385SOL    HW111227   7.234   4.205   7.755 -2.1856  1.4160  2.5208
 3385SOL    HW211228   7.370   4.222   7.819 -0.3336 -0.9457 -0.5333
 3386SOL     OW11229   6.416   4.662   1.459 -0.0721  0.1329 -0.0024
 3386SOL    HW111230   6.353   4.732   1.472 -0.5907 -0.3107 -0.0922
 3386SOL    HW211231   6.497   4.695   1.498 -0.9425 -0.1720  2.1817
 3387SOL     OW11232   3.647   0.658   2.593  0.3943 -0.0178  0.0004
 3387SOL    HW111233   3.740   0.635   2.597  0.3389 -0.1150  0.9787
 3387SOL    HW211234   3.612   0.633   2.678 -0.5341  0.0319 -0.3527
 3388SOL     OW11235   1.906   0.680   1.380  0.5897 -0.3346 -0.6355
 3388SOL    HW111236   1.812   0.690   1.370  0.7237  0.2015 -1.5143
 3388SOL    HW211237   1.917   0.612   1.445 -0.4026  1.3847  1.4443
 3389SOL     OW11238   5.101   6.606   7.852 -0.3660 -0.1351 -0.0977
 3389SOL    HW111239   5.058   6.677   7.900 -0.6051  1.4446 -2.4966
 3389SOL    HW211240   5.102   6.533   7.914 -3.2999  0.8417  1.2939
 3390SOL     OW11241   6.315   4.440   3.385 -0.2719 -0.2639  0.2800
 3390SOL    HW111242   6.320   4.495   3.307 -1.7464 -0.2275  0.1834
 3390SOL    HW211243   6.311   4.503   3.458 -2.6926 -0.1382  0.1307
 3391SOL     OW11244   0.218   2.922   6.835  0.3318 -0.2065  0.2468
 3391SOL    HW111245   0.277   2.928   6.760 -0.0007  0.5366  0.0351
 3391SOL    HW211246   0.200   3.013   6.859 -1.8377 -0.3562 -0.5816
 3392SOL     OW11247   7.794   2.147   0.811  0.3468 -0.3810 -0.0180
 3392SOL    HW111248   7.743   2.108   0.741  1.7630  0.2449 -1.4476
 3392SOL    HW211249   7.760   2.236   0.820  0.8431 -0.1245 -0.6332
 3393SOL     OW11250   7.210   1.440   0.695 -0.3729 -0.3188  0.1090
 3393SOL    HW111251   7.254   1.434   0.780 -2.8029  0.5781  1.5286
 3393SOL    HW211252   7.282   1.447   0.632  1.5365 -1.3695  2.0202
 3394SOL     OW11253   3.166   7.230   2.416  0.0392 -0.5595  1.3790
 3394SOL    HW111254   3.247   7.218   2.366 -0.5912 -1.7683  0.5787
 3394SOL    HW211255   3.156   7.325   2.424  1.3777 -0.3914  1.2486
 3395SOL     OW11256   3.330   1.889   0.917  0.0606 -0.3599  0.3281
 3395SOL    HW111257   3.419   1.895   0.882  0.4371  1.0821  1.4462
 3395SOL    HW211258   3.326   1.802   0.958  1.3605  0.0374  1.3310
 3396SOL     OW11259   6.821   1.288   1.438 -0.6870 -0.0419 -0.1016
 3396SOL    HW111260   6.905   1.260   1.474 -0.4834  0.3818 -0.2449
 3396SOL    HW211261   6.793   1.215   1.383 -0.9569 -0.6546  0.8295
 3397SOL     OW11262   5.964   4.575   7.769  0.3542 -0.2345  0.1138
 3397SOL    HW111263   5.876   4.609   7.786  0.7694 -0.5184  3.4462
 3397SOL    HW211264   5.985   4.606   7.681 -2.5269  0.9662 -0.2657
 3398SOL     OW11265   6.020   5.534   4.955  0.0468  0.3114  0.1743
 3398SOL    HW111266   5.951   5.518   5.020 -0.0668 -2.2799 -0.4863
 3398SOL    HW211267   6.008   5.465   4.890  1.3462  1.6865 -1.6261
 3399SOL     OW11268   7.109   7.135   3.339  0.4873  0.2193 -0.4295
 3399SOL    HW111269   7.068   7.197   3.279  0.1734  3.2095  2.5559
 3399SOL    HW211270   7.199   7.168   3.349 -0.0201  1.0476  2.0880
 3400SOL     OW11271   7.069   0.516   6.805  0.6525 -0.2932 -0.6712
 3400SOL    HW111272   7.155   0.475   6.815  0.2167 -1.2043 -0.5005
 3400SOL    HW211273   7.075   0.598   6.853  2.4429  1.2541 -3.2916
 3401SOL     OW11274   4.904   7.087   2.601 -0.1588 -0.2307 -0.3951
 3401SOL    HW111275   4.867   7.054   2.684  0.9682 -0.8380 -0.1183
 3401SOL    HW211276   4.827   7.114   2.550 -0.8847  0.0479  0.7964
 3402SOL     OW11277   7.398   1.373   4.781  0.3081  0.3575 -0.6990
 3402SOL    HW111278   7.403   1.429   4.859 -0.7523  0.5603 -0.7695
 3402SOL    HW211279   7.439   1.291   4.809  2.4678  1.3306 -0.7790
 3403SOL     OW11280   2.867   6.753   8.144 -0.1115  0.1505 -0.4397
 3403SOL    HW111281   2.900   6.694   8.076  3.7125  1.0039  0.3945
 3403SOL    HW211282   2.924   6.736   8.220 -2.3016  1.2714  1.5876
 3404SOL     OW11283   6.938   2.078   2.633  0.4043 -0.1928 -0.4647
 3404SOL    HW111284   7.006   2.011   2.636  2.0939  1.4519  2.1400
 3404SOL    HW211285   6.916   2.095   2.725 -1.5347  1.3004 -1.1264
 3405SOL     OW11286   2.602   4.961   0.218 -0.5171  0.3134 -0.7836
 3405SOL    HW111287   2.516   4.987   0.251 -0.2686 -0.6717  0.7607
 3405SOL    HW211288   2.655   4.949   0.297  1.5686  2.5294 -1.7167
 3406SOL     OW11289   1.584   6.845   6.561  0.2105  0.6169 -0.0504
 3406SOL    HW111290   1.649   6.894   6.510  2.7970 -0.0956  2.3503
 3406SOL    HW211291   1.583   6.758   6.521  1.3512  0.4013  0.3760
 3407SOL     OW11292   6.443   6.420   8.154 -0.1397 -0.2452  0.0805
 3407SOL    HW111293   6.520   6.363   8.153 -0.2468 -0.5707  2.5235
 3407SOL    HW211294   6.449   6.471   8.074  2.1802 -0.8266 -0.1863
 3408SOL     OW11295   7.709   6.809   5.865  0.1933 -0.0347 -0.3420
 3408SOL    HW111296   7.615   6.825   5.874 -0.3365 -0.6361 -3.5798
 3408SOL    HW211297   7.746   6.894   5.840  0.2849 -0.1179 -0.4910
 3409SOL     OW11298   2.169   2.098   7.177  0.1924 -0.1539 -0.1468
 3409SOL    HW111299   2.252   2.057   7.202  0.0657 -0.9865 -1.0147
 3409SOL    HW211300   2.139   2.141   7.256  0.5934 -1.3286  0.6765
 3410SOL     OW11301   2.304   0.668   6.243  0.2063 -0.4318  0.2045
 3410SOL    HW111302   2.364   0.736   6.214 -0.8100  0.3988 -0.0058
 3410SOL    HW211303   2.271   0.629   6.162  1.9247 -2.2503  0.3145
 3411SOL     OW11304   2.032   1.900   2.797  0.1341 -0.1074  0.6043
 3411SOL    HW111305   2.006   1.981   2.841 -2.5339 -0.0177 -0.9567
 3411SOL    HW211306   1.981   1.831   2.839  0.1332 -0.5279 -0.0696
 3412SOL     OW11307   5.551   6.568   4.196  0.5465  0.0649  0.1315
 3412SOL    HW111308   5.587   6.604   4.115 -3.8863  1.0304 -1.7708
 3412SOL    HW211309   5.527   6.478   4.173 -0.7204  0.3378  0.3037
 3413SOL     OW11310   2.680   3.347   4.655  0.3235 -0.4863  0.3771
 3413SOL    HW111311   2.754   3.396   4.620  1.0934 -0.1570  2.3661
 3413SOL    HW211312   2.615   3.349   4.584  1.2376  1.3810 -0.4761
 3414SOL     OW11313   4.357   2.513   2.415  0.1512 -0.4073  0.2178
 3414SOL    HW111314   4.387   2.552   2.333  0.6414  0.0985  0.6240
 3414SOL    HW211315   4.298   2.443   2.389  1.3793 -1.1743 -0.6197
 3415SOL     OW11316   0.403   5.338   4.042  0.0858 -1.1787 -0.2107
 3415SOL    HW111317   0.395   5.247   4.072  0.5787 -0.4956  2.1999
 3415SOL    HW211318   0.353   5.389   4.106  2.4243  0.5442  0.3843
 3416SOL     OW11319   6.351   0.180   4.230  0.3982  0.2027 -0.0525
 3416SOL    HW111320   6.275   0.185   4.289  0.1526  2.5550 -0.4949
 3416SOL    HW211321   6.313   0.178   4.142  0.8359  0.0501 -0.2425
 3417SOL     OW11322   0.432   4.431   3.936  0.2015 -0.1865  0.0808
 3417SOL    HW111323   0.361   4.452   3.875  0.5838 -0.6200 -0.5191
 3417SOL    HW211324   0.394   4.445   4.023 -0.2794  0.6570 -0.2567
 3418SOL     OW11325   6.313   4.133   1.152  0.4017 -0.2521  0.1367
 3418SOL    HW111326   6.218   4.134   1.162  0.4952  0.1370  1.1874
 3418SOL    HW211327   6.331   4.055   1.100 -0.4956 -0.3058 -0.1085
 3419SOL     OW11328   5.446   2.036   0.034 -0.0898 -0.0417 -0.1134
 3419SOL    HW111329   5.535   2.010   0.057 -0.5848 -0.2319  1.8145
 3419SOL    HW211330   5.446   2.132   0.040 -0.2637 -0.0911  1.1165
 3420SOL     OW11331   6.079   6.190   4.080  0.5576  0.2898 -0.5905
 3420SOL    HW111332   6.114   6.274   4.053 -0.3935  1.0317  0.4115
 3420SOL    HW211333   6.080   6.137   4.000  1.7999  1.0142 -1.0765
 3421SOL     OW11334   4.812   1.797   6.765  0.0867  0.7751  0.5467
 3421SOL    HW111335   4.800   1.745   6.685  0.4499  3.0076 -1.0690
 3421SOL    HW211336   4.851   1.736   6.827 -1.5444 -1.4464 -0.4534
 3422SOL     OW11337   5.418   4.711   4.325  0.4677 -0.2175 -0.0474
 3422SOL    HW111338   5.419   4.618   4.346  0.3962 -0.3044 -0.4195
 3422SOL    HW211339   5.509   4.733   4.308  0.5168 -0.1616  0.2877
 3423SOL     OW11340   7.364   2.700   5.037 -0.1371  0.8571 -0.6617
 3423SOL    HW111341   7.401   2.756   4.969 -2.7984  4.4449  0.5408
 3423SOL    HW211342   7.422   2.713   5.112  0.8185 -0.3389 -1.1531
 3424SOL     OW11343   6.444   8.066   4.013  0.0330  0.2604 -1.1329
 3424SOL    HW111344   6.518   8.126   4.006  0.3925 -0.3028 -2.7451
 3424SOL    HW211345   6.439   8.044   4.106  1.0466  1.3311 -0.8021
 3425SOL     OW11346   7.850   1.080   2.788  0.1391 -0.4201 -0.1040
 3425SOL    HW111347   7.820   1.127   2.710  2.2373 -1.4615 -1.6359
 3425SOL    HW211348   7.821   1.135   2.861 -0.4519  1.4833 -1.6629
 3426SOL     OW11349   2.778   3.494   7.769  0.2743  0.1575  0.2797
 3426SOL    HW111350   2.819   3.474   7.853  0.3814 -0.9345 -0.0106
 3426SOL    HW211351   2.848   3.530   7.715  0.1245  1.1957  0.7563
 3427SOL     OW11352   7.733   1.610   3.192  0.2260 -0.3827  0.2017
 3427SOL    HW111353   7.776   1.681   3.239  1.6280  0.8333 -2.7118
 3427SOL    HW211354   7.801   1.543   3.183 -0.0620 -0.6499 -0.0127
 3428SOL     OW11355   0.499   3.557   5.832 -0.1562  0.2586  0.2346
 3428SOL    HW111356   0.574   3.605   5.865 -0.8254  0.2067  1.9192
 3428SOL    HW211357   0.423   3.606   5.863 -0.8402 -0.1452 -0.7264
 3429SOL     OW11358   0.515   3.140   3.636 -0.6993  0.0073 -0.2428
 3429SOL    HW111359   0.541   3.185   3.555 -1.6036  0.2125 -0.4304
 3429SOL    HW211360   0.562   3.057   3.633 -0.1165  0.3389 -0.5900
 3430SOL     OW11361   3.184   1.577   0.092  0.3161  0.5071  0.1259
 3430SOL    HW111362   3.235   1.655   0.114  0.1406  0.5542  0.3704
 3430SOL    HW211363   3.213   1.512   0.157  0.6461  0.2912 -0.2331
 3431SOL     OW11364   6.128   2.497   1.351  0.0744  0.2443 -0.6170
 3431SOL    HW111365   6.151   2.480   1.259  1.2143 -2.1721  0.0226
 3431SOL    HW211366   6.212   2.511   1.394 -0.3940  0.6534  0.1725
 3432SOL     OW11367   5.604   0.677   6.377  0.2162  0.5328 -0.1936
 3432SOL    HW111368   5.515   0.711   6.384 -0.2207 -0.7238  0.7862
 3432SOL    HW211369   5.658   0.740   6.423 -0.3669  0.6564  0.3346
 3433SOL     OW11370   4.712   5.589   2.886 -0.2183  0.4410  0.6897
 3433SOL    HW111371   4.762   5.507   2.887 -1.6129 -0.4393  0.5376
 3433SOL    HW211372   4.779   5.657   2.875  0.7531 -0.8634 -2.8847
 3434SOL     OW11373   6.549   7.252   4.886  0.2203 -0.4532 -0.4780
 3434SOL    HW111374   6.615   7.316   4.861  0.6313 -0.8818 -0.5063
 3434SOL    HW211375   6.511   7.223   4.803  0.5836 -0.8203 -0.5192
 3435SOL     OW11376   4.293   6.293   0.618  0.0625 -0.3299 -0.1704
 3435SOL    HW111377   4.302   6.198   0.607  0.4015 -0.3903  0.5545
 3435SOL    HW211378   4.326   6.310   0.706 -1.8128  0.2136  0.4723
 3436SOL     OW11379   7.055   0.100   0.726  0.0655 -0.1578 -0.3036
 3436SOL    HW111380   7.012   0.140   0.802  0.5259 -0.6657  0.2374
 3436SOL    HW211381   7.143   0.139   0.726  0.1517 -0.3538 -0.4205
 3437SOL     OW11382   4.211   0.177   5.479 -0.1673 -0.6949 -0.0883
 3437SOL    HW111383   4.119   0.179   5.453 -0.5896  2.2945  1.2667
 3437SOL    HW211384   4.259   0.189   5.397 -1.0139 -1.1337 -0.6674
 3438SOL     OW11385   2.762   2.568   1.845 -0.1928 -0.5935 -0.1543
 3438SOL    HW111386   2.786   2.568   1.753  0.6642 -1.4712  0.0480
 3438SOL    HW211387   2.716   2.651   1.859 -0.5319 -0.5622 -1.4120
 3439SOL     OW11388   2.096   6.479   4.898 -0.0920  0.1623 -0.3666
 3439SOL    HW111389   2.008   6.516   4.897 -0.1795  0.0818  1.3914
 3439SOL    HW211390   2.097   6.418   4.824 -1.6309 -0.0937 -0.2129
 3440SOL     OW11391   0.615   7.913   1.095  0.5019 -0.0866 -0.0431
 3440SOL    HW111392   0.697   7.953   1.067  0.3349  0.7947  0.6839
 3440SOL    HW211393   0.586   7.966   1.169  0.9743 -2.3621  1.8866
 3441SOL     OW11394   5.325   3.918   3.001 -0.0130 -0.1509  0.0838
 3441SOL    HW111395   5.274   3.919   2.920  0.5081 -1.4361 -0.2896
 3441SOL    HW211396   5.333   3.826   3.024 -0.5100  0.1979  1.8623
 3442SOL     OW11397   3.595   3.209   5.143 -0.5150 -0.3189 -0.7108
 3442SOL    HW111398   3.660   3.159   5.095  1.2728  0.7950  0.4529
 3442SOL    HW211399   3.517   3.207   5.087  0.0157 -2.9174 -1.4510
 3443SOL     OW11400   8.120   6.096   6.655  0.4304 -0.2843 -0.1286
 3443SOL    HW111401   8.046   6.074   6.598 -1.3196  0.6941  1.6348
 3443SOL    HW211402   8.161   6.012   6.675  0.2326 -0.7768 -1.6682
 3444SOL     OW11403   2.292   1.100   5.871  0.1638  0.3437  0.4414
 3444SOL    HW111404   2.357   1.030   5.874  0.8179  0.8913 -0.3925
 3444SOL    HW211405   2.244   1.091   5.953 -0.1010 -1.3783  0.1337
 3445SOL     OW11406   8.079   0.119   2.253 -1.1679 -0.2805  0.0080
 3445SOL    HW111407   8.020   0.194   2.246  0.5011  1.1524  0.6388
 3445SOL    HW211408   8.140   0.143   2.323 -0.0219 -1.8304 -0.4122
 3446SOL     OW11409   7.670   1.368   6.733 -0.0482  0.1319  0.1663
 3446SOL    HW111410   7.618   1.288   6.744  0.7069 -0.6355 -1.5222
 3446SOL    HW211411   7.752   1.349   6.781  0.3287 -0.3257 -0.6391
 3447SOL     OW11412   7.640   3.001   3.500  0.5952 -0.3938  0.0631
 3447SOL    HW111413   7.585   3.031   3.428 -0.1230 -1.2029  0.2614
 3447SOL    HW211414   7.682   3.080   3.533  0.8661  0.0004 -1.1807
 3448SOL     OW11415   3.220   2.602   5.245 -0.2145 -0.2979 -0.2768
 3448SOL    HW111416   3.225   2.513   5.211  0.4324 -0.4782  0.2635
 3448SOL    HW211417   3.145   2.602   5.304  0.5214 -0.8375  0.6870
 3449SOL     OW11418   0.358   2.147   3.097 -0.1935 -0.1178  0.5658
 3449SOL    HW111419   0.428   2.173   3.157 -0.5672 -0.8541  1.3487
 3449SOL    HW211420   0.320   2.069   3.138 -0.6969 -0.4213 -0.4537
 3450SOL     OW11421   5.693   1.023   8.149 -0.2182  0.6515 -0.5286
 3450SOL    HW111422   5.643   0.943   8.135 -0.4966  0.7548 -0.1198
 3450SOL    HW211423   5.639   1.092   8.112  0.0202  0.6581 -0.8774
 3451SOL     OW11424   7.015   6.906   7.506 -0.1251 -0.1733  0.1766
 3451SOL    HW111425   7.028   6.812   7.518 -0.1119 -0.2312 -0.2524
 3451SOL    HW211426   7.074   6.930   7.434  1.3652  0.5614  1.6012
 3452SOL     OW11427   5.946   6.527   3.914 -0.1931  0.5795  0.3636
 3452SOL    HW111428   5.984   6.596   3.969  0.7713  0.7707 -0.5018
 3452SOL    HW211429   6.007   6.519   3.841 -0.9891 -0.2808 -0.2276
 3453SOL     OW11430   6.450   1.271   2.895 -0.6983  0.6385 -0.2754
 3453SOL    HW111431   6.453   1.346   2.836  2.6135  0.8673 -0.0323
 3453SOL    HW211432   6.501   1.204   2.850 -0.0616  0.0194  1.2819
 3454SOL     OW11433   8.020   7.920   8.022  0.4243  0.2809  0.0390
 3454SOL    HW111434   8.001   7.926   8.115  0.6028  2.0924 -0.0061
 3454SOL    HW211435   8.114   7.937   8.015  0.4963 -0.2660 -0.4416
 3455SOL     OW11436   0.132   6.014   3.207 -0.8040 -0.1388  0.0041
 3455SOL    HW111437   0.185   5.979   3.279 -0.0847 -1.2367 -1.0150
 3455SOL    HW211438   0.046   5.974   3.218 -1.0591  0.6266  0.9124
 3456SOL     OW11439   4.351   6.486   4.412  0.3207 -0.0909  0.4835
 3456SOL    HW111440   4.344   6.581   4.410  0.4917 -0.0945 -0.7869
 3456SOL    HW211441   4.291   6.459   4.482  0.7566  0.9782  1.2909
 3457SOL     OW11442   5.501   3.739   5.640 -0.3761  0.7603  0.3158
 3457SOL    HW111443   5.435   3.788   5.689 -0.5416  1.1078 -0.2468
 3457SOL    HW211444   5.495   3.649   5.673 -1.8391  0.5533 -0.4527
 3458SOL     OW11445   3.628   1.031   0.099 -0.8384 -0.1801 -0.0741
 3458SOL    HW111446   3.557   1.050   0.161  0.7566  0.9221  1.5266
 3458SOL    HW211447   3.643   1.115   0.055 -1.5000 -0.7937 -1.5273
 3459SOL     OW11448   7.150   1.589   4.910  0.6041 -0.0820  0.1222
 3459SOL    HW111449   7.149   1.604   5.005  2.7580 -0.1578  0.2142
 3459SOL    HW211450   7.089   1.516   4.897 -0.8892  0.9138  1.2242
 3460SOL     OW11451   5.794   0.261   2.000 -0.3556  0.4261  0.3541
 3460SOL    HW111452   5.811   0.210   1.920 -0.0826 -1.0054  1.2847
 3460SOL    HW211453   5.796   0.196   2.070 -0.4586  1.6785  1.5499
 3461SOL     OW11454   2.255   0.209   2.425  0.1000  0.0441 -0.1319
 3461SOL    HW111455   2.327   0.150   2.448  1.0537  0.2889 -2.2661
 3461SOL    HW211456   2.237   0.257   2.506  2.9803  0.6297  0.2761
 3462SOL     OW11457   6.946   4.730   0.519 -0.1845  0.4643  0.0163
 3462SOL    HW111458   6.982   4.691   0.440 -2.8058 -0.1636 -0.9788
 3462SOL    HW211459   6.942   4.658   0.582 -1.2290  0.0755 -0.4631
 3463SOL     OW11460   5.717   2.369   8.056  0.4324  0.0732 -0.3884
 3463SOL    HW111461   5.749   2.459   8.044 -1.4272  0.9314  0.6189
 3463SOL    HW211462   5.775   2.331   8.122  0.1714  1.1619  0.4978
 3464SOL     OW11463   5.457   3.287   6.935 -0.2541  0.6669 -0.2432
 3464SOL    HW111464   5.438   3.321   7.023  1.4438  0.4114  0.2614
 3464SOL    HW211465   5.415   3.349   6.876 -0.4899  1.4707  0.7320
 3465SOL     OW11466   6.321   6.327   3.214  0.0659 -0.0534 -0.1824
 3465SOL    HW111467   6.385   6.398   3.222 -1.3425  1.3422 -0.9405
 3465SOL    HW211468   6.274   6.346   3.133 -0.6820 -1.5852 -0.1346
 3466SOL     OW11469   5.090   4.466   8.162  0.2919  0.0699 -0.3376
 3466SOL    HW111470   4.997   4.478   8.142  0.3472  0.0262 -0.6270
 3466SOL    HW211471   5.091   4.406   8.237  0.1010 -0.2541 -0.5920
 3467SOL     OW11472   1.736   0.119   2.203 -0.0404  1.0616  0.9082
 3467SOL    HW111473   1.644   0.127   2.175 -0.9241 -0.0409  3.2119
 3467SOL    HW211474   1.731   0.076   2.288  2.6866  0.4104  0.8262
 3468SOL     OW11475   3.317   7.719   1.218  0.0321  0.0571 -0.2532
 3468SOL    HW111476   3.345   7.769   1.294  0.4724  1.2797 -1.1806
 3468SOL    HW211477   3.391   7.660   1.199  1.3019  1.9570 -1.5696
 3469SOL     OW11478   0.014   1.536   2.422  0.1584  0.9345 -0.0685
 3469SOL    HW111479  -0.080   1.522   2.430  0.0063  1.9553  0.0529
 3469SOL    HW211480   0.037   1.501   2.336 -0.4438  1.2638 -0.3632
 3470SOL     OW11481   2.270   2.791   6.855 -0.4394 -0.1116 -0.5061
 3470SOL    HW111482   2.337   2.782   6.922  1.5594  0.6748 -2.3019
 3470SOL    HW211483   2.232   2.877   6.870  0.8807  0.6019 -1.0970
 3471SOL     OW11484   2.665   6.736   2.242  0.0210  0.5588  0.0335
 3471SOL    HW111485   2.735   6.799   2.260  1.9153 -0.9151 -1.6972
 3471SOL    HW211486   2.623   6.768   2.163  0.9834 -0.2797 -0.8464
 3472SOL     OW11487   7.250   4.385   8.001  0.0659  0.1454 -0.1252
 3472SOL    HW111488   7.327   4.331   8.018 -0.2466 -0.3365 -0.2280
 3472SOL    HW211489   7.178   4.339   8.045 -0.0810  0.8425  0.3761
 3473SOL     OW11490   1.800   4.194   6.676  0.3957  0.7029 -0.3555
 3473SOL    HW111491   1.728   4.137   6.704 -0.2687  1.0787 -1.2393
 3473SOL    HW211492   1.831   4.154   6.595  0.4335  1.1700 -0.5726
 3474SOL     OW11493   2.014   1.977   3.110 -0.0843  0.0897  0.8048
 3474SOL    HW111494   1.976   1.895   3.076  0.5989 -1.0174  2.5754
 3474SOL    HW211495   1.986   2.044   3.048 -0.5917 -1.5016 -0.7701
 3475SOL     OW11496   6.284   3.806   0.165  0.2585 -0.1939 -0.0920
 3475SOL    HW111497   6.240   3.756   0.097 -0.2582  0.5475 -0.3123
 3475SOL    HW211498   6.366   3.835   0.124 -0.6794  1.4408 -0.9037
 3476SOL     OW11499   6.422   6.661   0.098 -0.5502  0.1041  0.3397
 3476SOL    HW111500   6.463   6.680   0.013 -0.2076  0.2882  0.5448
 3476SOL    HW211501   6.436   6.567   0.110  1.7941  0.5122  1.4228
 3477SOL     OW11502   2.020   7.458   3.366  0.4533 -0.5024  0.0756
 3477SOL    HW111503   2.024   7.461   3.462  2.0932 -0.2818  0.0179
 3477SOL    HW211504   1.932   7.492   3.346  0.8816  1.6274  1.4308
 3478SOL     OW11505   2.334   0.611   3.427  0.5875  0.7048 -0.1406
 3478SOL    HW111506   2.292   0.650   3.504 -0.5100 -1.1671  0.2477
 3478SOL    HW211507   2.428   0.630   3.440  0.4401  0.4181  1.6837
 3479SOL     OW11508   5.908   1.743   4.257  0.3655 -0.2790  0.1739
 3479SOL    HW111509   5.896   1.661   4.304  0.6577 -0.5294 -0.1807
 3479SOL    HW211510   5.912   1.718   4.165 -0.6583  0.2450 -0.0393
 3480SOL     OW11511   4.116   1.653   6.466  0.2804 -0.0428  0.0417
 3480SOL    HW111512   4.098   1.621   6.555 -0.0508 -0.8724 -0.3133
 3480SOL    HW211513   4.154   1.740   6.479  0.5912 -0.3101  1.0136
 3481SOL     OW11514   3.779   5.910   4.202  0.3506  0.1214  0.2229
 3481SOL    HW111515   3.870   5.914   4.175  0.2132 -0.7205 -0.3959
 3481SOL    HW211516   3.733   5.874   4.126 -0.8179  2.3557 -0.2409
 3482SOL     OW11517   5.664   6.953   7.985  0.0600 -0.0271  0.2445
 3482SOL    HW111518   5.583   6.923   7.943 -0.4072  0.3830  0.8321
 3482SOL    HW211519   5.730   6.891   7.956  0.1660  1.3007 -2.6389
 3483SOL     OW11520   3.018   1.344   4.399  0.4628 -0.0673  0.0287
 3483SOL    HW111521   3.030   1.439   4.394  0.9677 -0.1736 -1.0769
 3483SOL    HW211522   3.106   1.309   4.413  0.0367 -0.2867  2.9425
 3484SOL     OW11523   0.460   1.282   6.305  0.0907  0.2106  0.1484
 3484SOL    HW111524   0.550   1.306   6.329  0.3649 -0.6084 -0.0108
 3484SOL    HW211525   0.452   1.309   6.213  1.0100 -1.8320 -0.6095
 3485SOL     OW11526   2.750   7.158   0.958 -0.2919  0.1448  0.6901
 3485SOL    HW111527   2.694   7.194   1.026 -1.0089  2.0510 -0.8308
 3485SOL    HW211528   2.786   7.234   0.913 -1.5873 -0.9480 -2.4587
 3486SOL     OW11529   2.267   7.335   7.346 -0.5738 -0.0999  0.6060
 3486SOL    HW111530   2.257   7.267   7.413 -0.2798 -0.9450 -0.1853
 3486SOL    HW211531   2.250   7.290   7.264  0.8988  0.4850 -0.0470
 3487SOL     OW11532   1.017   6.739   0.883 -0.9091 -0.0120  0.3563
 3487SOL    HW111533   0.991   6.681   0.955 -2.4245  1.5804  1.1762
 3487SOL    HW211534   1.109   6.718   0.867 -1.2043 -2.1110  1.0753
 3488SOL     OW11535   3.613   4.549   0.547 -0.5252  0.6977  0.1828
 3488SOL    HW111536   3.641   4.485   0.482  0.9257 -3.8791  4.6175
 3488SOL    HW211537   3.691   4.603   0.563  0.0828 -0.1681  0.1771
 3489SOL     OW11538   4.365   1.552   6.945 -0.1326  0.2180 -0.4187
 3489SOL    HW111539   4.427   1.584   7.011  2.0164 -2.0480 -1.2019
 3489SOL    HW211540   4.311   1.488   6.992  0.5402 -0.4455 -0.5318
 3490SOL     OW11541   6.737   3.651   0.027 -0.4187 -0.0910  0.4317
 3490SOL    HW111542   6.795   3.673  -0.046 -0.2487 -0.7723  0.3525
 3490SOL    HW211543   6.733   3.556   0.026 -0.4077 -0.1086  1.3156
 3491SOL     OW11544   6.902   3.756   2.750  0.1154  0.2507 -0.2640
 3491SOL    HW111545   6.941   3.833   2.708 -0.5210  0.0751 -1.2028
 3491SOL    HW211546   6.898   3.779   2.843  2.1307  0.4072 -0.1648
 3492SOL     OW11547   2.313   6.702   5.225 -0.3882 -0.2481  0.1793
 3492SOL    HW111548   2.403   6.676   5.243 -0.4828 -0.4870  0.3295
 3492SOL    HW211549   2.272   6.623   5.188 -0.6765 -0.3141  0.6250
 3493SOL     OW11550   1.321   5.602   3.049 -0.4685 -0.6816  0.2039
 3493SOL    HW111551   1.343   5.544   2.976  0.3762  1.8589 -1.6813
 3493SOL    HW211552   1.265   5.669   3.011 -0.5313  0.3846  2.0576
 3494SOL     OW11553   6.939   6.788   2.169 -0.2104  0.5537  0.3400
 3494SOL    HW111554   6.985   6.811   2.250 -1.4319  1.2018  0.8815
 3494SOL    HW211555   6.847   6.804   2.189 -0.6385 -0.2801 -0.8553
 3495SOL     OW11556   4.679   3.258   3.433  0.1851 -0.7730 -0.5596
 3495SOL    HW111557   4.753   3.201   3.410  0.8983  0.5049 -1.5576
 3495SOL    HW211558   4.670   3.316   3.358  1.1641  2.1406  1.4107
 3496SOL     OW11559   2.433   3.370   7.624 -0.1433  0.5275 -0.3946
 3496SOL    HW111560   2.388   3.292   7.657 -0.5216  0.8873 -0.0563
 3496SOL    HW211561   2.526   3.346   7.626 -0.1094  0.6916  1.3882
 3497SOL     OW11562   6.360   5.046   1.026  0.5234  0.4523 -0.1950
 3497SOL    HW111563   6.417   4.992   0.972  0.1071  0.0772 -0.2647
 3497SOL    HW211564   6.340   4.992   1.102 -1.2449 -0.1685 -1.0455
 3498SOL     OW11565   0.299   6.584   7.782 -0.0765 -0.1954 -0.3369
 3498SOL    HW111566   0.370   6.572   7.845 -1.3301 -1.0564  0.9616
 3498SOL    HW211567   0.312   6.673   7.748  2.3780 -0.7698 -1.1525
 3499SOL     OW11568   3.937   3.912   3.724 -0.4907 -0.2489 -0.4426
 3499SOL    HW111569   3.923   3.841   3.786  1.0259  0.6816  1.0234
 3499SOL    HW211570   3.882   3.984   3.756 -0.2141  0.0209 -0.5628
 3500SOL     OW11571   1.631   5.592   5.105 -0.0483  0.4600 -0.4433
 3500SOL    HW111572   1.559   5.534   5.129  1.1555  0.1066  2.8792
 3500SOL    HW211573   1.615   5.672   5.153  2.4673 -0.2016  1.7450
 3501SOL     OW11574   2.006   3.445   7.076  0.3496  0.6380 -0.5804
 3501SOL    HW111575   1.942   3.413   7.140  0.3804  1.1145 -0.3105
 3501SOL    HW211576   1.962   3.519   7.033  0.7422  1.0040 -0.3536
 3502SOL     OW11577   4.131   7.969   5.917  0.0456 -0.2231  0.0331
 3502SOL    HW111578   4.101   7.987   5.828  0.2110  1.3276  0.2709
 3502SOL    HW211579   4.224   7.949   5.908  0.8709  3.1124  0.1449
 3503SOL     OW11580   3.360   0.542   3.007 -0.2578 -0.4432 -0.0800
 3503SOL    HW111581   3.269   0.512   3.004  0.1202 -1.6180 -0.7155
 3503SOL    HW211582   3.365   0.597   3.085 -1.2198 -1.4057  0.7000
 3504SOL     OW11583   0.730   5.427   5.792 -0.2886  0.1957  0.4254
 3504SOL    HW111584   0.753   5.434   5.885  0.3300  0.5481  0.2466
 3504SOL    HW211585   0.809   5.454   5.745 -0.8117  0.6626 -0.2050
 3505SOL     OW11586   0.355   6.325   6.791  0.3411 -0.2756  0.1612
 3505SOL    HW111587   0.421   6.258   6.772 -0.5021 -1.7983  2.1938
 3505SOL    HW211588   0.301   6.329   6.712  2.8606  1.1648 -1.6484
 3506SOL     OW11589   5.100   2.882   5.285 -0.1772  0.1137  0.0358
 3506SOL    HW111590   5.187   2.855   5.255 -0.4134  1.2502 -1.8483
 3506SOL    HW211591   5.046   2.882   5.206 -1.1944  1.9847  0.6664
 3507SOL     OW11592   0.517   2.563   0.107 -0.3202 -0.2245  0.7645
 3507SOL    HW111593   0.473   2.609   0.035  0.7720  0.4202  0.4921
 3507SOL    HW211594   0.511   2.471   0.083 -0.8411 -0.0888  0.3473
 3508SOL     OW11595   2.949   7.532   0.641 -0.1840  0.0203  0.4192
 3508SOL    HW111596   2.869   7.577   0.611 -0.8115 -1.0615  0.4181
 3508SOL    HW211597   3.019   7.594   0.623 -0.9031  0.5835 -0.5634
 3509SOL     OW11598   6.246   1.977   3.856 -0.3296 -0.0496 -0.2564
 3509SOL    HW111599   6.267   2.044   3.790 -3.8192  1.0128 -0.4575
 3509SOL    HW211600   6.169   1.932   3.821  0.4808 -2.6135  1.0270
 3510SOL     OW11601   0.783   5.327   3.370  0.3130  0.1131 -0.2360
 3510SOL    HW111602   0.853   5.284   3.419 -0.4675  1.8668  2.6462
 3510SOL    HW211603   0.706   5.320   3.426 -1.2752  0.2398 -2.2982
 3511SOL     OW11604   8.039   0.788   6.674  0.1147 -0.1403  0.6130
 3511SOL    HW111605   8.113   0.813   6.729  1.7490 -0.8875 -1.1794
 3511SOL    HW211606   7.993   0.870   6.657  2.1311  0.8230 -0.5086
 3512SOL     OW11607   3.408   5.590   1.836 -0.2382 -0.0663  0.0658
 3512SOL    HW111608   3.430   5.607   1.745  0.6229 -1.8058 -0.0947
 3512SOL    HW211609   3.445   5.664   1.884 -0.2937  0.6307 -0.9366
 3513SOL     OW11610   8.090   2.557   3.165 -0.0402  0.2239  0.0099
 3513SOL    HW111611   8.166   2.510   3.198  0.0127 -0.6318 -1.2571
 3513SOL    HW211612   8.094   2.643   3.207  1.3904  0.0436  0.2687
 3514SOL     OW11613   0.497   2.359   6.499 -0.6258  0.4307  0.5884
 3514SOL    HW111614   0.519   2.306   6.576 -2.1526 -1.0528  0.0557
 3514SOL    HW211615   0.580   2.367   6.451 -0.4886 -2.3555  0.1864
 3515SOL     OW11616   7.087   0.898   0.686 -0.2691  1.1062  0.5406
 3515SOL    HW111617   7.032   0.870   0.759 -0.2537  0.2440  0.2307
 3515SOL    HW211618   7.104   0.818   0.636  0.7049  1.4782  0.2498
 3516SOL     OW11619   1.186   5.612   4.290 -0.4580 -0.4096  0.0754
 3516SOL    HW111620   1.269   5.656   4.271 -0.0423 -0.8070  0.9413
 3516SOL    HW211621   1.200   5.521   4.265 -1.1409 -0.1941 -1.1974
 3517SOL     OW11622   2.984   2.019   4.028 -0.2604 -0.6992 -0.0002
 3517SOL    HW111623   2.940   1.987   3.950 -1.2922  1.3063 -0.2865
 3517SOL    HW211624   2.931   2.093   4.058  1.8538  0.5953  0.7635
 3518SOL     OW11625   5.500   3.992   0.403  0.2906 -0.1394 -0.2382
 3518SOL    HW111626   5.496   3.899   0.427 -0.5772  0.1041  0.5831
 3518SOL    HW211627   5.491   4.039   0.485 -0.4541  0.6875 -0.7775
 3519SOL     OW11628   3.684   4.926   4.169  0.2825  0.4182 -0.5735
 3519SOL    HW111629   3.721   4.934   4.257  1.0027 -0.0175 -0.8263
 3519SOL    HW211630   3.751   4.880   4.119 -0.5318 -0.2306 -1.0972
 3520SOL     OW11631   5.166   7.246   3.271 -0.4887  0.3933 -0.2653
 3520SOL    HW111632   5.078   7.260   3.237 -0.6104 -0.3469 -0.2775
 3520SOL    HW211633   5.157   7.259   3.366 -0.4493  1.0577 -0.3504
 3521SOL     OW11634   5.753   1.153   4.873  0.2643  0.2083  0.1685
 3521SOL    HW111635   5.694   1.207   4.820 -0.4942 -0.9577 -0.1949
 3521SOL    HW211636   5.838   1.162   4.830  0.1183  0.9501  0.0055
 3522SOL     OW11637   2.723   2.210   5.175 -0.8328  0.1275  0.7291
 3522SOL    HW111638   2.775   2.291   5.176  0.7300 -0.8309  0.2218
 3522SOL    HW211639   2.768   2.152   5.236  1.3161 -2.2200 -2.7110
 3523SOL     OW11640   2.878   1.267   5.803  0.5478 -0.0070  0.1052
 3523SOL    HW111641   2.941   1.295   5.736  1.1786 -1.3611  0.0794
 3523SOL    HW211642   2.917   1.187   5.839 -0.3036  0.1226  1.3586
 3524SOL     OW11643   1.401   8.136   0.442  0.1696 -0.0630  0.8680
 3524SOL    HW111644   1.465   8.065   0.450  0.8081  0.4796  0.6503
 3524SOL    HW211645   1.333   8.115   0.506 -0.2091 -1.4549  0.0548
 3525SOL     OW11646   4.347   0.936   6.508  0.0480 -0.1151 -0.2154
 3525SOL    HW111647   4.407   0.890   6.567 -1.5600 -1.3267  0.5746
 3525SOL    HW211648   4.403   0.978   6.444  1.7427 -0.8541  0.7178
 3526SOL     OW11649   6.451   2.775   2.188 -0.1684 -0.1383  0.3321
 3526SOL    HW111650   6.493   2.838   2.246 -0.2623 -0.1754  0.4390
 3526SOL    HW211651   6.522   2.718   2.160  0.0031  0.2776 -0.1128
 3527SOL     OW11652   1.359   6.510   5.757  0.4381 -0.1789  0.2958
 3527SOL    HW111653   1.283   6.456   5.736 -0.8470  1.4410  0.5063
 3527SOL    HW211654   1.427   6.481   5.697 -1.3850  0.5287 -2.3012
 3528SOL     OW11655   5.976   7.308   3.354 -0.0702  0.0697  0.0063
 3528SOL    HW111656   5.908   7.276   3.413 -0.9965  1.0208 -0.5221
 3528SOL    HW211657   6.054   7.257   3.378 -0.8122 -0.6404  0.9974
 3529SOL     OW11658   7.801   5.475   6.229  1.1532 -0.2168 -0.2399
 3529SOL    HW111659   7.836   5.387   6.216 -0.3596 -0.8933  0.0148
 3529SOL    HW211660   7.713   5.471   6.191  0.9969  1.1341 -0.0541
 3530SOL     OW11661   2.911   1.260   0.805 -0.5610  0.3658 -0.2406
 3530SOL    HW111662   2.915   1.355   0.795  0.1850  0.3535 -0.1667
 3530SOL    HW211663   2.824   1.242   0.840 -0.0778  1.1944  1.5076
 3531SOL     OW11664   5.486   7.566   5.089 -0.9210  0.2738 -0.2184
 3531SOL    HW111665   5.515   7.508   5.158 -1.8092 -1.1870 -1.0102
 3531SOL    HW211666   5.477   7.510   5.012 -0.7283  1.6833 -1.3243
 3532SOL     OW11667   7.264   3.105   3.874 -0.4335  0.3886  1.0043
 3532SOL    HW111668   7.204   3.112   3.800 -0.0300 -0.9612  0.5198
 3532SOL    HW211669   7.213   3.063   3.943 -0.2072 -0.3018  0.7604
 3533SOL     OW11670   3.206   5.218   0.734  0.1688 -0.5205  0.4192
 3533SOL    HW111671   3.180   5.145   0.789  0.3854  1.1572  2.9129
 3533SOL    HW211672   3.125   5.242   0.688 -0.6859 -0.4762  1.8729
 3534SOL     OW11673   0.235   6.612   0.866  0.1379 -0.0362  0.0452
 3534SOL    HW111674   0.326   6.615   0.839 -0.3347  1.4050 -1.5530
 3534SOL    HW211675   0.234   6.556   0.944  2.5416  0.9203  0.8374
 3535SOL     OW11676   4.007   3.769   1.122  0.1569 -0.4048 -0.3208
 3535SOL    HW111677   3.963   3.724   1.050 -0.6218 -0.1114 -0.0389
 3535SOL    HW211678   3.940   3.826   1.160  1.0667  0.8373 -0.5314
 3536SOL     OW11679   3.848   0.485   0.106 -0.0421  0.2934 -0.3048
 3536SOL    HW111680   3.826   0.411   0.049  3.2043  0.0217 -1.4182
 3536SOL    HW211681   3.792   0.556   0.076 -1.3049 -0.9503 -1.0372
 3537SOL     OW11682   1.161   0.083   5.316 -0.6496  0.2954  0.5740
 3537SOL    HW111683   1.189   0.028   5.389 -0.3298 -1.1385 -0.5783
 3537SOL    HW211684   1.066   0.092   5.327 -0.4688  0.9929  1.7276
 3538SOL     OW11685   2.524   7.487   7.367 -0.0346 -0.7186  0.0227
 3538SOL    HW111686   2.573   7.487   7.285 -1.7337  1.3926 -1.0771
 3538SOL    HW211687   2.453   7.423   7.353 -1.1892  0.6877 -0.7679
 3539SOL     OW11688   7.297   1.296   2.172  0.1457 -0.4155 -0.0872
 3539SOL    HW111689   7.342   1.378   2.153 -2.5898  1.2838  0.1706
 3539SOL    HW211690   7.307   1.244   2.092  2.5026 -0.1835  0.0019
 3540SOL     OW11691   5.887   1.214   2.538  0.0772 -0.1130 -0.5865
 3540SOL    HW111692   5.860   1.301   2.564  1.7085  0.9643 -2.2461
 3540SOL    HW211693   5.816   1.183   2.481  0.0793  0.6584 -1.0147
 3541SOL     OW11694   6.922   6.157   0.430  0.0032  0.2103 -0.5879
 3541SOL    HW111695   6.829   6.160   0.410 -0.2291  2.9589  0.5700
 3541SOL    HW211696   6.954   6.245   0.412  1.8203  0.0650  1.4812
 3542SOL     OW11697   3.482   5.253   6.738 -0.4596  0.6236  0.2256
 3542SOL    HW111698   3.486   5.331   6.792 -1.2381  0.9467 -0.1664
 3542SOL    HW211699   3.566   5.250   6.692  0.0484  0.5603  1.1454
 3543SOL     OW11700   5.677   8.095   2.041 -0.1637  0.2736 -0.0015
 3543SOL    HW111701   5.723   8.129   1.964 -2.1954 -0.7875 -1.7983
 3543SOL    HW211702   5.740   8.103   2.112  2.4240 -0.2181 -2.0840
 3544SOL     OW11703   3.265   5.087   4.480 -0.2899 -0.5454 -0.4757
 3544SOL    HW111704   3.204   5.021   4.446 -0.2723 -2.1268  2.2468
 3544SOL    HW211705   3.212   5.167   4.484 -1.3898 -1.2284 -0.6622
 3545SOL     OW11706   2.605   4.869   0.960  0.4636 -0.1924 -0.1248
 3545SOL    HW111707   2.574   4.917   1.037  0.3303  0.5596 -0.6394
 3545SOL    HW211708   2.528   4.824   0.926  0.1629  0.7503 -0.7306
 3546SOL     OW11709   5.072   4.345   1.334 -0.1116  0.3205 -0.2095
 3546SOL    HW111710   5.143   4.386   1.383 -0.1625 -0.8691  0.8929
 3546SOL    HW211711   5.033   4.283   1.395 -0.3313 -1.0559 -1.6793
 3547SOL     OW11712   7.533   0.486   4.625  0.3151  0.0004  0.3712
 3547SOL    HW111713   7.523   0.420   4.556 -1.9373 -0.3654  0.9545
 3547SOL    HW211714   7.555   0.566   4.578 -1.7725 -0.0998 -0.9065
 3548SOL     OW11715   1.319   2.797   3.965 -0.2958  0.5211 -0.4895
 3548SOL    HW111716   1.246   2.737   3.949  0.0382 -0.2792  0.8854
 3548SOL    HW211717   1.277   2.880   3.989 -0.7429  0.2988 -0.4997
 3549SOL     OW11718   8.015   6.497   1.019  0.9483  0.3797 -0.7459
 3549SOL    HW111719   8.016   6.587   1.050  1.4192 -0.1438  0.8564
 3549SOL    HW211720   7.967   6.449   1.086  3.4595 -1.0993  0.1186
 3550SOL     OW11721   1.811   3.872   1.637 -0.6418 -0.3536 -0.0249
 3550SOL    HW111722   1.756   3.843   1.564 -1.6606  1.3962 -0.0050
 3550SOL    HW211723   1.900   3.847   1.612 -1.2533 -1.8587 -0.7752
 3551SOL     OW11724   1.002   1.316   3.780 -0.1959 -0.4246  0.2704
 3551SOL    HW111725   1.086   1.283   3.747  1.4852  0.9370  2.8062
 3551SOL    HW211726   0.938   1.292   3.713  1.9984 -2.5943 -1.2097
 3552SOL     OW11727   0.669   0.150   4.820 -0.4113  0.0696 -0.4996
 3552SOL    HW111728   0.583   0.189   4.833  0.3212  1.2232  1.1498
 3552SOL    HW211729   0.660   0.061   4.852 -1.4154 -0.3997 -1.9507
 3553SOL     OW11730   3.035   1.532   7.612  0.4161 -0.0217  0.0104
 3553SOL    HW111731   3.109   1.502   7.665  1.6127  1.3683 -0.8159
 3553SOL    HW211732   2.966   1.551   7.676  0.4444 -2.1392  0.7279
 3554SOL     OW11733   0.012   7.569   2.549 -0.3147 -0.0127  0.0599
 3554SOL    HW111734  -0.037   7.540   2.626  0.2360 -0.7319  0.1474
 3554SOL    HW211735   0.099   7.590   2.582 -0.4145  0.8143 -0.1765
 3555SOL     OW11736   7.703   6.221   2.206 -0.2394 -0.1951 -0.1732
 3555SOL    HW111737   7.631   6.168   2.241  0.1585 -0.5804  0.0781
 3555SOL    HW211738   7.752   6.250   2.283 -0.5054  0.6264 -0.3062
 3556SOL     OW11739   5.203   0.076   3.231  0.2633  0.3734 -0.2431
 3556SOL    HW111740   5.192   0.005   3.295 -2.3327 -0.6176 -1.6446
 3556SOL    HW211741   5.275   0.047   3.175 -0.3632 -0.8718 -0.4274
 3557SOL     OW11742   2.595   0.750   3.464 -0.3133  0.0201 -0.0622
 3557SOL    HW111743   2.672   0.797   3.496 -0.6024 -0.7266  1.8578
 3557SOL    HW211744   2.525   0.814   3.468 -0.1325  0.2266 -0.1886
 3558SOL     OW11745   0.552   0.944   0.800 -0.1598 -0.6351 -0.0027
 3558SOL    HW111746   0.471   0.904   0.831 -0.6496  0.4840  0.2295
 3558SOL    HW211747   0.561   1.023   0.854  0.8552 -0.5250 -0.3214
 3559SOL     OW11748   7.021   3.112   2.573  0.6314 -0.7842  0.4791
 3559SOL    HW111749   7.095   3.103   2.512  0.8351 -2.6409  0.9512
 3559SOL    HW211750   6.944   3.110   2.517  0.8577 -1.2245  0.1790
 3560SOL     OW11751   7.998   5.657   0.328 -0.6386 -0.3063  0.7804
 3560SOL    HW111752   8.071   5.641   0.268 -0.9094  0.9022  0.0930
 3560SOL    HW211753   8.019   5.740   0.370 -1.7990  0.2424  0.2946
 3561SOL     OW11754   3.555   6.870   7.852 -0.2105 -0.3224  0.3907
 3561SOL    HW111755   3.470   6.852   7.892 -1.9226  1.0685 -2.3067
 3561SOL    HW211756   3.582   6.785   7.816 -2.4778 -0.1435 -2.0716
 3562SOL     OW11757   3.492   0.516   3.266 -0.3228  0.5083  0.3923
 3562SOL    HW111758   3.561   0.578   3.292 -0.3127  1.0745 -0.8933
 3562SOL    HW211759   3.491   0.451   3.335  2.5262 -0.3342 -0.2263
 3563SOL     OW11760   2.134   1.956   1.006  0.2151 -0.3805 -0.2562
 3563SOL    HW111761   2.147   1.923   0.917 -1.1879 -0.6155 -0.3982
 3563SOL    HW211762   2.043   1.935   1.027  0.7163 -0.9978  1.5263
 3564SOL     OW11763   6.354   2.249   1.476  0.0767  0.1962 -0.3090
 3564SOL    HW111764   6.288   2.195   1.433  1.0094  0.3717 -2.0148
 3564SOL    HW211765   6.420   2.186   1.505 -0.5440  0.0784  0.9450
 3565SOL     OW11766   1.079   4.712   3.714  0.0253  0.0781 -0.3153
 3565SOL    HW111767   1.167   4.676   3.724 -0.1702 -0.6725 -1.1739
 3565SOL    HW211768   1.043   4.713   3.803 -0.1278 -2.2994 -0.2870
 3566SOL     OW11769   5.575   0.542   4.486  0.1055 -0.3611  0.4825
 3566SOL    HW111770   5.491   0.498   4.502 -0.7595  0.6877 -0.9560
 3566SOL    HW211771   5.629   0.476   4.442 -0.9921 -0.2094 -1.1783
 3567SOL     OW11772   4.316   2.666   6.909 -0.4121 -0.3883  0.0687
 3567SOL    HW111773   4.289   2.748   6.950  0.1659  0.6297 -1.4893
 3567SOL    HW211774   4.391   2.637   6.962  0.6943  1.2073 -0.5362
 3568SOL     OW11775   0.920   8.056   2.163 -0.0280 -0.2058  0.3236
 3568SOL    HW111776   0.950   7.969   2.187 -1.3999 -1.0585 -0.8751
 3568SOL    HW211777   0.913   8.054   2.068  2.1892  2.0193  0.0060
 3569SOL     OW11778   4.213   3.775   2.060  0.3806  1.0843 -0.1153
 3569SOL    HW111779   4.148   3.820   2.005  0.8276  0.8070 -0.8902
 3569SOL    HW211780   4.248   3.844   2.117 -0.1968  1.3467 -0.0731
 3570SOL     OW11781   7.327   2.493   2.350 -0.3953 -0.0530  0.1338
 3570SOL    HW111782   7.294   2.470   2.263 -0.3986  0.3631  0.0204
 3570SOL    HW211783   7.291   2.581   2.366  0.2393  0.1993  0.2210
 3571SOL     OW11784   3.439   0.911   5.137 -0.4165  0.0986 -0.2763
 3571SOL    HW111785   3.368   0.910   5.073 -0.1554 -0.8539 -0.5583
 3571SOL    HW211786   3.512   0.868   5.093 -0.3764 -1.0004  0.8191
 3572SOL     OW11787   1.962   0.836   6.077 -0.3563  0.3120  0.2217
 3572SOL    HW111788   1.878   0.828   6.033 -0.4620  0.7256  0.3423
 3572SOL    HW211789   2.004   0.751   6.066 -0.6763  0.1935 -0.0725
 3573SOL     OW11790   5.104   4.098   8.069 -0.3081 -0.0820 -0.5265
 3573SOL    HW111791   5.075   4.013   8.101 -0.0733 -0.1687 -0.5430
 3573SOL    HW211792   5.083   4.159   8.140  0.2808 -0.2867 -0.1678
 3574SOL     OW11793   4.061   6.612   5.982  0.5319  0.4269 -0.3485
 3574SOL    HW111794   4.125   6.542   5.975  1.0865  0.8067  0.6644
 3574SOL    HW211795   4.009   6.607   5.902  1.5892 -0.1161 -1.0034
 3575SOL     OW11796   6.971   3.904   0.175 -0.1463  0.8481  0.2926
 3575SOL    HW111797   6.998   3.827   0.225  0.1742  1.3101  0.8399
 3575SOL    HW211798   6.981   3.878   0.083 -1.2281 -0.1780  0.4465
 3576SOL     OW11799   7.088   2.839   0.308 -0.0676  0.3813  0.1438
 3576SOL    HW111800   7.067   2.882   0.390 -0.8794  1.8692 -0.8097
 3576SOL    HW211801   7.168   2.882   0.278  1.3939 -1.5318  1.0863
 3577SOL     OW11802   3.714   7.491   2.472 -0.2806  0.3548  0.3738
 3577SOL    HW111803   3.686   7.578   2.444  1.1665  0.8195  0.2853
 3577SOL    HW211804   3.679   7.432   2.405 -0.6072  0.9559  0.0072
 3578SOL     OW11805   3.622   3.229   1.041  0.3618  0.3164  0.0427
 3578SOL    HW111806   3.652   3.312   1.004  1.5459 -0.2367 -0.2996
 3578SOL    HW211807   3.702   3.188   1.076 -0.5165  0.2316  2.0577
 3579SOL     OW11808   5.292   0.598   0.499 -0.0243 -0.3866 -0.0494
 3579SOL    HW111809   5.242   0.530   0.454  1.3046 -1.1947 -0.3505
 3579SOL    HW211810   5.327   0.554   0.576  0.5816  0.0440 -0.0748
 3580SOL     OW11811   1.573   5.664   4.830 -0.4889  0.5582  0.3836
 3580SOL    HW111812   1.627   5.742   4.817  0.2450 -0.2262 -1.5987
 3580SOL    HW211813   1.601   5.630   4.915  1.3981  0.7797 -0.1044
 3581SOL     OW11814   0.528   5.589   8.001 -0.1425  0.2997  0.5565
 3581SOL    HW111815   0.495   5.656   8.060  0.9325  0.5067  0.9530
 3581SOL    HW211816   0.611   5.562   8.040  1.8572  2.1425 -2.0361
 3582SOL     OW11817   4.585   1.001   3.994 -0.1658 -0.5643  0.2902
 3582SOL    HW111818   4.655   0.935   3.991 -0.9064 -1.3370 -0.2880
 3582SOL    HW211819   4.507   0.952   4.021 -0.4650  0.3242  1.1005
 3583SOL     OW11820   3.241   7.787   3.608 -0.2372  0.4488  0.2101
 3583SOL    HW111821   3.308   7.718   3.602  0.2396  0.9850 -1.1144
 3583SOL    HW211822   3.234   7.820   3.518 -2.2980  0.4140  0.3278
 3584SOL     OW11823   1.874   2.112   5.598 -0.2010  0.0623  0.1272
 3584SOL    HW111824   1.852   2.201   5.627 -0.4215  0.2811 -0.6761
 3584SOL    HW211825   1.948   2.124   5.538  1.3939 -0.5498  1.8834
 3585SOL     OW11826   2.330   5.216   3.755 -0.2381 -0.1337  0.6056
 3585SOL    HW111827   2.362   5.296   3.713 -1.3890 -0.9955 -2.0567
 3585SOL    HW211828   2.410   5.172   3.784  0.8041 -0.2192 -2.1253
 3586SOL     OW11829   0.821   7.954   8.009 -0.5526 -0.1177 -0.3427
 3586SOL    HW111830   0.837   7.903   8.088  1.0887  1.4838  0.4341
 3586SOL    HW211831   0.868   7.908   7.940  0.6559  0.1374  0.2870
 3587SOL     OW11832   0.468   1.631   4.908 -0.4403  0.2228  0.0503
 3587SOL    HW111833   0.499   1.719   4.887 -0.4189  0.1110 -0.3972
 3587SOL    HW211834   0.383   1.644   4.950 -0.0915  0.4953  0.6836
 3588SOL     OW11835   7.062   4.827   3.601  0.1301 -0.1793  0.4580
 3588SOL    HW111836   7.051   4.762   3.532  0.3566  1.5388 -1.2850
 3588SOL    HW211837   7.144   4.804   3.643  0.9354 -0.2339 -1.0724
 3589SOL     OW11838   6.950   4.978   6.400  0.5446 -0.5932 -0.2530
 3589SOL    HW111839   6.867   4.933   6.389 -0.2020  0.3963  0.9986
 3589SOL    HW211840   7.015   4.908   6.402 -0.3920 -1.4827 -0.0316
 3590SOL     OW11841   3.690   2.105   6.192 -0.1234 -0.0747  0.0804
 3590SOL    HW111842   3.642   2.096   6.274 -1.5301 -0.2332 -0.7306
 3590SOL    HW211843   3.685   2.198   6.171 -0.7078 -0.2017 -0.3645
 3591SOL     OW11844   2.376   1.052   2.570 -0.1971 -0.0023  0.5212
 3591SOL    HW111845   2.293   1.008   2.585  0.0020 -0.3942  0.4858
 3591SOL    HW211846   2.374   1.128   2.628 -1.1099  0.6976 -0.3804
 3592SOL     OW11847   2.270   2.566   1.226  0.0981 -0.1704  0.0471
 3592SOL    HW111848   2.231   2.544   1.141  0.0311  1.7636 -0.4601
 3592SOL    HW211849   2.196   2.582   1.284  0.1458 -1.3319  0.4496
 3593SOL     OW11850   2.961   1.383   0.170 -0.2404 -0.0112 -0.2430
 3593SOL    HW111851   2.978   1.425   0.085  0.6015 -0.4096 -0.2766
 3593SOL    HW211852   2.936   1.293   0.148 -2.9139  0.6370 -0.2254
 3594SOL     OW11853   6.828   1.676   5.973  0.3057  0.2415  0.8445
 3594SOL    HW111854   6.871   1.597   6.006 -1.6691 -1.5868 -0.6921
 3594SOL    HW211855   6.879   1.700   5.896  0.3760 -0.1099  0.7789
 3595SOL     OW11856   5.052   3.870   2.448 -0.0571 -0.3559 -0.0882
 3595SOL    HW111857   5.001   3.839   2.523 -0.3781 -0.2645 -0.2670
 3595SOL    HW211858   5.075   3.790   2.401  1.0737 -0.5066  0.6899
 3596SOL     OW11859   3.286   6.105   7.319 -0.3047  0.2140 -0.0456
 3596SOL    HW111860   3.309   6.135   7.407  0.0756 -1.2927  0.4007
 3596SOL    HW211861   3.219   6.166   7.289  1.3508  2.3019  0.2636
 3597SOL     OW11862   7.624   0.930   2.624  0.3524 -0.1712  0.3685
 3597SOL    HW111863   7.702   0.974   2.592  0.0149 -0.4154 -0.8242
 3597SOL    HW211864   7.554   0.958   2.564 -0.3660 -0.3953  1.0800
 3598SOL     OW11865   5.857   0.822   4.368 -0.1090  0.6342 -0.2474
 3598SOL    HW111866   5.800   0.792   4.298  0.2880 -0.3439 -0.1590
 3598SOL    HW211867   5.889   0.907   4.338 -0.2859  0.4210 -1.0488
 3599SOL     OW11868   3.929   0.818   7.226 -0.2311  0.1211  0.2856
 3599SOL    HW111869   3.866   0.802   7.296 -2.3300 -1.2382 -1.7810
 3599SOL    HW211870   4.014   0.795   7.264 -0.8923  1.7848  3.0936
 3600SOL     OW11871   7.189   0.230   0.140 -0.2264  0.0692 -0.0448
 3600SOL    HW111872   7.201   0.320   0.168 -0.8467  0.1287  0.0497
 3600SOL    HW211873   7.230   0.177   0.208  2.3151  0.3081 -1.2546
 3601SOL     OW11874   0.769   0.080   8.104  0.1935  0.7364 -0.6327
 3601SOL    HW111875   0.777  -0.012   8.079 -0.5851  0.4583  0.0761
 3601SOL    HW211876   0.855   0.118   8.086  0.3033  0.0537 -1.6487
 3602SOL     OW11877   4.769   4.156   3.135 -0.0320 -0.2682 -0.6805
 3602SOL    HW111878   4.818   4.178   3.214 -2.3304  1.1932  0.4358
 3602SOL    HW211879   4.834   4.117   3.077  1.9138 -0.6488  1.5959
 3603SOL     OW11880   5.074   4.304   6.002 -0.3286  0.1518  0.0579
 3603SOL    HW111881   5.108   4.239   6.062 -2.5588  0.0431  1.2910
 3603SOL    HW211882   5.151   4.354   5.975  0.9123 -0.6085  1.9957
 3604SOL     OW11883   7.047   4.129   0.507  0.1497  0.4850 -0.1673
 3604SOL    HW111884   7.020   4.108   0.596  1.0678  1.9091  0.4973
 3604SOL    HW211885   7.101   4.054   0.480 -1.0098 -0.4465  0.0463
 3605SOL     OW11886   4.610   2.282   7.412 -0.3998 -0.4443 -0.3659
 3605SOL    HW111887   4.690   2.241   7.446 -0.8185 -2.6262 -1.8410
 3605SOL    HW211888   4.541   2.251   7.470 -0.5715 -1.0117 -0.8644
 3606SOL     OW11889   5.808   7.819   5.249 -0.3192  0.5975 -0.0561
 3606SOL    HW111890   5.846   7.897   5.210 -1.2891  2.0161  1.6716
 3606SOL    HW211891   5.733   7.797   5.193  0.4647  0.3551 -1.0344
 3607SOL     OW11892   2.238   3.064   0.639 -0.0726 -0.2690  0.4519
 3607SOL    HW111893   2.174   3.132   0.662 -0.7570 -0.5674 -0.5033
 3607SOL    HW211894   2.184   2.987   0.620  0.7151 -1.3313  2.2391
 3608SOL     OW11895   1.079   4.005   3.715  0.1336  0.1943 -0.5275
 3608SOL    HW111896   1.159   3.963   3.685  0.4813 -0.2142  0.8947
 3608SOL    HW211897   1.026   4.014   3.637  1.9458  1.3525 -1.7012
 3609SOL     OW11898   0.978   6.294   6.005  0.4711  0.3114 -0.0874
 3609SOL    HW111899   0.900   6.285   6.059 -1.1142  2.1031 -1.9070
 3609SOL    HW211900   0.983   6.213   5.954  1.4332 -0.9722  1.9174
 3610SOL     OW11901   7.629   3.068   5.215 -0.4118 -0.4064  0.3291
 3610SOL    HW111902   7.544   3.071   5.171  0.3926 -0.5466 -1.3010
 3610SOL    HW211903   7.691   3.096   5.149  0.7274  0.6757  1.7868
 3611SOL     OW11904   6.753   1.665   3.778  0.0354  0.1641 -0.0673
 3611SOL    HW111905   6.684   1.724   3.745  0.5831  0.5687 -0.5024
 3611SOL    HW211906   6.785   1.708   3.857  0.0055  0.1346 -0.0392
 3612SOL     OW11907   3.512   4.740   2.986  0.2781 -0.6628 -0.0124
 3612SOL    HW111908   3.570   4.746   3.062 -0.4245  1.3326  0.4370
 3612SOL    HW211909   3.539   4.660   2.941  0.9693 -1.7105  2.1271
 3613SOL     OW11910   6.472   2.557   0.602 -0.0151 -0.4622 -0.3824
 3613SOL    HW111911   6.563   2.529   0.615  0.6821  1.6702 -0.3647
 3613SOL    HW211912   6.430   2.543   0.687  0.5248 -0.6166 -0.1397
 3614SOL     OW11913   6.925   1.154   0.224 -0.2178 -0.2358 -0.8853
 3614SOL    HW111914   6.888   1.088   0.283  2.1040  0.0584  1.0623
 3614SOL    HW211915   7.001   1.111   0.184  1.4837  1.2372  0.6029
 3615SOL     OW11916   6.255   3.375   7.104 -0.1091 -0.3225  0.0005
 3615SOL    HW111917   6.219   3.455   7.066 -2.1815 -1.1077  0.1960
 3615SOL    HW211918   6.339   3.362   7.059 -0.7611  0.7656 -1.5992
 3616SOL     OW11919   1.210   2.600   7.965  0.3289 -0.1413 -0.1002
 3616SOL    HW111920   1.117   2.586   7.945  0.4407 -2.0823  0.5708
 3616SOL    HW211921   1.210   2.655   8.043 -0.2996 -0.9406  0.4800
 3617SOL     OW11922   6.170   1.247   7.073  0.4671 -0.3635  0.3075
 3617SOL    HW111923   6.123   1.171   7.107 -1.1866 -0.1324 -1.2751
 3617SOL    HW211924   6.238   1.265   7.138 -0.1616 -2.1642  1.5353
 3618SOL     OW11925   5.676   4.970   4.557 -0.0306 -0.4048 -0.0279
 3618SOL    HW111926   5.697   5.061   4.578 -0.6270  0.2250 -2.0247
 3618SOL    HW211927   5.761   4.932   4.532 -0.0647  0.1672 -1.0875
 3619SOL     OW11928   3.170   2.636   5.991  0.4009 -0.4151  0.0980
 3619SOL    HW111929   3.112   2.697   5.944  0.1393  0.2810  1.2897
 3619SOL    HW211930   3.258   2.662   5.963  0.1918 -1.5261 -1.7763
 3620SOL     OW11931   0.324   1.039   1.815  0.4222  0.4620  0.1735
 3620SOL    HW111932   0.304   1.132   1.808  2.0503  0.9713  1.6058
 3620SOL    HW211933   0.330   1.023   1.910 -0.9118 -1.3718  0.0162
 3621SOL     OW11934   8.129   3.339   6.295 -0.0580  0.0961 -0.0315
 3621SOL    HW111935   8.106   3.411   6.236 -0.4688 -1.6161 -2.0802
 3621SOL    HW211936   8.202   3.294   6.252  0.8737 -0.1618  1.7058
 3622SOL     OW11937   7.206   6.665   6.383 -0.2197 -0.4408  0.3318
 3622SOL    HW111938   7.251   6.747   6.402  0.9140 -1.0501  0.3489
 3622SOL    HW211939   7.226   6.609   6.458 -1.8475 -0.4121  0.8374
 3623SOL     OW11940   0.160   3.253   6.114  0.0011 -0.3486  0.4524
 3623SOL    HW111941   0.131   3.164   6.093 -0.2345 -0.7870  2.4268
 3623SOL    HW211942   0.242   3.240   6.162 -0.9488  0.3542  2.3478
 3624SOL     OW11943   1.863   6.913   2.498 -0.3345  0.2743  0.0079
 3624SOL    HW111944   1.859   6.947   2.587 -0.2692 -0.1145  0.1613
 3624SOL    HW211945   1.812   6.975   2.446  1.2615  1.6195 -0.0427
 3625SOL     OW11946   6.542   6.708   0.917 -0.2724  0.3424 -1.1432
 3625SOL    HW111947   6.590   6.629   0.896  0.3190 -0.2044  1.7882
 3625SOL    HW211948   6.563   6.769   0.846  1.3527 -1.2490 -2.1054
 3626SOL     OW11949   3.264   0.511   8.065 -0.0697 -0.6614 -0.4726
 3626SOL    HW111950   3.236   0.548   8.149  0.3480 -2.6848  0.6250
 3626SOL    HW211951   3.322   0.438   8.089 -0.0549 -1.3893 -2.5211
 3627SOL     OW11952   3.405   7.081   8.118  0.0736 -0.3808  0.1423
 3627SOL    HW111953   3.459   7.058   8.042 -0.7274 -2.6987  0.1962
 3627SOL    HW211954   3.352   7.155   8.088 -0.3243 -1.3273 -1.6171
 3628SOL     OW11955   0.763   2.844   4.390  1.0818 -0.3487  0.3913
 3628SOL    HW111956   0.772   2.877   4.301 -2.5771 -1.0635 -0.4315
 3628SOL    HW211957   0.784   2.751   4.383 -0.6076 -0.7246 -0.1345
 3629SOL     OW11958   0.652   3.958   3.945 -0.4605 -0.2641  0.1341
 3629SOL    HW111959   0.633   4.051   3.949 -1.9529 -0.5828  1.2017
 3629SOL    HW211960   0.573   3.918   3.909 -0.2258 -1.2080  0.6067
 3630SOL     OW11961   4.054   2.647   5.576  0.0570 -0.2725  0.5558
 3630SOL    HW111962   4.045   2.671   5.484 -0.1374  0.0591  0.6596
 3630SOL    HW211963   4.023   2.724   5.624 -0.8257 -0.8187  0.8868
 3631SOL     OW11964   7.152   1.683   8.113  0.2569 -0.3067 -0.3209
 3631SOL    HW111965   7.201   1.764   8.125  0.2045  0.1104 -2.5208
 3631SOL    HW211966   7.209   1.615   8.148  2.9106  0.0473 -3.5322
 3632SOL     OW11967   7.116   0.908   2.954  0.4946  0.2713 -0.9327
 3632SOL    HW111968   7.029   0.883   2.922  0.2182  0.5782 -0.4449
 3632SOL    HW211969   7.160   0.945   2.878 -0.7042  2.4596 -0.6561
 3633SOL     OW11970   7.288   5.491   2.573 -0.2405  0.3048  0.0539
 3633SOL    HW111971   7.231   5.486   2.649 -0.5396 -1.0467 -0.2239
 3633SOL    HW211972   7.309   5.399   2.553 -1.5169  0.4477 -2.4458
 3634SOL     OW11973   5.592   1.208   4.062 -0.4477 -0.0728 -0.2892
 3634SOL    HW111974   5.544   1.221   3.980 -0.9560  0.8110  0.1271
 3634SOL    HW211975   5.666   1.153   4.038  0.5158  1.7232 -1.7563
 3635SOL     OW11976   0.747   1.664   4.634 -0.1857  0.2488 -0.2548
 3635SOL    HW111977   0.668   1.618   4.605  0.3507 -0.6962 -0.2524
 3635SOL    HW211978   0.808   1.656   4.561 -0.3036  1.5343 -0.5130
 3636SOL     OW11979   3.298   3.108   7.512  0.1932 -0.1234  0.0690
 3636SOL    HW111980   3.354   3.183   7.491 -2.4387  1.8905 -0.2369
 3636SOL    HW211981   3.270   3.123   7.602  0.0196 -1.0207  0.1709
 3637SOL     OW11982   1.806   3.380   7.255 -0.3091  0.1627 -0.0227
 3637SOL    HW111983   1.761   3.338   7.328  0.5983 -0.3355  0.2632
 3637SOL    HW211984   1.761   3.464   7.243 -1.8911 -0.6895 -0.3323
 3638SOL     OW11985   2.409   2.849   2.874  0.1970  0.3302  0.2800
 3638SOL    HW111986   2.475   2.780   2.885  0.9998  1.3128  2.0886
 3638SOL    HW211987   2.338   2.823   2.934 -0.5924 -0.1351 -0.8220
 3639SOL     OW11988   6.809   6.172   6.312  0.2811 -0.0894  0.0638
 3639SOL    HW111989   6.904   6.183   6.316  0.2975 -0.4697  1.4176
 3639SOL    HW211990   6.775   6.240   6.371 -0.1507 -1.1692  1.1059
 3640SOL     OW11991   0.713   5.322   3.079 -0.0615  0.1365 -0.0029
 3640SOL    HW111992   0.744   5.325   3.170 -1.8292  2.5155  0.5939
 3640SOL    HW211993   0.620   5.298   3.087  0.0592 -0.8667 -1.3209
 3641SOL     OW11994   7.670   5.106   7.248  0.3851  0.0034 -0.0615
 3641SOL    HW111995   7.761   5.085   7.265  0.2931 -1.1872 -0.9282
 3641SOL    HW211996   7.621   5.031   7.281 -0.0610 -0.5682 -1.8864
 3642SOL     OW11997   6.810   5.580   3.699  0.2351 -0.0114  0.3702
 3642SOL    HW111998   6.834   5.516   3.767  1.6251  0.4009  0.2826
 3642SOL    HW211999   6.757   5.645   3.745  2.5064  1.1556  1.4865
 3643SOL     OW12000   3.972   6.906   1.269 -0.1924  0.4120  0.1166
 3643SOL    HW112001   3.939   6.961   1.199 -1.8954 -0.0184  0.5446
 3643SOL    HW212002   4.044   6.957   1.308 -0.3506  1.3846 -0.8203
 3644SOL     OW12003   1.304   2.649   1.430 -0.1512  0.9836 -0.2719
 3644SOL    HW112004   1.354   2.693   1.499 -0.5567  2.9716 -1.1780
 3644SOL    HW212005   1.227   2.615   1.474 -0.2288  1.9070  0.3376
 3645SOL     OW12006   7.001   7.898   3.115 -0.0555  0.3978  0.3240
 3645SOL    HW112007   6.957   7.843   3.050 -0.1962  0.1762  0.6032
 3645SOL    HW212008   7.004   7.843   3.194 -1.4923  1.2880  1.0443
 3646SOL     OW12009   4.790   5.923   2.073  0.2898 -0.3852 -0.2662
 3646SOL    HW112010   4.749   5.903   2.158  1.1978 -0.0672  0.2583
 3646SOL    HW212011   4.849   5.850   2.058 -0.0542 -0.5665 -0.7584
 3647SOL     OW12012   6.206   4.907   2.577 -0.0439  0.3813  0.0276
 3647SOL    HW112013   6.233   4.932   2.666  0.8031  0.7216 -0.3178
 3647SOL    HW212014   6.287   4.876   2.535  0.0821  2.4681 -1.3907
 3648SOL     OW12015   1.714   5.820   3.030  0.0632 -0.0176 -0.2531
 3648SOL    HW112016   1.745   5.792   2.944  1.9785 -1.0061  0.6776
 3648SOL    HW212017   1.621   5.841   3.017  0.6635  1.4546 -2.8746
 3649SOL     OW12018   2.540   1.983   1.461 -0.1645  0.9234 -0.7288
 3649SOL    HW112019   2.482   1.943   1.526 -1.1111  0.4768 -1.8113
 3649SOL    HW212020   2.607   2.027   1.512 -1.2006  1.0640  0.5654
 3650SOL     OW12021   7.644   0.206   7.287 -0.5891  0.9388  0.2340
 3650SOL    HW112022   7.689   0.181   7.206 -0.9468  0.5610  0.1483
 3650SOL    HW212023   7.605   0.291   7.266 -2.6785 -0.1927 -0.8235
 3651SOL     OW12024   1.875   8.008   2.694  0.3550 -0.1905 -0.1133
 3651SOL    HW112025   1.804   8.017   2.759  1.8050  1.4392  1.3813
 3651SOL    HW212026   1.937   7.948   2.735  1.3766  1.0033  0.1795
 3652SOL     OW12027   6.494   6.759   4.124  0.4105 -0.3428  0.3715
 3652SOL    HW112028   6.447   6.784   4.204 -0.6429 -2.9828  0.6860
 3652SOL    HW212029   6.548   6.684   4.150  0.3625 -0.9884 -1.2843
 3653SOL     OW12030   3.410   1.922   5.148 -0.3289 -0.5088  0.0212
 3653SOL    HW112031   3.402   1.980   5.073  1.7903  0.4235  0.4630
 3653SOL    HW212032   3.380   1.975   5.222  1.8049  0.1739  0.4569
 3654SOL     OW12033   6.888   1.743   6.273 -0.2674 -0.0948  0.4521
 3654SOL    HW112034   6.919   1.655   6.294 -0.5076 -0.2336  0.2233
 3654SOL    HW212035   6.818   1.760   6.337 -0.4349 -0.1937  0.2957
 3655SOL     OW12036   2.199   0.708   1.382  0.1515 -0.5676 -0.2780
 3655SOL    HW112037   2.194   0.629   1.328 -1.0443 -0.9828  0.3929
 3655SOL    HW212038   2.111   0.747   1.375 -0.0702 -0.6962  1.4293
 3656SOL     OW12039   0.987   3.771   0.675 -0.2321  0.6861  0.1412
 3656SOL    HW112040   0.916   3.834   0.684 -1.2103 -0.1443 -1.3273
 3656SOL    HW212041   1.049   3.812   0.614  1.2560  1.9468  2.3681
 3657SOL     OW12042   0.785   6.919   3.440  0.5717 -0.2508  0.6883
 3657SOL    HW112043   0.812   6.960   3.358 -2.1775 -0.0110 -0.1989
 3657SOL    HW212044   0.766   6.992   3.498 -0.8745 -0.2878  0.3046
 3658SOL     OW12045   5.042   6.296   6.452 -0.6112  0.1190 -0.0716
 3658SOL    HW112046   4.984   6.356   6.499  1.7365  3.0511 -0.5558
 3658SOL    HW212047   5.109   6.273   6.516 -0.0072  0.2378 -0.6533
 3659SOL     OW12048   3.998   0.173   7.277  0.0482 -0.1638  0.6122
 3659SOL    HW112049   3.912   0.196   7.242 -0.3861 -0.3866  1.4861
 3659SOL    HW212050   4.015   0.239   7.344 -0.1309 -0.9859  1.4859
 3660SOL     OW12051   7.662   6.331   6.498  0.5301  0.8864  0.2297
 3660SOL    HW112052   7.733   6.277   6.465  0.2072  0.2393  0.5691
 3660SOL    HW212053   7.703   6.394   6.556  0.7889  0.3016  0.6848
 3661SOL     OW12054   1.449   6.200   1.494 -0.2006 -0.4905  0.1244
 3661SOL    HW112055   1.388   6.251   1.441  0.7326 -0.6008 -1.0991
 3661SOL    HW212056   1.497   6.147   1.430  1.4209 -0.1453  1.0054
 3662SOL     OW12057   2.857   3.833   0.745  0.2894  0.0035 -0.2869
 3662SOL    HW112058   2.855   3.835   0.841  0.8472 -0.2926 -0.2695
 3662SOL    HW212059   2.768   3.857   0.720 -0.3392 -1.5436  0.3324
 3663SOL     OW12060   6.617   4.238   3.688  0.4739  0.1452 -0.0114
 3663SOL    HW112061   6.599   4.145   3.675 -2.3536  0.6098  0.0222
 3663SOL    HW212062   6.626   4.273   3.599 -0.2848  0.1249 -0.1049
 3664SOL     OW12063   7.274   7.708   5.191 -0.6235  0.1356 -0.5377
 3664SOL    HW112064   7.195   7.710   5.137 -0.8236  0.9546 -0.2286
 3664SOL    HW212065   7.261   7.635   5.251 -1.9304  1.2651  0.6352
 3665SOL     OW12066   6.654   0.338   2.340 -0.2226 -0.1114 -0.7312
 3665SOL    HW112067   6.710   0.415   2.335 -1.5852  0.9259 -0.7173
 3665SOL    HW212068   6.641   0.324   2.434 -0.9908  0.4379 -0.7443
 3666SOL     OW12069   5.202   3.470   6.549 -0.5178  0.0192  0.0594
 3666SOL    HW112070   5.156   3.386   6.558 -0.3631  0.0173  0.9522
 3666SOL    HW212071   5.290   3.446   6.521 -0.1367 -0.2234  1.3728
 3667SOL     OW12072   3.441   3.478   2.433 -0.4983  0.6007 -0.0828
 3667SOL    HW112073   3.466   3.461   2.524 -2.0551 -1.1244  0.0918
 3667SOL    HW212074   3.515   3.446   2.381 -0.4982 -0.4129  0.5266
 3668SOL     OW12075   1.619   5.971   1.318 -0.8294 -0.0453 -0.2294
 3668SOL    HW112076   1.582   5.912   1.252 -0.0030  1.3062 -2.0182
 3668SOL    HW212077   1.701   6.001   1.279  0.0343  0.3090  1.7536
 3669SOL     OW12078   3.643   7.270   0.338 -0.1250 -0.4949 -0.3075
 3669SOL    HW112079   3.723   7.258   0.389 -0.7749 -0.2288  0.8122
 3669SOL    HW212080   3.621   7.182   0.307  1.0496 -0.4448 -1.3612
 3670SOL     OW12081   3.598   7.061   0.164 -0.0126  0.0708 -0.4253
 3670SOL    HW112082   3.638   6.984   0.123  0.1323  0.0267 -0.2048
 3670SOL    HW212083   3.520   7.078   0.112 -0.2273 -0.4237 -0.2779
 3671SOL     OW12084   8.162   4.326   6.682  0.0766  0.4597 -0.4872
 3671SOL    HW112085   8.193   4.379   6.609 -0.3758 -0.5029 -1.3930
 3671SOL    HW212086   8.181   4.236   6.657  0.6511  0.1522  0.9383
 3672SOL     OW12087   5.740   1.979   4.737 -0.1659 -0.0096 -0.3027
 3672SOL    HW112088   5.713   2.000   4.648  0.1166 -1.5213 -0.7811
 3672SOL    HW212089   5.659   1.950   4.780 -0.4102  1.2445  0.1266
 3673SOL     OW12090   2.375   5.859   7.342 -0.0492 -0.2927  0.7336
 3673SOL    HW112091   2.300   5.875   7.285  0.4824  1.4486  0.4638
 3673SOL    HW212092   2.339   5.809   7.415 -1.5731  0.8364  0.8051
 3674SOL     OW12093   1.496   4.191   4.563  0.7030  0.4495 -0.0779
 3674SOL    HW112094   1.431   4.122   4.578 -0.1723  0.2166 -3.8701
 3674SOL    HW212095   1.580   4.150   4.584 -0.0930 -0.2208  2.0275
 3675SOL     OW12096   2.075   1.884   7.024  0.2549 -0.2329  0.2964
 3675SOL    HW112097   2.125   1.862   6.945 -0.0390 -2.3320  0.6282
 3675SOL    HW212098   2.124   1.956   7.064  0.1621  1.1965 -1.9836
 3676SOL     OW12099   6.744   6.555   2.732  0.1683 -0.1389 -0.5361
 3676SOL    HW112100   6.795   6.491   2.682 -0.1470 -0.3351 -0.6116
 3676SOL    HW212101   6.710   6.615   2.666  1.2312  0.6602 -0.3731
 3677SOL     OW12102   6.061   3.686   6.655 -0.3318 -0.1210  0.4397
 3677SOL    HW112103   6.133   3.653   6.601  1.4761 -2.9839  4.0838
 3677SOL    HW212104   5.982   3.656   6.610  0.8522  0.0815 -1.9343
 3678SOL     OW12105   5.327   0.398   8.082  0.2060  0.1282 -0.2947
 3678SOL    HW112106   5.305   0.391   8.175 -0.4835  2.2515 -0.2284
 3678SOL    HW212107   5.271   0.334   8.039  0.1144 -0.4808  0.6904
 3679SOL     OW12108   4.804   4.968   4.698  0.1647  0.1751 -0.1574
 3679SOL    HW112109   4.826   4.876   4.710 -1.2597 -0.1964 -0.2913
 3679SOL    HW212110   4.831   4.988   4.608 -0.3486 -0.3640 -0.4356
 3680SOL     OW12111   1.825   3.055   3.886  0.0199  0.1052  0.0691
 3680SOL    HW112112   1.832   2.996   3.812  1.2918 -0.6198  0.7369
 3680SOL    HW212113   1.761   3.014   3.944  0.3104 -0.2139  0.1649
 3681SOL     OW12114   4.538   2.354   4.729  0.0659  0.1295 -0.4331
 3681SOL    HW112115   4.443   2.366   4.728 -0.0783  0.2352  2.8480
 3681SOL    HW212116   4.568   2.410   4.801  2.6686  0.1633 -1.4299
 3682SOL     OW12117   4.487   7.688   7.665 -0.4954 -0.3759  0.3276
 3682SOL    HW112118   4.440   7.604   7.659  0.0815 -0.6254 -1.3709
 3682SOL    HW212119   4.433   7.749   7.614  0.2419 -0.3150 -0.4131
 3683SOL     OW12120   0.892   7.383   5.920  0.0943 -0.1983 -0.3805
 3683SOL    HW112121   0.900   7.414   5.829 -1.1143 -0.3843 -0.5748
 3683SOL    HW212122   0.801   7.354   5.927  0.3874 -0.9101  0.6791
 3684SOL     OW12123   5.425   3.310   7.252  0.0385 -0.2335 -0.2508
 3684SOL    HW112124   5.466   3.251   7.315 -0.3268 -0.2461 -0.0194
 3684SOL    HW212125   5.332   3.287   7.254  0.1180 -0.6668 -1.2729
 3685SOL     OW12126   2.040   1.744   1.978  0.7695  0.0444 -0.0123
 3685SOL    HW112127   2.084   1.661   1.999  2.4747  1.0817  0.6926
 3685SOL    HW212128   2.017   1.781   2.062 -0.8891 -0.1466 -0.3612
 3686SOL     OW12129   3.300   5.218   5.806  0.1402  0.5090 -0.3984
 3686SOL    HW112130   3.225   5.174   5.767 -1.3834  0.3424  2.4155
 3686SOL    HW212131   3.345   5.150   5.857  2.9860  0.3328 -2.8622
 3687SOL     OW12132   3.643   1.216   2.101 -0.3272 -0.0874 -0.1284
 3687SOL    HW112133   3.668   1.155   2.170  2.5440 -0.3894 -1.2860
 3687SOL    HW212134   3.601   1.161   2.035 -0.2715 -0.3455  0.0475
 3688SOL     OW12135   8.100   4.083   2.459 -0.3453  0.1701  0.1635
 3688SOL    HW112136   8.069   4.018   2.523  0.2630  0.7607  1.0904
 3688SOL    HW212137   8.022   4.107   2.410 -0.9325  0.0410  1.0057
 3689SOL     OW12138   2.459   2.118   8.072 -0.6244 -0.4024 -0.0564
 3689SOL    HW112139   2.485   2.037   8.114  2.5676  0.7553  0.4788
 3689SOL    HW212140   2.462   2.099   7.978 -0.6395 -1.0722  0.0746
 3690SOL     OW12141   1.766   2.743   5.093 -0.1049 -0.4555 -0.1684
 3690SOL    HW112142   1.844   2.689   5.084  0.0395 -0.2616 -0.0819
 3690SOL    HW212143   1.798   2.833   5.090 -0.5977 -0.2596 -3.4555
 3691SOL     OW12144   8.123   3.017   0.856  0.4628  0.1548 -0.6618
 3691SOL    HW112145   8.154   2.937   0.814  1.2711  0.3435 -0.4314
 3691SOL    HW212146   8.030   3.001   0.872  0.9515 -1.4200  0.9441
 3692SOL     OW12147   1.812   3.609   4.280 -0.3293 -0.3400  0.2992
 3692SOL    HW112148   1.785   3.604   4.188 -0.1482  0.8093  0.1647
 3692SOL    HW212149   1.743   3.563   4.327 -1.7694  1.2114 -0.1944
 3693SOL     OW12150   8.112   3.631   3.918 -0.1248 -0.1737  0.0655
 3693SOL    HW112151   8.113   3.672   4.005  1.2785  0.6957 -0.3290
 3693SOL    HW212152   8.112   3.537   3.936  0.4684 -0.0042  1.0222
 3694SOL     OW12153   7.996   6.674   1.229  0.1668  0.5964 -0.1657
 3694SOL    HW112154   8.082   6.682   1.270  1.0721 -1.3921 -1.4934
 3694SOL    HW212155   7.944   6.625   1.292  0.4734  0.5039  0.0166
 3695SOL     OW12156   3.801   1.648   5.681  0.3563  0.0164 -0.2394
 3695SOL    HW112157   3.892   1.651   5.652 -0.1968 -1.7593 -2.4147
 3695SOL    HW212158   3.794   1.566   5.729  0.3889  1.2638  2.0578
 3696SOL     OW12159   8.161   0.838   7.641  0.5990  0.3437  0.3275
 3696SOL    HW112160   8.194   0.850   7.552  1.2051  0.5104  0.5722
 3696SOL    HW212161   8.076   0.795   7.629 -0.9198  3.2916 -0.4981
 3697SOL     OW12162   1.520   6.471   7.641 -0.2182  1.1375  0.2636
 3697SOL    HW112163   1.499   6.564   7.654 -1.7250  1.0163 -0.9724
 3697SOL    HW212164   1.435   6.430   7.625  0.7115  0.3730 -3.8996
 3698SOL     OW12165   3.242   5.764   0.440 -0.3140 -0.3289 -0.1699
 3698SOL    HW112166   3.239   5.854   0.406  0.0546 -0.0783  0.4468
 3698SOL    HW212167   3.204   5.711   0.370 -0.0631  0.2460 -0.7539
 3699SOL     OW12168   1.229   4.884   7.422  0.3211 -0.0390  0.0195
 3699SOL    HW112169   1.282   4.849   7.350 -0.3068  0.1168 -0.5324
 3699SOL    HW212170   1.224   4.978   7.404  2.1830  0.4169  1.6114
 3700SOL     OW12171   5.607   7.693   0.956  0.5157  0.1975 -0.0075
 3700SOL    HW112172   5.579   7.621   0.899  1.6943 -1.3208  1.2445
 3700SOL    HW212173   5.531   7.750   0.961 -1.3779 -2.2028  0.8244
 3701SOL     OW12174   3.007   6.324   8.030  0.0245  0.0631 -0.4669
 3701SOL    HW112175   2.974   6.276   7.954 -1.7758  1.1540 -0.4267
 3701SOL    HW212176   2.975   6.275   8.105  2.2077 -1.2872 -0.3356
 3702SOL     OW12177   2.845   6.052   4.528 -0.7127 -0.3275  0.2209
 3702SOL    HW112178   2.938   6.028   4.522 -0.9321 -1.5498  1.3060
 3702SOL    HW212179   2.799   5.971   4.508 -1.5112 -0.4607  2.3590
 3703SOL     OW12180   1.541   2.089   2.561  0.0301 -0.4402 -0.4096
 3703SOL    HW112181   1.479   2.162   2.556 -0.4600 -0.7921  0.4141
 3703SOL    HW212182   1.624   2.126   2.529  0.2427  0.9904  1.5815
 3704SOL     OW12183   7.230   1.267   4.198 -0.1809  0.0842  0.2251
 3704SOL    HW112184   7.168   1.302   4.262 -1.5074 -2.8722  0.7704
 3704SOL    HW212185   7.309   1.320   4.208 -1.3511  1.5863  2.2002
 3705SOL     OW12186   7.894   7.474   6.185 -0.1384  0.3991  0.3412
 3705SOL    HW112187   7.850   7.486   6.101  2.0128 -2.0217 -1.2481
 3705SOL    HW212188   7.828   7.430   6.240 -0.8884  0.0730 -0.7777
 3706SOL     OW12189   6.472   6.464   4.419 -0.4067 -0.7623 -0.4439
 3706SOL    HW112190   6.436   6.411   4.348 -0.7269 -0.5362 -0.4533
 3706SOL    HW212191   6.422   6.546   4.416 -0.2074 -0.6246 -0.1590
 3707SOL     OW12192   1.679   4.180   0.282 -0.2171 -0.0371 -0.7001
 3707SOL    HW112193   1.660   4.206   0.192  0.4252 -0.1874 -0.8848
 3707SOL    HW212194   1.736   4.104   0.273  1.4948  1.1150 -0.1955
 3708SOL     OW12195   4.202   4.896   1.891 -0.4266  0.3694  0.3951
 3708SOL    HW112196   4.171   4.810   1.864  0.4234 -0.1619  1.0815
 3708SOL    HW212197   4.296   4.886   1.901 -0.2138  1.5676 -0.2011
 3709SOL     OW12198   3.931   4.986   1.772 -0.0408 -0.3291 -0.0817
 3709SOL    HW112199   4.005   4.979   1.831 -0.7023 -0.3266  0.7768
 3709SOL    HW212200   3.943   5.070   1.727  1.4473 -1.1690 -1.3503
 3710SOL     OW12201   3.280   4.065   1.051  0.4566  0.1580 -0.2414
 3710SOL    HW112202   3.260   4.072   1.144 -0.3798 -0.2320 -0.3805
 3710SOL    HW212203   3.290   4.155   1.021 -1.2693  0.4017 -0.1807
 3711SOL     OW12204   1.159   5.644   5.844 -0.2198  0.0524  0.7143
 3711SOL    HW112205   1.209   5.583   5.899 -0.8219 -0.4275  0.7420
 3711SOL    HW212206   1.109   5.588   5.785 -2.4286  0.3807  2.1430
 3712SOL     OW12207   1.247   0.997   0.047  0.0875 -0.3203 -0.2214
 3712SOL    HW112208   1.260   1.076   0.099  0.7638 -2.1183  2.6154
 3712SOL    HW212209   1.152   0.990   0.037  0.0026  0.5874 -0.0604
 3713SOL     OW12210   1.722   3.366   1.986 -0.5907 -0.2113 -0.2601
 3713SOL    HW112211   1.696   3.442   2.038  0.4900 -1.2179  1.8823
 3713SOL    HW212212   1.812   3.384   1.958 -0.8728 -0.0471 -1.1042
 3714SOL     OW12213   7.495   5.516   3.715 -0.7132 -0.1093  0.0059
 3714SOL    HW112214   7.476   5.560   3.632  2.6836  1.2592 -0.2084
 3714SOL    HW212215   7.512   5.425   3.691 -1.5643 -0.1480 -0.4897
 3715SOL     OW12216   0.952   5.342   6.789  0.1635  0.1081 -0.1801
 3715SOL    HW112217   0.920   5.355   6.878 -0.0699 -0.6379 -0.1498
 3715SOL    HW212218   0.987   5.427   6.764  2.8039 -0.3124  1.6457
 3716SOL     OW12219   5.812   5.768   4.632 -0.2060  0.2434  0.1620
 3716SOL    HW112220   5.867   5.847   4.627 -0.4699  0.3968 -0.5013
 3716SOL    HW212221   5.795   5.756   4.725  0.8967  0.2313  0.3686
 3717SOL     OW12222   5.003   2.559   4.432  0.1787  0.7369 -0.5728
 3717SOL    HW112223   4.934   2.609   4.388 -0.1486 -0.5370 -1.5588
 3717SOL    HW212224   5.061   2.530   4.362  0.3416 -0.2892 -0.0333
 3718SOL     OW12225   3.419   0.168   1.859  0.4397 -0.3237  0.3564
 3718SOL    HW112226   3.464   0.169   1.775  0.4534  1.2739  0.3598
 3718SOL    HW212227   3.328   0.191   1.838 -0.0113 -1.7917  0.5680
 3719SOL     OW12228   5.410   6.089   7.368 -0.0037 -0.1544 -0.1564
 3719SOL    HW112229   5.401   6.184   7.361 -2.1671 -0.3883 -1.7370
 3719SOL    HW212230   5.328   6.055   7.331  0.7963 -2.6417  0.1877
 3720SOL     OW12231   4.100   5.390   7.586 -0.0654 -0.1934 -0.1469
 3720SOL    HW112232   4.173   5.333   7.610  1.0036  1.2504  0.1885
 3720SOL    HW212233   4.056   5.344   7.515  0.1021 -1.9100  0.8126
 3721SOL     OW12234   1.074   2.426   4.126  0.3478 -0.0624  0.2810
 3721SOL    HW112235   1.139   2.410   4.195 -0.8533  0.0068  1.4674
 3721SOL    HW212236   1.036   2.340   4.108  0.2926  0.0045  0.0728
 3722SOL     OW12237   7.117   1.954   2.326 -0.7450 -0.2811  0.5518
 3722SOL    HW112238   7.045   2.015   2.309  0.7003  0.9328 -1.7008
 3722SOL    HW212239   7.105   1.928   2.418 -3.3728  0.7178  0.5724
 3723SOL     OW12240   5.961   3.303   7.087 -0.1198  0.2897  0.0304
 3723SOL    HW112241   6.054   3.320   7.097  0.2871 -1.5002 -0.3661
 3723SOL    HW212242   5.934   3.266   7.171 -0.2700 -0.0235 -0.1530
 3724SOL     OW12243   1.376   4.872   3.771 -0.7559 -0.2712  0.1014
 3724SOL    HW112244   1.471   4.876   3.774 -0.7556 -0.7642  1.4790
 3724SOL    HW212245   1.356   4.837   3.684  0.3474 -0.8303  0.0559
 3725SOL     OW12246   1.785   5.156   7.895 -0.5075 -0.3654  0.3811
 3725SOL    HW112247   1.874   5.140   7.867  0.6376  1.1241  2.8204
 3725SOL    HW212248   1.757   5.074   7.935  1.1659  0.1390  2.7895
 3726SOL     OW12249   3.387   3.305   8.070 -0.2869  0.1473  0.2880
 3726SOL    HW112250   3.396   3.389   8.026  0.1672  0.1912  0.4606
 3726SOL    HW212251   3.477   3.279   8.092 -0.5611  0.6499  2.1903
 3727SOL     OW12252   3.958   5.464   3.427  0.2388  0.0696 -0.4781
 3727SOL    HW112253   3.921   5.533   3.371  1.0763 -1.0706 -2.5431
 3727SOL    HW212254   4.050   5.461   3.402  0.5378 -0.7968  0.6813
 3728SOL     OW12255   6.188   7.150   3.496 -0.1300 -0.2329  0.4516
 3728SOL    HW112256   6.158   7.068   3.457  0.4515 -0.9365  1.4449
 3728SOL    HW212257   6.281   7.137   3.512 -0.0199  0.6458  0.5857
 3729SOL     OW12258   3.674   5.298   1.251  0.4188 -0.1687  0.1446
 3729SOL    HW112259   3.754   5.252   1.275 -0.1092 -1.6906 -0.8520
 3729SOL    HW212260   3.681   5.383   1.294  2.3927 -0.3987  0.3584
 3730SOL     OW12261   6.915   3.992   2.559  0.2752 -0.1131 -0.2402
 3730SOL    HW112262   6.996   4.042   2.547  0.3399  0.3986  2.0043
 3730SOL    HW212263   6.902   3.948   2.475  2.4144  0.4529 -0.9321
 3731SOL     OW12264   2.357   4.554   2.199  0.6194  0.1056 -0.2687
 3731SOL    HW112265   2.341   4.522   2.288  2.2822 -0.7625 -0.2390
 3731SOL    HW212266   2.420   4.493   2.163  0.7082  1.0081 -1.7196
 3732SOL     OW12267   3.895   2.592   0.637 -0.0508  0.6715  0.5436
 3732SOL    HW112268   3.946   2.536   0.695 -0.3185  0.0439  0.1785
 3732SOL    HW212269   3.922   2.681   0.660  1.1597  0.3601  0.4098
 3733SOL     OW12270   6.308   7.119   0.178  0.3054 -0.1950  0.1375
 3733SOL    HW112271   6.243   7.186   0.196  0.7179 -0.1038  1.4366
 3733SOL    HW212272   6.288   7.048   0.240  0.6052 -0.7533 -0.3844
 3734SOL     OW12273   6.113   1.888   0.230 -0.3944  0.2956 -0.1706
 3734SOL    HW112274   6.146   1.834   0.301  1.2695  0.0219 -1.1052
 3734SOL    HW212275   6.053   1.830   0.182 -0.7115  0.1502  0.3986
 3735SOL     OW12276   6.011   6.939   2.355 -0.0946  0.6170  0.0622
 3735SOL    HW112277   6.085   6.916   2.299 -1.4123  0.2220 -1.5746
 3735SOL    HW212278   5.988   6.857   2.399  0.1708  0.6475  0.2628
 3736SOL     OW12279   3.271   1.787   1.968  0.0486 -0.1164  0.0608
 3736SOL    HW112280   3.187   1.833   1.964 -1.4257 -2.6070  0.1534
 3736SOL    HW212281   3.310   1.800   1.881  0.4956  2.5534  0.5829
 3737SOL     OW12282   2.126   6.273   2.407 -0.0647  0.9356  0.5071
 3737SOL    HW112283   2.059   6.237   2.349  1.0917 -2.6640  1.1498
 3737SOL    HW212284   2.209   6.257   2.362  0.6936  0.3847  2.0102
 3738SOL     OW12285   5.137   3.516   5.905 -0.0222  0.4362  0.2481
 3738SOL    HW112286   5.175   3.576   5.970  1.0203  0.7690 -0.6414
 3738SOL    HW212287   5.084   3.572   5.848  0.0989  0.3531  0.0511
 3739SOL     OW12288   2.849   6.665   6.340  0.0923 -0.2078 -0.2016
 3739SOL    HW112289   2.866   6.662   6.434 -2.3883 -0.1322  0.3317
 3739SOL    HW212290   2.834   6.573   6.316 -1.6020 -0.0208  0.0258
 3740SOL     OW12291   6.520   1.866   3.429 -0.3236 -0.1299  0.0902
 3740SOL    HW112292   6.568   1.891   3.350 -0.0860 -0.8756 -0.0042
 3740SOL    HW212293   6.575   1.895   3.501  0.1306 -0.7033 -0.0188
 3741SOL     OW12294   1.082   0.366   0.740  0.1987 -0.1500 -0.9269
 3741SOL    HW112295   1.129   0.305   0.797  1.4493  1.8428  0.3115
 3741SOL    HW212296   0.997   0.323   0.723  1.0536 -2.2377 -0.2544
 3742SOL     OW12297   4.947   4.706   5.885 -0.1433  0.6501  0.2656
 3742SOL    HW112298   4.917   4.647   5.955  2.2313 -0.0034  0.8285
 3742SOL    HW212299   4.913   4.792   5.910 -1.8172 -0.0624  0.6115
 3743SOL     OW12300   6.267   5.967   3.088  0.2185  0.1944 -0.2904
 3743SOL    HW112301   6.218   6.035   3.042  1.2293  0.3709 -1.1411
 3743SOL    HW212302   6.243   5.979   3.180 -0.5404  0.9210 -0.5644
 3744SOL     OW12303   5.915   4.551   4.682 -0.6420  0.0046  0.1529
 3744SOL    HW112304   5.822   4.561   4.662 -0.9169 -1.8966  0.2843
 3744SOL    HW212305   5.930   4.610   4.756 -1.4270  1.2492 -0.6352
 3745SOL     OW12306   2.482   4.388   7.752  0.3953 -0.0777  0.8694
 3745SOL    HW112307   2.515   4.362   7.838 -0.0417  0.1367  1.1054
 3745SOL    HW212308   2.560   4.390   7.696  0.7442  0.1889  1.3583
 3746SOL     OW12309   4.069   2.679   5.305 -0.2820  0.6689 -0.0949
 3746SOL    HW112310   4.161   2.679   5.276  0.7409 -2.1337  2.6186
 3746SOL    HW212311   4.026   2.617   5.246  0.5748 -1.0505  1.0071
 3747SOL     OW12312   2.933   5.645   6.949 -0.3346  0.0261 -0.1283
 3747SOL    HW112313   3.006   5.694   6.911 -1.6469  0.9688 -1.5404
 3747SOL    HW212314   2.965   5.555   6.955  0.5786  0.2096 -1.7579
 3748SOL     OW12315   2.131   3.075   3.245 -0.1994  0.0888  0.2407
 3748SOL    HW112316   2.189   3.061   3.170  0.0916 -0.9190  0.6362
 3748SOL    HW212317   2.177   3.033   3.318 -1.6300 -1.1312  0.4776
 3749SOL     OW12318   6.927   7.031   4.997 -0.0672  0.2024  0.8807
 3749SOL    HW112319   6.840   7.069   5.002  0.2368  0.7636  2.4152
 3749SOL    HW212320   6.933   6.974   5.074 -0.0599 -2.0503 -0.7075
 3750SOL     OW12321   1.706   1.844   7.063  0.9667  0.1446  0.0130
 3750SOL    HW112322   1.744   1.818   6.979 -1.5183 -1.2740 -0.7672
 3750SOL    HW212323   1.717   1.767   7.119 -2.0014 -0.9731 -0.7475
 3751SOL     OW12324   1.600   2.283   7.487  0.3649  0.1127  0.4734
 3751SOL    HW112325   1.523   2.228   7.480  1.5346 -1.4697 -0.7124
 3751SOL    HW212326   1.651   2.245   7.559  1.2514 -0.5143 -0.4494
 3752SOL     OW12327   0.259   7.972   0.584  0.4443  0.0201  0.5064
 3752SOL    HW112328   0.289   7.894   0.536 -0.1866 -0.5855  1.0653
 3752SOL    HW212329   0.164   7.970   0.575  0.1284 -1.0211  3.0638
 3753SOL     OW12330   5.262   0.631   6.824 -0.1212  0.0218  0.3570
 3753SOL    HW112331   5.258   0.599   6.734 -2.2543 -1.1014  0.7800
 3753SOL    HW212332   5.197   0.579   6.870 -0.3898  1.8459  2.1626
 3754SOL     OW12333   3.030   7.020   3.198 -0.2432 -0.0271  0.5590
 3754SOL    HW112334   2.951   7.070   3.176 -0.8722 -1.6400 -1.0806
 3754SOL    HW212335   3.020   6.937   3.151  2.2352 -0.4581  0.6626
 3755SOL     OW12336   8.112   6.662   2.421  0.1813  0.3934 -0.0611
 3755SOL    HW112337   8.139   6.677   2.331  1.5952 -0.2865  0.2189
 3755SOL    HW212338   8.081   6.748   2.451 -1.1999  0.4270 -1.4430
 3756SOL     OW12339   2.348   3.867   0.593 -0.1174  0.0016 -0.1910
 3756SOL    HW112340   2.369   3.784   0.636 -0.6469  0.3189  0.7178
 3756SOL    HW212341   2.254   3.863   0.578 -0.2172  0.5987  0.2405
 3757SOL     OW12342   6.115   2.361   5.887  0.0308 -0.0710 -0.3582
 3757SOL    HW112343   6.051   2.426   5.856  0.4024 -0.0083 -0.9996
 3757SOL    HW212344   6.195   2.411   5.899  0.1614 -0.2987 -0.2951
 3758SOL     OW12345   4.441   2.742   6.332  0.4361  0.2912 -0.0975
 3758SOL    HW112346   4.421   2.759   6.424  2.2276  0.0817  0.3719
 3758SOL    HW212347   4.500   2.666   6.334  0.5197  0.2946 -1.4185
 3759SOL     OW12348   6.748   7.516   3.897 -0.3822  0.5676  0.4784
 3759SOL    HW112349   6.660   7.493   3.868 -0.0362  1.8879 -1.9139
 3759SOL    HW212350   6.796   7.433   3.900 -1.3411  0.0062  0.4871
 3760SOL     OW12351   6.710   6.393   2.965 -0.2239  0.0632 -0.1932
 3760SOL    HW112352   6.793   6.348   2.979  0.8784  2.5760  2.3000
 3760SOL    HW212353   6.732   6.468   2.910 -0.4760  1.4730  1.5371
 3761SOL     OW12354   3.885   5.423   7.936  0.4055  0.2109  0.2659
 3761SOL    HW112355   3.830   5.457   8.006 -0.6177 -0.1280 -0.3544
 3761SOL    HW212356   3.966   5.473   7.943  0.1609  0.4880  1.4090
 3762SOL     OW12357   7.043   7.091   2.766  0.2699 -0.1009 -0.2688
 3762SOL    HW112358   7.035   7.175   2.811  0.6053  0.1277 -0.6312
 3762SOL    HW212359   6.981   7.098   2.693  1.3765  0.4276 -1.1910
 3763SOL     OW12360   0.894   1.264   6.810  0.0231  0.1396  0.5057
 3763SOL    HW112361   0.927   1.276   6.721 -0.0846  2.3776  0.7161
 3763SOL    HW212362   0.971   1.273   6.866 -0.2627  1.1847  0.7527
 3764SOL     OW12363   6.124   4.970   2.849  0.0345 -0.2536  0.0924
 3764SOL    HW112364   6.173   4.994   2.928  0.6685 -2.2485  0.3699
 3764SOL    HW212365   6.045   5.023   2.853  0.0818 -0.2493  2.0545
 3765SOL     OW12366   0.512   1.367   7.214 -0.1586 -0.0140 -0.1495
 3765SOL    HW112367   0.524   1.421   7.292  0.6362 -2.1059  1.2279
 3765SOL    HW212368   0.600   1.344   7.186 -0.4688 -0.1356 -1.0875
 3766SOL     OW12369   1.325   3.352   6.212 -0.1163  0.2361  0.0982
 3766SOL    HW112370   1.413   3.386   6.197  0.0038 -0.2956 -0.4359
 3766SOL    HW212371   1.338   3.262   6.241 -0.5017 -0.3620 -1.4516
 3767SOL     OW12372   4.834   4.287   8.122  0.1811 -0.4091 -0.4512
 3767SOL    HW112373   4.747   4.327   8.132 -0.1244 -0.9249 -0.9849
 3767SOL    HW212374   4.818   4.193   8.133  0.6611 -0.5099 -0.6259
 3768SOL     OW12375   4.885   5.172   1.351  0.0322 -0.4827  0.3820
 3768SOL    HW112376   4.807   5.153   1.298 -0.8730 -0.1634  1.5782
 3768SOL    HW212377   4.951   5.197   1.286 -1.1419  0.2258 -0.5994
 3769SOL     OW12378   5.309   5.489   2.293 -0.4734  0.3940 -0.0898
 3769SOL    HW112379   5.341   5.524   2.376 -0.3900 -0.1088  0.0959
 3769SOL    HW212380   5.221   5.526   2.284 -1.2719 -1.0654  1.1951
 3770SOL     OW12381   5.493   0.087   0.097  0.3409  0.0135 -0.4315
 3770SOL    HW112382   5.513   0.139   0.019 -0.3434  0.0090 -0.6180
 3770SOL    HW212383   5.397   0.084   0.100  0.3594 -0.1227  0.3182
 3771SOL     OW12384   7.220   4.767   0.158 -0.1655 -0.0796 -0.0041
 3771SOL    HW112385   7.177   4.778   0.074 -0.3029 -0.6867 -0.0218
 3771SOL    HW212386   7.303   4.724   0.138  1.1551  2.3254 -0.1256
 3772SOL     OW12387   2.216   3.410   0.743  0.4679  0.6067  0.0513
 3772SOL    HW112388   2.137   3.372   0.782 -0.5841  1.8337 -0.7862
 3772SOL    HW212389   2.223   3.368   0.658  0.4639  0.8087 -0.0497
 3773SOL     OW12390   5.296   3.726   6.539  0.3023 -0.9136  0.1554
 3773SOL    HW112391   5.259   3.638   6.551 -0.7635 -0.6529 -1.0369
 3773SOL    HW212392   5.219   3.784   6.536  1.0105  0.3975  3.0600
 3774SOL     OW12393   4.571   6.211   5.675 -0.7971  0.5920  0.6878
 3774SOL    HW112394   4.604   6.299   5.695 -0.0311  0.1237  1.5561
 3774SOL    HW212395   4.535   6.219   5.586  2.1257  1.0309 -0.5982
 3775SOL     OW12396   3.799   1.762   3.638 -0.1078  0.4592  0.2019
 3775SOL    HW112397   3.769   1.676   3.611  0.7071  0.0061  0.6899
 3775SOL    HW212398   3.818   1.753   3.732  0.8080  0.9208  0.0758
 3776SOL     OW12399   2.049   3.105   7.322  0.4520  0.2428 -0.4103
 3776SOL    HW112400   1.986   3.034   7.305  1.7323 -1.2302  0.6829
 3776SOL    HW212401   2.021   3.142   7.405  0.6108  0.0566 -0.2729
 3777SOL     OW12402   4.471   4.500   6.627  0.3413 -0.1881  0.1578
 3777SOL    HW112403   4.454   4.471   6.716 -0.9889 -3.1775 -0.9322
 3777SOL    HW212404   4.507   4.423   6.583 -0.3202  0.7588 -2.2158
 3778SOL     OW12405   7.613   1.374   1.877 -0.2134  0.3060 -0.5202
 3778SOL    HW112406   7.543   1.356   1.814 -0.2810  1.6294 -0.8672
 3778SOL    HW212407   7.570   1.427   1.945  0.1584 -0.0010 -0.0424
 3779SOL     OW12408   7.404   0.404   0.266  0.1157 -0.9276 -0.2159
 3779SOL    HW112409   7.498   0.422   0.267 -0.2577  1.1913  0.1566
 3779SOL    HW212410   7.389   0.354   0.347  0.8316 -0.7286  0.0535
 3780SOL     OW12411   7.254   3.023   2.676 -0.2420 -0.5651 -0.0027
 3780SOL    HW112412   7.171   3.032   2.725  0.0476 -2.1786  0.8695
 3780SOL    HW212413   7.233   3.055   2.588 -1.6549 -0.4199  0.3498
 3781SOL     OW12414   4.577   4.122   3.380 -0.5519  0.0594  0.1538
 3781SOL    HW112415   4.571   4.191   3.446  2.3459  1.3150 -0.7492
 3781SOL    HW212416   4.574   4.168   3.296 -2.0118 -1.3031 -0.5911
 3782SOL     OW12417   7.685   0.869   1.537 -0.3663  0.2063 -0.2072
 3782SOL    HW112418   7.756   0.821   1.581 -0.7416  1.1829  1.5576
 3782SOL    HW212419   7.607   0.850   1.590 -0.3971  3.2361  1.0256
 3783SOL     OW12420   3.663   7.904   7.112 -0.3008  0.2557 -0.1896
 3783SOL    HW112421   3.730   7.966   7.141  0.2228 -0.7644  0.8443
 3783SOL    HW212422   3.634   7.939   7.028  2.1111  0.2954 -1.0990
 3784SOL     OW12423   5.887   3.259   1.235  0.0889 -0.3034 -0.1024
 3784SOL    HW112424   5.905   3.353   1.241  1.4705 -0.4871 -0.9559
 3784SOL    HW212425   5.857   3.235   1.323  1.0042  0.6810  0.5078
 3785SOL     OW12426   3.302   4.494   2.979 -0.4129 -0.4469 -0.4117
 3785SOL    HW112427   3.397   4.485   2.983 -0.3061 -0.6041 -2.5226
 3785SOL    HW212428   3.269   4.409   3.006 -0.0561  0.0688  1.8889
 3786SOL     OW12429   5.180   7.266   4.268 -0.1800 -0.3055  0.1809
 3786SOL    HW112430   5.154   7.197   4.329  1.7200 -0.2432  1.1292
 3786SOL    HW212431   5.139   7.345   4.303 -0.6476 -0.5911  0.2929
 3787SOL     OW12432   3.338   3.832   7.235  0.3326 -0.1667 -0.0380
 3787SOL    HW112433   3.335   3.833   7.139 -1.2649  0.4711 -0.0129
 3787SOL    HW212434   3.247   3.840   7.262  0.8443  0.9103  1.5402
 3788SOL     OW12435   2.769   7.487   7.211 -0.0912  0.2790  0.2089
 3788SOL    HW112436   2.849   7.465   7.162 -0.1738 -0.1401  0.2570
 3788SOL    HW212437   2.774   7.433   7.290  0.0380  0.9520  0.6598
 3789SOL     OW12438   5.894   5.454   3.087  0.2468  0.3308  0.1080
 3789SOL    HW112439   5.892   5.435   2.993 -0.1354  1.2819 -0.0889
 3789SOL    HW212440   5.959   5.523   3.096  1.3921 -0.7819  0.7651
 3790SOL     OW12441   4.392   0.353   1.531  0.4502 -0.4837  0.0414
 3790SOL    HW112442   4.404   0.389   1.444 -1.7676  1.0684  0.3199
 3790SOL    HW212443   4.377   0.259   1.516  0.5535 -0.3206 -1.1882
 3791SOL     OW12444   6.441   5.757   7.545 -0.4080  0.4383 -0.3052
 3791SOL    HW112445   6.389   5.704   7.485 -0.2175  0.4330 -0.4657
 3791SOL    HW212446   6.488   5.693   7.598 -1.2134  0.4304  0.4172
 3792SOL     OW12447   3.047   0.170   2.807  0.2562  0.1207  0.0454
 3792SOL    HW112448   3.077   0.144   2.894 -0.1307 -0.2612  0.0688
 3792SOL    HW212449   3.121   0.153   2.749  0.0287 -1.0384  0.0622
 3793SOL     OW12450   3.221   0.410   7.504 -0.2419 -0.4445  0.3660
 3793SOL    HW112451   3.145   0.353   7.493 -0.6895 -0.1383  1.6683
 3793SOL    HW212452   3.189   0.482   7.558  0.6761  0.3250 -0.0801
 3794SOL     OW12453   8.092   5.537   3.797 -0.4799  0.3499 -1.0637
 3794SOL    HW112454   8.139   5.469   3.749 -0.8937 -0.2623 -0.6130
 3794SOL    HW212455   8.156   5.608   3.807  0.1792 -0.2589 -0.9178
 3795SOL     OW12456   1.021   4.868   4.453 -0.7658  0.1353 -0.3157
 3795SOL    HW112457   1.065   4.913   4.525 -2.4920  1.4359 -0.0107
 3795SOL    HW212458   1.062   4.781   4.451  0.0721  0.4361  1.5339
 3796SOL     OW12459   1.367   3.043   4.613  0.1763 -0.0909  0.0560
 3796SOL    HW112460   1.352   3.063   4.521  1.0307 -0.3019 -0.1401
 3796SOL    HW212461   1.300   2.978   4.635  0.5198 -0.7095 -0.6647
 3797SOL     OW12462   4.041   3.048   1.253  0.1110 -0.0754  0.1132
 3797SOL    HW112463   4.091   3.098   1.317 -1.6453  0.5198  1.0757
 3797SOL    HW212464   4.047   2.958   1.284  0.5365 -0.0126  0.2307
 3798SOL     OW12465   6.010   4.568   1.340  0.0194  0.2209 -0.4382
 3798SOL    HW112466   5.995   4.617   1.259 -0.9167 -0.0913 -0.4614
 3798SOL    HW212467   5.926   4.569   1.384  0.7210  1.1115  0.9536
 3799SOL     OW12468   6.414   2.270   1.898  0.4061 -0.6927 -0.2172
 3799SOL    HW112469   6.448   2.357   1.917 -1.4083 -0.0380  0.2203
 3799SOL    HW212470   6.435   2.219   1.976  2.3094 -0.9634 -0.8456
 3800SOL     OW12471   0.009   2.618   1.727 -0.6666  0.2641 -0.6634
 3800SOL    HW112472   0.002   2.612   1.823 -0.1951 -0.7059 -0.6760
 3800SOL    HW212473   0.071   2.690   1.712 -0.2389 -0.0046 -0.2174
 3801SOL     OW12474   0.896   4.831   6.997  0.0598  0.2262  0.7740
 3801SOL    HW112475   0.810   4.874   6.997 -0.4616 -0.7511 -0.5301
 3801SOL    HW212476   0.876   4.738   6.988  1.2863  0.1485 -2.0293
 3802SOL     OW12477   0.154   0.355   0.866  0.4283  0.5440 -0.1542
 3802SOL    HW112478   0.246   0.336   0.845  1.0996  2.7045  0.4867
 3802SOL    HW212479   0.128   0.420   0.801  0.7071  2.9798  2.0235
 3803SOL     OW12480   1.426   7.831   4.748  0.1365  0.1186  0.0025
 3803SOL    HW112481   1.414   7.922   4.723  0.0271  0.3244  0.7853
 3803SOL    HW212482   1.357   7.814   4.813 -1.2735 -1.1662 -1.7335
 3804SOL     OW12483   6.364   7.741   4.497 -0.4329  0.0894  0.2617
 3804SOL    HW112484   6.455   7.747   4.467 -0.3853  0.7078  0.5179
 3804SOL    HW212485   6.313   7.788   4.431 -0.7811 -1.6161 -0.7356
 3805SOL     OW12486   2.636   5.090   7.172  0.2855 -0.5155 -0.0638
 3805SOL    HW112487   2.576   5.156   7.206  2.6100  1.8181 -0.1625
 3805SOL    HW212488   2.720   5.109   7.214  1.2089 -3.0747 -0.5648
 3806SOL     OW12489   3.241   2.065   1.172 -0.3156 -0.1973 -0.0507
 3806SOL    HW112490   3.333   2.072   1.197 -0.4348 -0.3313  0.4258
 3806SOL    HW212491   3.237   2.104   1.084  0.4676 -1.5419 -0.7155
 3807SOL     OW12492   2.267   4.807   0.613 -0.5937 -0.1296  0.0543
 3807SOL    HW112493   2.230   4.877   0.559 -0.5464 -0.8177 -0.8938
 3807SOL    HW212494   2.249   4.727   0.564  0.8545 -0.6238  0.2808
 3808SOL     OW12495   6.665   1.216   0.115 -0.1628 -0.1587  0.1014
 3808SOL    HW112496   6.756   1.201   0.142  0.8293  1.0504 -2.3456
 3808SOL    HW212497   6.643   1.140   0.060 -0.6441 -0.4097  0.6231
 3809SOL     OW12498   1.203   1.317   2.444 -0.3979 -0.8045 -0.2009
 3809SOL    HW112499   1.236   1.283   2.528 -0.3370 -1.1628 -0.3700
 3809SOL    HW212500   1.276   1.369   2.410 -1.7336  2.7813  1.8533
 3810SOL     OW12501   1.594   2.232   5.410 -0.1394 -0.4769  0.2601
 3810SOL    HW112502   1.624   2.306   5.463  1.2950 -1.9362  1.6135
 3810SOL    HW212503   1.600   2.262   5.320  0.0392  1.1689  0.7927
 3811SOL     OW12504   2.571   4.467   8.024  0.2754  0.6780 -0.5041
 3811SOL    HW112505   2.640   4.451   8.088  1.7154 -0.9236 -2.3536
 3811SOL    HW212506   2.493   4.426   8.063  0.6641  1.2476  0.9554
 3812SOL     OW12507   0.455   1.669   0.188 -0.4556 -0.1164 -0.3976
 3812SOL    HW112508   0.546   1.686   0.166 -0.1391  0.4093  1.2181
 3812SOL    HW212509   0.429   1.599   0.128  1.0717 -0.4608 -0.7001
 3813SOL     OW12510   4.167   1.530   3.904  0.1168 -0.0300 -0.0742
 3813SOL    HW112511   4.087   1.573   3.935 -0.6138 -1.0836 -0.4171
 3813SOL    HW212512   4.136   1.446   3.869  1.2023  0.1140 -1.4577
 3814SOL     OW12513   7.307   0.578   2.023  0.6879  0.6118 -0.1408
 3814SOL    HW112514   7.246   0.509   1.997  0.8142  0.4062  0.1138
 3814SOL    HW212515   7.366   0.586   1.948 -0.0813  1.3130 -0.6940
 3815SOL     OW12516   5.155   3.286   5.238  0.2460  0.2116  0.3281
 3815SOL    HW112517   5.087   3.277   5.305 -1.1766 -1.0919 -1.1913
 3815SOL    HW212518   5.181   3.378   5.242 -2.0506  0.9179  0.5826
 3816SOL     OW12519   3.882   4.356   1.495 -0.6640  0.2763 -0.4402
 3816SOL    HW112520   3.892   4.363   1.400 -3.1643  0.4713 -0.7765
 3816SOL    HW212521   3.839   4.438   1.521  1.1306  0.8117  1.1161
 3817SOL     OW12522   7.140   2.295   1.719 -0.2726  0.1122  0.2891
 3817SOL    HW112523   7.123   2.206   1.690  0.3917 -0.1086  0.5670
 3817SOL    HW212524   7.236   2.304   1.714 -0.2312  0.4042  1.4208
 3818SOL     OW12525   5.168   1.247   4.084 -0.1876 -0.1247  0.1605
 3818SOL    HW112526   5.076   1.237   4.105 -0.5714  1.7524 -0.4079
 3818SOL    HW212527   5.175   1.222   3.992 -0.1038 -0.3484  0.2264
 3819SOL     OW12528   4.201   5.999   3.527  0.2966 -0.4186  0.7250
 3819SOL    HW112529   4.246   5.921   3.559  1.2846 -0.3072 -0.3202
 3819SOL    HW212530   4.119   5.967   3.490  0.3483 -0.8640  0.9906
 3820SOL     OW12531   7.447   4.822   5.959  0.1486 -0.4489 -0.0037
 3820SOL    HW112532   7.508   4.764   5.912 -1.9374 -2.7530 -0.1018
 3820SOL    HW212533   7.434   4.779   6.043 -3.3019 -1.5706 -0.9755
 3821SOL     OW12534   0.439   6.010   3.157  0.6487  0.6107  0.2539
 3821SOL    HW112535   0.408   6.073   3.222  0.8399  0.4061  0.5500
 3821SOL    HW212536   0.456   6.062   3.079 -0.5290  0.7151  0.0466
 3822SOL     OW12537   8.116   6.385   2.119 -0.2034  0.1673  0.0883
 3822SOL    HW112538   8.102   6.355   2.209 -0.0596 -1.3282 -0.3563
 3822SOL    HW212539   8.192   6.335   2.089 -1.3647 -0.7707 -1.4542
 3823SOL     OW12540   0.166   0.526   7.190 -0.3891  0.0326 -0.1426
 3823SOL    HW112541   0.252   0.526   7.231 -0.9360  1.0247  1.0456
 3823SOL    HW212542   0.105   0.505   7.260 -1.1756 -0.1716 -0.8652
 3824SOL     OW12543   0.175   1.127   2.268 -0.0059  0.4556 -0.6003
 3824SOL    HW112544   0.209   1.194   2.328  0.1536  0.1291 -0.3216
 3824SOL    HW212545   0.156   1.052   2.325  2.0216 -0.5935 -1.2001
 3825SOL     OW12546   1.673   0.951   5.572  0.1608  0.6772 -0.1326
 3825SOL    HW112547   1.752   0.959   5.518  0.0334  1.0776 -0.2623
 3825SOL    HW212548   1.601   0.972   5.513 -0.0989 -0.2882 -0.1748
 3826SOL     OW12549   0.385   0.685   4.676  0.3079  0.2475 -0.5121
 3826SOL    HW112550   0.300   0.726   4.668  0.0365  0.0156  0.9027
 3826SOL    HW212551   0.420   0.684   4.587 -1.3126  0.0014 -1.1743
 3827SOL     OW12552   6.228   3.956   2.725 -0.5822  0.1187  0.1082
 3827SOL    HW112553   6.257   4.029   2.672 -1.4455  1.1101  0.9469
 3827SOL    HW212554   6.134   3.950   2.709 -1.2803  1.7318  2.9288
 3828SOL     OW12555   4.486   3.724   4.684  0.4283  0.2087 -0.0043
 3828SOL    HW112556   4.577   3.703   4.666  0.8707  0.7734  1.4202
 3828SOL    HW212557   4.437   3.686   4.611  1.7176 -0.8290 -0.3634
 3829SOL     OW12558   3.183   1.744   7.064 -0.0610  0.1435  0.2533
 3829SOL    HW112559   3.248   1.745   6.994 -0.8107 -1.0468 -0.4865
 3829SOL    HW212560   3.172   1.836   7.088  0.0686  0.5896 -1.3228
 3830SOL     OW12561   4.389   3.484   4.091 -0.2058 -0.5074 -0.2552
 3830SOL    HW112562   4.320   3.462   4.154 -0.1578  1.4124  0.5359
 3830SOL    HW212563   4.355   3.455   4.006 -1.1171 -1.3691  0.3891
 3831SOL     OW12564   5.382   3.983   7.771  0.4724 -0.3667 -0.2718
 3831SOL    HW112565   5.403   3.889   7.767  0.0674 -0.5211  0.8080
 3831SOL    HW212566   5.467   4.027   7.760  0.9016 -0.9049  0.7211
 3832SOL     OW12567   3.990   4.245   5.476 -0.0438 -0.5256  0.4712
 3832SOL    HW112568   3.900   4.277   5.484  0.2415  1.2381 -2.1454
 3832SOL    HW212569   3.988   4.186   5.401  1.0519 -0.1317  0.1114
 3833SOL     OW12570   0.550   5.380   6.055 -0.4467  0.1256 -0.1472
 3833SOL    HW112571   0.597   5.307   6.094 -0.5832  0.2818  0.3135
 3833SOL    HW212572   0.497   5.340   5.986  0.6010 -0.0069 -0.8969
 3834SOL     OW12573   2.333   6.355   2.596  0.0760  0.6317  0.7831
 3834SOL    HW112574   2.368   6.323   2.513  1.0331  1.7518  0.7281
 3834SOL    HW212575   2.341   6.281   2.656  0.7635  0.2711  0.2552
 3835SOL     OW12576   3.755   5.536   1.355 -0.7790 -0.4288  0.4053
 3835SOL    HW112577   3.706   5.617   1.337 -0.3032  0.0222  1.0682
 3835SOL    HW212578   3.835   5.545   1.304 -1.9979 -1.8821 -1.9461
 3836SOL     OW12579   4.535   0.456   6.776 -0.0169  0.1097 -0.0983
 3836SOL    HW112580   4.530   0.446   6.681  0.6738 -2.2926  0.0549
 3836SOL    HW212581   4.598   0.526   6.789 -1.2744  1.5739 -1.3781
 3837SOL     OW12582   6.608   6.267   5.985  0.3989  0.4526 -0.6391
 3837SOL    HW112583   6.638   6.183   5.950  1.5090  0.0652  1.1141
 3837SOL    HW212584   6.520   6.248   6.019  1.3542 -0.5720  1.4633
 3838SOL     OW12585   4.750   0.965   2.927 -0.0759  0.1385 -0.2528
 3838SOL    HW112586   4.805   0.941   3.001  0.4979  1.1707 -0.3262
 3838SOL    HW212587   4.695   0.887   2.911  1.4285 -0.9647 -0.2511
 3839SOL     OW12588   1.415   5.741   4.225  0.2838 -0.2797 -0.1290
 3839SOL    HW112589   1.467   5.770   4.301 -0.2227 -0.7627  0.4141
 3839SOL    HW212590   1.480   5.722   4.158  0.7976 -0.6169  0.4484
 3840SOL     OW12591   6.595   0.923   6.106 -0.0231  0.2351  0.1214
 3840SOL    HW112592   6.558   0.841   6.139  0.8009  0.7035  2.4413
 3840SOL    HW212593   6.607   0.908   6.012  0.3018 -2.3804  0.4964
 3841SOL     OW12594   2.761   1.107   5.127 -0.2218 -0.3210  0.0181
 3841SOL    HW112595   2.846   1.068   5.149 -1.2898 -1.5306  2.3509
 3841SOL    HW212596   2.743   1.075   5.038  0.8919 -1.6454  0.2261
 3842SOL     OW12597   4.512   0.502   3.362 -0.1167 -0.2445 -0.6722
 3842SOL    HW112598   4.593   0.467   3.399 -0.7958 -0.3170  0.8193
 3842SOL    HW212599   4.446   0.436   3.383 -0.9958  0.8688  0.1738
 3843SOL     OW12600   6.693   6.927   0.640 -0.3203 -0.0767  0.2154
 3843SOL    HW112601   6.621   6.974   0.681 -0.2072  0.3086 -0.0223
 3843SOL    HW212602   6.768   6.986   0.646 -0.0516 -0.4307  0.3616
 3844SOL     OW12603   3.799   3.257   3.404 -0.7129 -0.0463  0.0634
 3844SOL    HW112604   3.705   3.247   3.416 -0.8496 -0.5499 -1.2871
 3844SOL    HW212605   3.822   3.334   3.457 -2.1066  0.8730 -0.5983
 3845SOL     OW12606   6.686   6.029   1.512 -0.3091 -0.3525 -0.0434
 3845SOL    HW112607   6.602   6.073   1.498 -1.2835 -1.3440  2.1265
 3845SOL    HW212608   6.693   6.021   1.608  1.1408 -2.3803 -0.2514
 3846SOL     OW12609   4.163   3.018   3.169 -0.1181 -0.1718  0.0013
 3846SOL    HW112610   4.234   2.955   3.160 -0.4210 -0.9578  2.4128
 3846SOL    HW212611   4.089   2.979   3.122  0.5592 -0.1539 -1.0835
 3847SOL     OW12612   4.807   2.421   6.201  0.2385  0.1042  0.4990
 3847SOL    HW112613   4.878   2.439   6.140 -0.9403 -1.4813 -1.4748
 3847SOL    HW212614   4.729   2.455   6.158 -0.6321 -1.0392  1.1174
 3848SOL     OW12615   2.438   5.002   2.553  0.3925  0.2888  0.2185
 3848SOL    HW112616   2.492   5.069   2.510 -0.2473  0.7204  0.0843
 3848SOL    HW212617   2.463   5.008   2.645  0.1391  0.8980  0.2484
 3849SOL     OW12618   4.664   2.780   0.671 -0.0458 -0.0897 -0.7611
 3849SOL    HW112619   4.758   2.782   0.690 -0.2384  0.9380  0.1751
 3849SOL    HW212620   4.637   2.872   0.677 -1.2500 -0.4601 -0.3175
 3850SOL     OW12621   7.674   6.300   0.845 -0.0478 -0.0531 -0.0706
 3850SOL    HW112622   7.605   6.308   0.911 -0.5063 -1.3740 -0.3596
 3850SOL    HW212623   7.750   6.268   0.894 -0.5635 -1.6301 -0.2501
 3851SOL     OW12624   4.092   1.437   5.511 -0.9255 -0.5356  0.2389
 3851SOL    HW112625   4.005   1.435   5.551 -0.3596  0.6477  1.5974
 3851SOL    HW212626   4.138   1.508   5.556  0.5336 -0.6929 -0.9179
 3852SOL     OW12627   6.283   1.845   1.953  0.4693 -0.1873  0.2142
 3852SOL    HW112628   6.239   1.930   1.963  0.9724  0.2144 -0.8504
 3852SOL    HW212629   6.212   1.785   1.930  0.4836  0.6185 -2.3094
 3853SOL     OW12630   5.716   6.004   5.889 -0.0505  0.1914 -0.2894
 3853SOL    HW112631   5.698   6.096   5.911 -0.3780 -0.0836  0.6056
 3853SOL    HW212632   5.781   5.976   5.954 -1.0312 -0.6306  0.3675
 3854SOL     OW12633   0.798   2.950   4.156  0.1992  0.6575  0.3784
 3854SOL    HW112634   0.890   2.967   4.134  0.5659 -0.7711  0.7089
 3854SOL    HW212635   0.766   2.893   4.086  0.2020 -0.5876  1.3401
 3855SOL     OW12636   7.256   6.953   2.598 -0.4483  0.0329 -0.3630
 3855SOL    HW112637   7.254   7.048   2.587  1.7226  0.3612  1.4444
 3855SOL    HW212638   7.273   6.920   2.510 -0.5850  1.3491 -0.9165
 3856SOL     OW12639   4.949   5.066   4.432 -0.4811 -0.0064 -0.6010
 3856SOL    HW112640   5.036   5.104   4.444 -0.2720 -0.2681 -1.2540
 3856SOL    HW212641   4.901   5.133   4.382 -0.8544  0.3941  0.2550
 3857SOL     OW12642   0.757   4.165   1.623 -0.7694 -0.2987 -0.2636
 3857SOL    HW112643   0.773   4.142   1.715  1.4211  0.7178 -0.3230
 3857SOL    HW212644   0.808   4.101   1.573 -0.6485  0.1255 -0.6931
 3858SOL     OW12645   4.311   1.909   2.617  0.2348  0.3145 -0.6209
 3858SOL    HW112646   4.261   1.829   2.635  1.3515 -0.0824  0.9352
 3858SOL    HW212647   4.401   1.887   2.639  0.4304  2.2711  0.9222
 3859SOL     OW12648   4.345   2.206   3.325 -0.2242 -0.6783  0.4130
 3859SOL    HW112649   4.394   2.249   3.255 -0.5299 -0.2360  0.4665
 3859SOL    HW212650   4.255   2.201   3.292 -0.2721 -0.9029  0.5777
 3860SOL     OW12651   1.694   4.477   1.155  0.3788  0.1792  0.2061
 3860SOL    HW112652   1.690   4.570   1.133  1.7065 -0.0468 -1.1227
 3860SOL    HW212653   1.605   4.455   1.184 -0.0850  1.7275  0.0318
 3861SOL     OW12654   6.029   6.899   4.812 -0.5851  0.5195 -0.0019
 3861SOL    HW112655   6.069   6.977   4.850  0.4702 -0.0087 -0.0144
 3861SOL    HW212656   6.087   6.875   4.740 -1.4314  0.2818 -0.6203
 3862SOL     OW12657   5.019   3.664   6.874 -0.1528  0.2959  0.5748
 3862SOL    HW112658   4.927   3.656   6.851  0.2067  0.8938 -1.2537
 3862SOL    HW212659   5.040   3.757   6.859  0.8519  0.0665  0.4258
 3863SOL     OW12660   0.424   7.805   5.623 -0.1137 -0.2781 -0.4880
 3863SOL    HW112661   0.373   7.724   5.631 -0.9621 -0.0738 -3.0057
 3863SOL    HW212662   0.359   7.873   5.606  0.8195  0.4199 -1.3581
 3864SOL     OW12663   8.098   4.301   4.229  0.1690 -0.2835 -0.5467
 3864SOL    HW112664   8.076   4.209   4.218  1.3146 -0.3838 -2.1673
 3864SOL    HW212665   8.080   4.341   4.144  3.1130  0.2388 -1.0243
 3865SOL     OW12666   7.398   1.064   4.243 -0.4444 -0.0682 -0.0067
 3865SOL    HW112667   7.338   1.131   4.210 -2.5109 -1.8740 -0.1085
 3865SOL    HW212668   7.466   1.057   4.175 -0.7060  1.2148 -0.4347
 3866SOL     OW12669   0.069   3.598   5.203 -0.0847  0.2762 -0.0887
 3866SOL    HW112670   0.005   3.577   5.272 -0.3718  0.8057 -0.1909
 3866SOL    HW212671   0.142   3.637   5.250 -0.1562  0.3685 -0.0537
 3867SOL     OW12672   6.527   4.478   4.355  0.0689 -0.5473 -0.4793
 3867SOL    HW112673   6.610   4.525   4.343 -0.6444  0.7244 -0.5421
 3867SOL    HW212674   6.472   4.507   4.282  0.1382 -2.7362 -1.4910
 3868SOL     OW12675   1.510   7.641   7.367  0.0909  0.5073  0.1186
 3868SOL    HW112676   1.439   7.691   7.328  1.5375  1.1396 -1.8718
 3868SOL    HW212677   1.583   7.703   7.375  1.4218 -0.8273 -0.9369
 3869SOL     OW12678   4.705   3.093   2.427 -0.4174  0.5881 -0.1627
 3869SOL    HW112679   4.734   3.029   2.363 -1.6994 -0.3326  0.1558
 3869SOL    HW212680   4.664   3.042   2.497 -0.6318  1.6859  0.5530
 3870SOL     OW12681   3.939   3.342   6.761 -0.4341  0.0102  0.1324
 3870SOL    HW112682   3.994   3.268   6.738  0.4052  0.7222 -0.2251
 3870SOL    HW212683   3.965   3.366   6.850 -0.4030  0.1404  0.0892
 3871SOL     OW12684   3.895   5.613   2.755  0.1943  0.3183 -0.1804
 3871SOL    HW112685   3.939   5.698   2.762  1.6984 -0.4304 -0.2608
 3871SOL    HW212686   3.923   5.566   2.834 -1.9973  0.4714  0.7676
 3872SOL     OW12687   0.783   6.686   5.587 -0.8380  0.5555  0.3544
 3872SOL    HW112688   0.796   6.703   5.680  0.7986  2.1869 -0.1170
 3872SOL    HW212689   0.855   6.627   5.563 -1.8233 -0.6577  0.2938
 3873SOL     OW12690   5.714   0.958   5.115 -0.0328  0.4903 -0.0961
 3873SOL    HW112691   5.794   0.980   5.067 -0.7092  1.5400 -0.7745
 3873SOL    HW212692   5.746   0.915   5.195  1.2178  1.0139 -0.2818
 3874SOL     OW12693   0.478   3.704   5.427  0.2780 -0.3531  0.4323
 3874SOL    HW112694   0.462   3.645   5.354  0.3430  0.1776 -0.0228
 3874SOL    HW212695   0.403   3.692   5.485  0.0044 -0.4619  0.0587
 3875SOL     OW12696   0.716   0.713   5.277 -0.1880 -0.1578 -0.1188
 3875SOL    HW112697   0.622   0.726   5.287 -0.3149 -0.3579 -0.9614
 3875SOL    HW212698   0.739   0.648   5.344 -1.0458 -1.7022 -1.2717
 3876SOL     OW12699   2.130   8.163   4.963 -0.3248 -0.0200 -0.0253
 3876SOL    HW112700   2.056   8.109   4.990  0.1264 -0.9346 -0.5674
 3876SOL    HW212701   2.178   8.181   5.044 -1.7277  1.5341  0.5090
 3877SOL     OW12702   6.246   2.081   2.743  0.5534 -0.1602  0.4196
 3877SOL    HW112703   6.199   2.130   2.676  0.7087 -2.9383 -1.8939
 3877SOL    HW212704   6.305   2.023   2.694  2.3755 -0.7468  3.0504
 3878SOL     OW12705   1.330   6.492   1.595 -0.8240  0.0713  0.4464
 3878SOL    HW112706   1.376   6.464   1.674 -0.4398 -0.0901  0.1675
 3878SOL    HW212707   1.397   6.534   1.541 -0.0651 -3.4018 -1.6358
 3879SOL     OW12708   5.298   3.540   5.476 -0.1943  0.0769 -0.0804
 3879SOL    HW112709   5.278   3.633   5.471  1.1294  0.3305 -2.0018
 3879SOL    HW212710   5.335   3.527   5.563 -0.0911  1.4156  0.0874
 3880SOL     OW12711   2.300   5.591   4.301  0.0823 -0.0326 -0.4621
 3880SOL    HW112712   2.384   5.628   4.275  0.0341 -1.3675 -2.7595
 3880SOL    HW212713   2.241   5.610   4.229 -2.1552  2.2933  1.7692
 3881SOL     OW12714   5.287   0.389   0.182 -0.1022 -0.8084  0.2483
 3881SOL    HW112715   5.231   0.370   0.257 -0.8823 -3.3890 -0.8651
 3881SOL    HW212716   5.358   0.442   0.217 -2.1298  0.7997  2.1106
 3882SOL     OW12717   2.247   3.993   4.926 -0.0214  0.4490 -0.5504
 3882SOL    HW112718   2.302   4.053   4.875  0.1069 -0.3949 -1.4193
 3882SOL    HW212719   2.179   4.050   4.964 -1.1141  0.9234 -2.9835
 3883SOL     OW12720   7.111   8.105   6.982  0.3000 -0.2721 -0.0533
 3883SOL    HW112721   7.165   8.149   6.917  0.9864  1.4559  1.6175
 3883SOL    HW212722   7.173   8.055   7.035  0.0613  0.3991  0.8626
 3884SOL     OW12723   7.213   0.310   2.952 -0.2730  0.2172  0.0985
 3884SOL    HW112724   7.217   0.269   2.866  1.7985  0.9995 -0.2422
 3884SOL    HW212725   7.119   0.316   2.972 -0.7154 -2.1845 -0.9921
 3885SOL     OW12726   4.324   7.973   7.843  0.1770  0.8152  0.1049
 3885SOL    HW112727   4.414   8.001   7.828  0.2407  0.7016  0.2716
 3885SOL    HW212728   4.293   8.028   7.914  0.9761 -0.8727  1.8777
 3886SOL     OW12729   7.832   7.280   0.245  0.0729  0.0673 -0.2202
 3886SOL    HW112730   7.838   7.345   0.315 -2.2969  0.3791 -0.2165
 3886SOL    HW212731   7.896   7.213   0.268  1.6207  1.7134  0.5079
 3887SOL     OW12732   2.198   7.362   3.188 -0.0672 -0.1927 -0.6230
 3887SOL    HW112733   2.241   7.417   3.121 -0.3272 -0.3812 -0.9487
 3887SOL    HW212734   2.174   7.424   3.257  1.8247 -0.2540  0.1572
 3888SOL     OW12735   5.055   5.644   0.439 -0.4363  0.3972 -0.0308
 3888SOL    HW112736   5.032   5.686   0.356  0.4247 -1.4451 -1.2612
 3888SOL    HW212737   5.150   5.635   0.436 -0.3873  0.3086  1.1934
 3889SOL     OW12738   5.569   4.796   2.444 -0.5134  0.1815 -0.4386
 3889SOL    HW112739   5.576   4.722   2.384  1.5344 -0.4084  0.4385
 3889SOL    HW212740   5.587   4.873   2.390 -0.8353 -0.1292 -0.9919
 3890SOL     OW12741   0.092   7.312   4.272  0.1447 -0.1170 -0.5672
 3890SOL    HW112742   0.037   7.257   4.327  1.6370  0.0807  1.2410
 3890SOL    HW212743   0.150   7.250   4.227 -0.5186 -0.2296 -1.2705
 3891SOL     OW12744   6.193   6.958   0.337  0.1422  0.0490  0.1473
 3891SOL    HW112745   6.211   6.989   0.426  1.2831 -1.8238  0.6267
 3891SOL    HW212746   6.104   6.925   0.341  0.8797 -1.9885  1.2496
 3892SOL     OW12747   3.232   2.770   8.152 -0.3137 -0.1987 -0.2873
 3892SOL    HW112748   3.174   2.706   8.193  0.2451 -0.8273 -0.4657
 3892SOL    HW212749   3.271   2.816   8.226  0.4969 -1.1559 -0.0966
 3893SOL     OW12750   0.812   0.074   3.846  0.6433  0.4208 -0.5846
 3893SOL    HW112751   0.739   0.012   3.836 -0.4444  1.1904  1.8159
 3893SOL    HW212752   0.877   0.025   3.896  1.1528  0.2332 -1.4133
 3894SOL     OW12753   7.833   3.167   5.058 -0.3783  0.0565  0.1287
 3894SOL    HW112754   7.926   3.175   5.080 -0.7095 -0.3719  1.8154
 3894SOL    HW212755   7.831   3.173   4.962  1.3243  0.5626  0.0848
 3895SOL     OW12756   5.079   2.004   7.020 -0.2082 -0.4832 -0.5705
 3895SOL    HW112757   5.019   2.004   6.945  0.8646  0.7514 -1.5040
 3895SOL    HW212758   5.081   1.914   7.050 -1.8154 -0.7159 -1.0792
 3896SOL     OW12759   2.718   1.744   7.370 -0.0392 -0.3436 -0.4839
 3896SOL    HW112760   2.814   1.744   7.367 -0.0532 -0.6346 -2.2966
 3896SOL    HW212761   2.694   1.836   7.354 -0.0555 -0.3279 -0.3648
 3897SOL     OW12762   0.843   0.494   7.648  0.2300 -0.3522 -0.0135
 3897SOL    HW112763   0.876   0.502   7.559 -1.4531 -0.4411 -0.6829
 3897SOL    HW212764   0.827   0.584   7.677 -1.8309 -0.4060 -0.8646
 3898SOL     OW12765   6.334   0.452   6.645 -0.6250 -0.3549 -0.0153
 3898SOL    HW112766   6.314   0.360   6.626 -1.6141 -0.2870  0.6437
 3898SOL    HW212767   6.415   0.449   6.696 -1.0208 -0.9186  0.5993
 3899SOL     OW12768   4.891   3.841   1.142  0.4506 -0.1471 -0.2938
 3899SOL    HW112769   4.863   3.873   1.228  2.1323  0.6976 -0.0068
 3899SOL    HW212770   4.965   3.898   1.119  0.6665 -1.0100 -1.8518
 3900SOL     OW12771   4.593   6.149   4.324  0.8981  0.6555 -0.6284
 3900SOL    HW112772   4.617   6.153   4.231  0.8848 -1.7603 -0.8148
 3900SOL    HW212773   4.501   6.176   4.327  1.6897  3.6851 -0.8251
 3901SOL     OW12774   0.679   7.014   1.077 -0.4126 -1.0870 -0.4014
 3901SOL    HW112775   0.665   7.084   1.142  0.1588 -2.3718  1.1670
 3901SOL    HW212776   0.594   6.970   1.072 -0.6092 -0.6627 -0.9614
 3902SOL     OW12777   4.960   0.777   5.818  1.2107  0.0181 -0.0117
 3902SOL    HW112778   4.951   0.722   5.740 -1.3209 -2.4561  1.7836
 3902SOL    HW212779   4.960   0.714   5.891 -0.8738  2.3220  2.1561
 3903SOL     OW12780   4.118   4.088   5.676  0.4395 -0.6338  0.4372
 3903SOL    HW112781   4.088   4.147   5.606 -0.0250 -1.2778  0.0721
 3903SOL    HW212782   4.039   4.070   5.726  0.7423 -0.3126  1.0350
 3904SOL     OW12783   1.061   8.086   0.397 -0.0161  0.5312 -0.1398
 3904SOL    HW112784   1.008   8.111   0.473  0.2286 -1.9360  0.9549
 3904SOL    HW212785   1.007   8.109   0.322 -1.6467  0.2756  0.8856
 3905SOL     OW12786   6.921   1.489   2.972 -0.5296 -0.2544 -0.0303
 3905SOL    HW112787   6.980   1.444   3.033 -1.5792  1.4905  2.4708
 3905SOL    HW212788   6.977   1.551   2.926  0.1516 -1.0564 -0.3227
 3906SOL     OW12789   5.156   0.610   7.927  0.4370  0.1524 -0.1292
 3906SOL    HW112790   5.241   0.569   7.945 -0.6016 -2.7648 -1.2313
 3906SOL    HW212791   5.173   0.670   7.855  1.6914  0.1260  0.1161
 3907SOL     OW12792   4.865   6.753   3.640  0.4081 -0.2397  0.0616
 3907SOL    HW112793   4.837   6.844   3.651 -0.6357 -0.7627  2.1266
 3907SOL    HW212794   4.787   6.701   3.658  0.5145 -1.5797 -2.8427
 3908SOL     OW12795   2.502   6.553   2.579  0.5194  0.3702  0.6257
 3908SOL    HW112796   2.545   6.552   2.664 -0.1741 -0.6772  0.9722
 3908SOL    HW212797   2.440   6.481   2.581 -0.8030  1.4276 -0.1122
 3909SOL     OW12798   2.971   3.177   0.146  0.6359  0.6499  0.2705
 3909SOL    HW112799   2.981   3.086   0.118 -0.6737  0.6340 -0.2087
 3909SOL    HW212800   3.049   3.221   0.111  0.2346  0.1270 -1.3567
 3910SOL     OW12801   4.656   5.309   4.426  0.0327  0.3046  0.1992
 3910SOL    HW112802   4.740   5.339   4.390  0.6112 -1.4444  0.0284
 3910SOL    HW212803   4.633   5.233   4.373 -1.6951  0.7587  0.2355
 3911SOL     OW12804   7.370   0.082   7.271 -0.8505  0.3339 -0.8619
 3911SOL    HW112805   7.397   0.032   7.348 -1.2311 -0.4415 -1.2247
 3911SOL    HW212806   7.440   0.147   7.259 -1.1035  0.9001  0.5111
 3912SOL     OW12807   1.348   5.552   1.645  0.0311  0.2429 -0.1335
 3912SOL    HW112808   1.308   5.547   1.559 -0.0935  0.7026 -0.1057
 3912SOL    HW212809   1.437   5.583   1.629  0.3701 -0.7294 -0.1908
 3913SOL     OW12810   6.775   4.217   2.150 -0.1378 -0.2931 -0.2396
 3913SOL    HW112811   6.836   4.279   2.189  0.7674 -0.8876 -0.6944
 3913SOL    HW212812   6.694   4.267   2.139  0.3755  0.6123  0.0212
 3914SOL     OW12813   4.454   5.364   3.403 -0.5999 -0.0485 -0.2811
 3914SOL    HW112814   4.504   5.351   3.323  0.5260 -1.2477  0.5835
 3914SOL    HW212815   4.518   5.358   3.474 -1.3713  2.1535  0.6964
 3915SOL     OW12816   5.026   7.803   1.160  0.0274 -0.7769 -0.2637
 3915SOL    HW112817   4.952   7.796   1.100 -0.0407  0.1479 -0.3077
 3915SOL    HW212818   5.000   7.870   1.223  0.9615 -0.1761 -0.4902
 3916SOL     OW12819   3.608   0.265   2.365 -0.5763  0.0306  0.1685
 3916SOL    HW112820   3.592   0.237   2.275  2.3929 -2.3012  0.2136
 3916SOL    HW212821   3.697   0.299   2.365 -0.1641 -0.8248  2.3234
 3917SOL     OW12822   6.574   5.538   4.890  0.4982  0.2668  0.4860
 3917SOL    HW112823   6.487   5.499   4.885  0.5217  0.3671 -0.9546
 3917SOL    HW212824   6.632   5.475   4.848  1.3414 -0.3085  2.3819
 3918SOL     OW12825   0.807   3.838   7.095 -0.1710  0.1872  0.1272
 3918SOL    HW112826   0.768   3.802   7.175 -0.5529  0.8632  0.2495
 3918SOL    HW212827   0.742   3.822   7.027  0.5035 -1.1553 -0.2480
 3919SOL     OW12828   0.020   6.641   0.681 -0.1672  0.2547 -0.5075
 3919SOL    HW112829   0.096   6.625   0.736  0.0089  0.7701 -0.5891
 3919SOL    HW212830  -0.023   6.556   0.672 -1.3876  0.4963  2.1519
 3920SOL     OW12831   2.107   2.694   5.660  0.0438 -0.1492  0.7682
 3920SOL    HW112832   2.064   2.633   5.720 -0.9878  1.9450  2.3311
 3920SOL    HW212833   2.126   2.771   5.714  2.0943  0.5969 -0.8815
 3921SOL     OW12834   5.232   2.770   2.696 -0.3738 -0.2774 -0.0370
 3921SOL    HW112835   5.194   2.818   2.622  3.7220  1.4271 -1.3170
 3921SOL    HW212836   5.317   2.741   2.664  0.8906 -0.9342  3.5087
 3922SOL     OW12837   3.260   1.004   4.246 -0.0752  0.0681 -0.7245
 3922SOL    HW112838   3.336   1.004   4.189 -0.5200  0.3921 -1.3208
 3922SOL    HW212839   3.201   1.069   4.209 -0.2039  0.5745  0.3255
 3923SOL     OW12840   7.974   4.059   5.409  1.0022  0.3289 -0.2147
 3923SOL    HW112841   7.891   4.099   5.383  0.4190  0.3021  1.4640
 3923SOL    HW212842   7.968   3.969   5.376  1.3268  0.9048 -1.9701
 3924SOL     OW12843   3.213   1.982   4.673 -0.2580  0.2092  0.8112
 3924SOL    HW112844   3.227   2.052   4.609 -4.0510  1.8152  1.4903
 3924SOL    HW212845   3.262   2.010   4.750  0.7898  0.4806  0.0675
 3925SOL     OW12846   4.667   4.617   6.012  0.3508 -0.4356  0.0223
 3925SOL    HW112847   4.742   4.589   6.065  0.8965 -0.0431 -0.5212
 3925SOL    HW212848   4.602   4.548   6.024  0.7297 -0.6896  0.6497
 3926SOL     OW12849   5.245   1.498   1.663 -0.7301  0.4120 -0.4360
 3926SOL    HW112850   5.314   1.481   1.599  0.1211  1.1037  0.2668
 3926SOL    HW212851   5.233   1.593   1.660 -0.9185  0.4150  0.1808
 3927SOL     OW12852   0.380   0.092   6.341 -0.6722  0.0835 -0.4221
 3927SOL    HW112853   0.343   0.012   6.304 -0.4153 -0.5836  0.7080
 3927SOL    HW212854   0.333   0.104   6.423  1.8689 -1.1134  1.3728
 3928SOL     OW12855   1.366   4.471   7.448 -0.1656 -0.1068 -0.3312
 3928SOL    HW112856   1.271   4.481   7.457 -0.0247  1.4891 -0.2894
 3928SOL    HW212857   1.392   4.540   7.388  1.0743  0.0309  0.3254
 3929SOL     OW12858   0.899   3.182   6.132 -0.1734 -0.0528  0.1747
 3929SOL    HW112859   0.864   3.213   6.215 -0.7742 -0.1322 -0.0418
 3929SOL    HW212860   0.856   3.235   6.066  1.5350  1.1585 -0.0326
 3930SOL     OW12861   5.366   0.946   5.168 -0.2168 -0.0788 -0.6675
 3930SOL    HW112862   5.437   0.945   5.232 -0.1161  0.9007 -0.7432
 3930SOL    HW212863   5.410   0.944   5.083 -0.3786 -2.4250 -0.7370
 3931SOL     OW12864   2.158   5.590   4.740  0.5233  0.0088  0.6274
 3931SOL    HW112865   2.072   5.550   4.753 -0.4091  1.2259 -1.2529
 3931SOL    HW212866   2.221   5.523   4.767 -0.9934 -0.6642  2.6852
 3932SOL     OW12867   2.805   0.951   3.765  0.1845 -0.0756  0.4906
 3932SOL    HW112868   2.805   0.855   3.764  0.3491 -0.0887 -0.9656
 3932SOL    HW212869   2.733   0.974   3.823  0.2721 -1.0790  1.0258
 3933SOL     OW12870   5.633   3.950   3.678 -0.0400  0.0757  0.1209
 3933SOL    HW112871   5.569   3.970   3.746 -0.8073 -1.5621 -0.0512
 3933SOL    HW212872   5.688   3.882   3.716  1.0932  0.8811 -0.0422
 3934SOL     OW12873   1.617   1.054   4.568 -0.2746 -0.3595 -0.2824
 3934SOL    HW112874   1.683   1.105   4.521 -0.1638  0.6158  0.8961
 3934SOL    HW212875   1.667   0.993   4.623 -0.3200  0.7011  0.9644
 3935SOL     OW12876   8.052   7.114   4.696  0.8893 -0.1026  0.4781
 3935SOL    HW112877   8.007   7.152   4.772  1.0033 -0.9071  0.9573
 3935SOL    HW212878   8.133   7.165   4.690  1.5956 -0.9912  1.8444
 3936SOL     OW12879   2.651   1.682   2.848 -0.0039  0.5418 -0.2582
 3936SOL    HW112880   2.610   1.595   2.853  0.0019  0.4952 -0.9006
 3936SOL    HW212881   2.596   1.731   2.788 -1.4294  1.8035  1.9469
 3937SOL     OW12882   7.326   1.245   7.180 -0.2015 -0.3366 -0.1073
 3937SOL    HW112883   7.291   1.200   7.103 -1.2147  0.3570 -0.0740
 3937SOL    HW212884   7.313   1.338   7.161 -0.8330 -0.1652  1.0468
 3938SOL     OW12885   4.835   2.179   6.007 -0.9139 -0.5433 -0.2199
 3938SOL    HW112886   4.923   2.156   5.976 -0.7860 -0.9891  0.4357
 3938SOL    HW212887   4.849   2.206   6.098 -1.1532  1.5784 -0.7521
 3939SOL     OW12888   0.043   1.615   4.041  0.3675  0.4583  0.3659
 3939SOL    HW112889  -0.014   1.623   4.118  0.8363  0.1845  0.7505
 3939SOL    HW212890   0.068   1.523   4.040  0.4377  0.4843 -0.0651
 3940SOL     OW12891   3.721   2.682   1.379 -0.1089 -0.1717 -0.3019
 3940SOL    HW112892   3.751   2.691   1.469  1.9022  2.4905 -1.1337
 3940SOL    HW212893   3.639   2.631   1.386  0.8960 -1.5922  2.7736
 3941SOL     OW12894   7.980   2.895   1.644 -0.2109 -0.2294 -0.1760
 3941SOL    HW112895   7.910   2.830   1.644  0.0177 -0.4774 -0.5056
 3941SOL    HW212896   8.059   2.845   1.666 -0.4026  0.3541  2.1284
 3942SOL     OW12897   5.438   1.413   7.912  0.1425 -0.4529 -0.1937
 3942SOL    HW112898   5.407   1.412   7.821  1.1569 -0.7103 -0.5461
 3942SOL    HW212899   5.393   1.488   7.951  1.6729  1.3257 -1.6493
 3943SOL     OW12900   1.510   7.414   6.963 -0.2664  0.3488  0.4033
 3943SOL    HW112901   1.576   7.453   7.020 -0.5604 -0.7198  1.5175
 3943SOL    HW212902   1.427   7.452   6.992 -0.3256  0.4671  0.0857
 3944SOL     OW12903   1.244   1.045   4.194 -0.3464  0.2017  0.0204
 3944SOL    HW112904   1.323   1.007   4.232 -0.0283  0.4217 -0.4177
 3944SOL    HW212905   1.241   1.134   4.230  0.2518  0.5952 -0.8959
 3945SOL     OW12906   4.225   0.972   5.170 -0.2775 -0.0999 -0.2631
 3945SOL    HW112907   4.259   0.920   5.242  0.1319  2.0564  1.2052
 3945SOL    HW212908   4.134   0.942   5.159  0.2918 -1.9148 -0.3422
 3946SOL     OW12909   5.014   7.452   3.525 -0.3630 -0.7954 -0.2215
 3946SOL    HW112910   5.007   7.498   3.441  1.8396 -2.1303 -1.2162
 3946SOL    HW212911   4.927   7.413   3.537 -1.6425  1.7877 -0.3641
 3947SOL     OW12912   7.396   5.259   0.615  0.0103  0.7246 -0.4375
 3947SOL    HW112913   7.398   5.249   0.710 -0.0373 -1.1904 -0.5967
 3947SOL    HW212914   7.479   5.221   0.585 -0.7734 -0.3945 -1.2641
 3948SOL     OW12915   7.856   7.758   0.302 -0.0554  0.4261 -0.2048
 3948SOL    HW112916   7.793   7.740   0.372 -0.0727 -1.3188 -0.6186
 3948SOL    HW212917   7.847   7.852   0.285 -0.8316  0.6702  1.3674
 3949SOL     OW12918   7.650   1.275   5.683 -0.4779  0.2478 -0.3400
 3949SOL    HW112919   7.724   1.268   5.743 -0.3248  1.1225 -0.4165
 3949SOL    HW212920   7.671   1.215   5.611  0.4322  0.9243 -0.6492
 3950SOL     OW12921   1.665   2.927   6.171  0.7872 -0.3276  0.0569
 3950SOL    HW112922   1.755   2.905   6.149  1.1775  1.8067 -0.7307
 3950SOL    HW212923   1.627   2.957   6.088  0.0393  0.9157  0.8271
 3951SOL     OW12924   3.815   2.696   1.667 -0.2111  0.0434 -0.0604
 3951SOL    HW112925   3.835   2.654   1.751 -0.7291  0.3837  0.2373
 3951SOL    HW212926   3.723   2.719   1.673  0.1623  1.6831 -0.0029
 3952SOL     OW12927   5.415   3.083   4.344  0.1239  0.3190 -0.5098
 3952SOL    HW112928   5.431   3.160   4.397  1.0650  0.4593 -0.9888
 3952SOL    HW212929   5.392   3.117   4.258  0.9254  0.0668 -0.8299
 3953SOL     OW12930   1.034   4.148   4.610 -0.1982  0.3665  0.4896
 3953SOL    HW112931   0.947   4.135   4.646 -0.2809 -1.3134 -0.2267
 3953SOL    HW212932   1.091   4.090   4.660  0.5262  1.3832  0.8999
 3954SOL     OW12933   5.241   1.300   0.870  0.2017  0.6704  0.1406
 3954SOL    HW112934   5.296   1.323   0.796  1.9371  0.2550  1.2483
 3954SOL    HW212935   5.266   1.211   0.893 -2.6532 -0.4877 -0.7586
 3955SOL     OW12936   3.404   3.358   0.565 -0.2390  0.5641  0.1026
 3955SOL    HW112937   3.313   3.361   0.593 -0.0290 -1.4170  1.1777
 3955SOL    HW212938   3.422   3.446   0.532 -1.8360  1.7231  2.0870
 3956SOL     OW12939   4.337   5.563   4.955 -0.3098  0.0864 -0.7083
 3956SOL    HW112940   4.428   5.560   4.924  0.2223 -0.4682  0.7978
 3956SOL    HW212941   4.345   5.566   5.050 -1.8818  0.5808 -0.5645
 3957SOL     OW12942   1.600   5.853   4.408  0.2005  0.4080 -0.0785
 3957SOL    HW112943   1.539   5.896   4.468  0.5378  0.9805 -0.1412
 3957SOL    HW212944   1.674   5.827   4.463  1.3531  2.5589 -0.5172
 3958SOL     OW12945   3.028   3.829   7.762  0.4336 -0.0669 -0.0390
 3958SOL    HW112946   2.933   3.838   7.755  0.2305 -1.0518  1.1465
 3958SOL    HW212947   3.053   3.778   7.685 -0.1373 -0.5955  0.1137
 3959SOL     OW12948   8.158   2.913   2.259  0.3548  0.7255  0.3645
 3959SOL    HW112949   8.076   2.867   2.278  1.2829 -1.3005 -0.2682
 3959SOL    HW212950   8.131   2.992   2.213 -1.2962  0.7290  1.2626
 3960SOL     OW12951   4.510   3.649   7.138 -0.1447 -0.2980 -0.4392
 3960SOL    HW112952   4.549   3.638   7.225 -0.3325 -1.7349 -0.5163
 3960SOL    HW212953   4.438   3.711   7.152 -0.2571 -0.6185  0.4550
 3961SOL     OW12954   6.199   7.019   2.076 -0.5710  0.0703 -0.1816
 3961SOL    HW112955   6.235   6.938   2.040  1.5436  0.0546  1.7130
 3961SOL    HW212956   6.248   7.088   2.031  0.6097  0.1057  1.0780
 3962SOL     OW12957   3.433   1.279   0.959  0.3284 -0.1229  0.0665
 3962SOL    HW112958   3.500   1.338   0.924 -0.0804 -0.9425 -2.2826
 3962SOL    HW212959   3.352   1.330   0.955  0.5068  0.2972  1.3374
 3963SOL     OW12960   2.433   4.038   1.461  0.0154  0.1926  0.2023
 3963SOL    HW112961   2.396   3.995   1.384 -0.6425  0.2894  0.4577
 3963SOL    HW212962   2.423   4.132   1.443 -0.7839  0.2147  0.6994
 3964SOL     OW12963   3.491   4.413   4.671  0.2322 -0.2451  0.1073
 3964SOL    HW112964   3.423   4.399   4.604 -0.3761 -0.8026  0.8215
 3964SOL    HW212965   3.549   4.479   4.633 -0.9629  0.5819 -0.3452
 3965SOL     OW12966   7.444   2.185   6.779  0.5186 -0.5064 -0.5620
 3965SOL    HW112967   7.474   2.257   6.723  0.2435  0.1747  0.1407
 3965SOL    HW212968   7.422   2.227   6.862 -0.1213 -1.3348 -0.2949
 3966SOL     OW12969   1.395   3.360   5.225 -0.0790  0.3687 -0.0607
 3966SOL    HW112970   1.374   3.402   5.141 -1.9601  0.2752  0.3151
 3966SOL    HW212971   1.382   3.267   5.209 -1.3692  0.4206  0.5393
 3967SOL     OW12972   3.658   6.580   7.481  0.0998  0.3861  0.2500
 3967SOL    HW112973   3.594   6.641   7.444  0.5799  0.0296 -1.2315
 3967SOL    HW212974   3.640   6.581   7.575 -2.1605  0.2283 -0.1204
 3968SOL     OW12975   4.561   6.717   4.278 -0.3335 -0.1888 -0.0822
 3968SOL    HW112976   4.546   6.811   4.268 -1.5056 -0.3432  0.0703
 3968SOL    HW212977   4.477   6.677   4.254  0.0407 -1.1753  0.2113
 3969SOL     OW12978   2.158   1.663   1.195  0.1253 -0.4188 -0.4210
 3969SOL    HW112979   2.106   1.639   1.271  1.5652 -1.8138  0.1641
 3969SOL    HW212980   2.188   1.752   1.214 -0.3506 -0.3793  0.1727
 3970SOL     OW12981   6.031   6.560   1.526 -0.3432 -0.3634 -0.0291
 3970SOL    HW112982   6.030   6.618   1.450 -1.3493 -0.3260  0.0004
 3970SOL    HW212983   6.117   6.572   1.565 -0.7939  1.7247  0.4228
 3971SOL     OW12984   3.127   3.285   2.190  0.0083 -0.3492  0.3458
 3971SOL    HW112985   3.060   3.243   2.244 -0.9200  0.4504 -0.1496
 3971SOL    HW212986   3.095   3.374   2.176 -0.3353 -0.7886 -2.3580
 3972SOL     OW12987   5.812   6.657   6.829 -0.0003 -0.2971 -0.4061
 3972SOL    HW112988   5.764   6.644   6.747 -0.0513 -1.0726 -0.2555
 3972SOL    HW212989   5.887   6.599   6.822  0.7388  0.6379 -0.4788
 3973SOL     OW12990   4.253   7.631   3.301  0.5795 -0.1042 -0.1476
 3973SOL    HW112991   4.221   7.617   3.212 -2.7911 -1.2266  1.0716
 3973SOL    HW212992   4.255   7.726   3.311  0.4144  0.0290 -1.2356
 3974SOL     OW12993   5.423   7.795   3.647 -0.8273  0.2048  0.1760
 3974SOL    HW112994   5.375   7.715   3.624 -2.0186  0.7354  0.7520
 3974SOL    HW212995   5.396   7.860   3.582 -0.6396  0.4287  0.3173
 3975SOL     OW12996   5.834   6.982   5.640 -0.3185  0.0715  0.3437
 3975SOL    HW112997   5.767   6.972   5.708 -0.8263  3.7683  0.5829
 3975SOL    HW212998   5.916   6.997   5.689 -0.7096  2.8857  0.3104
 3976SOL     OW12999   2.146   7.572   2.173  0.9690  0.1978  0.1586
 3976SOL    HW113000   2.133   7.605   2.084 -0.4507  1.7165  0.8775
 3976SOL    HW213001   2.098   7.488   2.174  0.8730  0.2374 -0.4617
 3977SOL     OW13002   5.900   6.357   7.706 -0.7233 -0.3420 -0.1459
 3977SOL    HW113003   5.827   6.389   7.653  0.2416 -0.0751 -1.3765
 3977SOL    HW213004   5.877   6.381   7.795 -1.3082  1.4359 -0.7148
 3978SOL     OW13005   3.895   7.601   6.824  0.0195 -0.0725  0.3574
 3978SOL    HW113006   3.839   7.633   6.895 -0.0522 -0.6452  0.5608
 3978SOL    HW213007   3.866   7.650   6.747  0.8990  1.4319  0.9381
 3979SOL     OW13008   4.573   6.010   7.799  0.4512 -0.1377 -0.0580
 3979SOL    HW113009   4.501   5.988   7.859  0.6316  0.0276  0.2250
 3979SOL    HW213010   4.588   6.104   7.814  1.3429 -0.3656  0.5756
 3980SOL     OW13011   6.782   6.462   6.018  0.3711 -0.1558 -0.7726
 3980SOL    HW113012   6.724   6.387   5.999  0.8545 -0.6264 -0.4121
 3980SOL    HW213013   6.870   6.426   6.009  0.7253  1.1327 -3.8522
 3981SOL     OW13014   5.153   2.051   3.316 -0.9856 -0.0074 -0.2706
 3981SOL    HW113015   5.197   2.134   3.336 -1.4304 -0.0926  1.2082
 3981SOL    HW213016   5.189   1.989   3.380  1.3766 -1.7402 -3.0085
 3982SOL     OW13017   2.586   0.699   6.540 -0.0766  0.0396  0.1032
 3982SOL    HW113018   2.582   0.790   6.569 -1.3353 -0.0186  0.1618
 3982SOL    HW213019   2.606   0.704   6.447 -0.9343  0.4243 -0.0707
 3983SOL     OW13020   4.913   6.446   6.632 -0.0137  0.2252 -0.0095
 3983SOL    HW113021   4.933   6.524   6.684 -0.3467 -0.1069  0.6278
 3983SOL    HW213022   4.952   6.374   6.681 -2.8027 -0.4767  1.3472
 3984SOL     OW13023   5.841   6.758   1.127  0.2324  0.3693  0.0066
 3984SOL    HW113024   5.878   6.689   1.071 -1.8536 -0.5527 -0.3439
 3984SOL    HW213025   5.809   6.824   1.065 -0.7745  0.0310  0.1393
 3985SOL     OW13026   0.717   2.933   1.101 -0.2423 -0.3708 -0.5990
 3985SOL    HW113027   0.724   3.028   1.108 -0.7030 -0.4607  1.6243
 3985SOL    HW213028   0.808   2.903   1.091  0.2006  0.1619  1.4512
 3986SOL     OW13029   3.773   6.038   7.439  0.4329 -0.4002  0.0369
 3986SOL    HW113030   3.708   5.969   7.448  0.6141 -0.7827 -1.2896
 3986SOL    HW213031   3.723   6.115   7.412  0.3498 -0.2713  0.5516
 3987SOL     OW13032   0.002   7.231   6.453 -0.1874  0.6415  0.3301
 3987SOL    HW113033   0.061   7.306   6.449  1.6818 -0.7821 -0.2650
 3987SOL    HW213034  -0.053   7.241   6.376  1.4430  0.3533 -0.9313
 3988SOL     OW13035   5.603   2.675   2.811 -0.1577 -0.2407 -0.2371
 3988SOL    HW113036   5.593   2.754   2.864 -0.4029 -1.0248  0.9069
 3988SOL    HW213037   5.691   2.682   2.775 -1.2712  2.2094 -2.9531
 3989SOL     OW13038   5.842   3.786   0.818  0.0313  0.7472 -0.4504
 3989SOL    HW113039   5.846   3.847   0.892 -1.1788  1.6788 -1.1109
 3989SOL    HW213040   5.780   3.826   0.758  0.3246 -0.4355 -1.5823
 3990SOL     OW13041   4.286   0.657   2.742 -0.1374 -0.3929 -1.0121
 3990SOL    HW113042   4.338   0.636   2.820 -1.2507  1.1163  0.1937
 3990SOL    HW213043   4.348   0.695   2.681  0.1823  1.7056  0.5410
 3991SOL     OW13044   8.055   1.930   0.658  0.1423 -0.1600  0.3040
 3991SOL    HW113045   8.002   2.004   0.627  2.9453  1.0453 -2.0960
 3991SOL    HW213046   8.055   1.868   0.585  1.7397 -0.2612  0.3648
 3992SOL     OW13047   0.966   0.403   4.090 -0.4839  1.3180 -0.3095
 3992SOL    HW113048   1.056   0.434   4.085  0.2072 -0.6697 -1.8943
 3992SOL    HW213049   0.949   0.366   4.003 -1.9600 -0.5023  0.6839
 3993SOL     OW13050   3.693   5.042   5.263  0.0737 -0.1872  0.6180
 3993SOL    HW113051   3.728   4.990   5.191  0.3662  0.6924  0.1116
 3993SOL    HW213052   3.697   5.132   5.232 -2.6859 -0.0128  0.5069
 3994SOL     OW13053   3.396   6.240   2.873 -0.6099 -0.6066 -0.3261
 3994SOL    HW113054   3.365   6.247   2.783 -2.1473 -3.2805 -0.1087
 3994SOL    HW213055   3.484   6.202   2.865 -0.7366 -0.8199 -0.7219
 3995SOL     OW13056   7.838   0.732   3.040 -0.3201 -0.6090  0.1522
 3995SOL    HW113057   7.822   0.720   3.134  0.3925  0.0976  0.3786
 3995SOL    HW213058   7.776   0.800   3.013  0.9893  0.8590  0.6441
 3996SOL     OW13059   7.997   6.409   6.000  0.7911 -0.1364  0.6768
 3996SOL    HW113060   7.939   6.421   5.924  1.1693 -2.1591  0.0141
 3996SOL    HW213061   8.079   6.451   5.974  1.0091 -1.0452 -0.1883
 3997SOL     OW13062   7.235   1.851   5.797 -0.3273 -0.8475 -0.0094
 3997SOL    HW113063   7.150   1.891   5.818 -0.0892  0.3221 -1.1458
 3997SOL    HW213064   7.213   1.765   5.762 -0.9978 -0.8199  0.3195
 3998SOL     OW13065   2.452   2.654   1.396 -0.1127  0.1481  0.5422
 3998SOL    HW113066   2.486   2.739   1.366  2.1776 -0.5807  0.8602
 3998SOL    HW213067   2.385   2.631   1.333  1.9113  0.4482 -1.8916
 3999SOL     OW13068   1.057   6.067   2.948  0.2474 -0.0729 -0.0241
 3999SOL    HW113069   1.119   6.122   2.996 -0.4272  0.1034  0.6441
 3999SOL    HW213070   1.023   6.006   3.013 -0.0047 -0.4197 -0.4750
 4000SOL     OW13071   4.137   1.575   6.738  0.5901  0.4438 -0.5474
 4000SOL    HW113072   4.157   1.500   6.682  1.3586 -0.6271  1.0840
 4000SOL    HW213073   4.198   1.567   6.811 -0.3921  1.7710  0.4611
 4001SOL     OW13074   6.291   8.095   4.524 -0.1560 -0.3603 -0.6920
 4001SOL    HW113075   6.293   8.031   4.596 -0.6144  0.1984 -0.1722
 4001SOL    HW213076   6.199   8.121   4.517 -0.3326 -1.2672 -2.2728
 4002SOL     OW13077   2.773   6.012   0.262 -0.1920 -0.8044 -0.1296
 4002SOL    HW113078   2.754   6.050   0.348 -0.8178 -0.6239 -0.3422
 4002SOL    HW213079   2.822   5.932   0.282 -1.3309 -1.3938  0.4654
 4003SOL     OW13080   6.890   2.760   1.543  0.4306  0.2448  0.3403
 4003SOL    HW113081   6.903   2.792   1.632  0.2671 -0.7094  0.7231
 4003SOL    HW213082   6.874   2.666   1.554  0.3072  0.1378 -0.6878
 4004SOL     OW13083   4.757   1.524   7.432  0.1717 -0.0820 -0.4528
 4004SOL    HW113084   4.763   1.531   7.527 -0.8654  0.5566 -0.4174
 4004SOL    HW213085   4.814   1.451   7.409  0.1205 -0.4997  0.6978
 4005SOL     OW13086   3.618   1.972   4.374  0.4402  0.2294 -0.2455
 4005SOL    HW113087   3.566   1.901   4.413  0.3959  0.6554  0.5016
 4005SOL    HW213088   3.605   1.963   4.280  0.6897 -0.9524 -0.1830
 4006SOL     OW13089   6.398   5.933   3.446  0.1113  0.4190 -0.7656
 4006SOL    HW113090   6.348   6.002   3.402 -0.0529 -0.7051 -2.3857
 4006SOL    HW213091   6.338   5.860   3.453  0.4533  0.2383  0.4770
 4007SOL     OW13092   2.891   3.067   6.360  0.3792  0.7268 -0.4511
 4007SOL    HW113093   2.815   3.022   6.397  0.1978  0.7985 -0.7367
 4007SOL    HW213094   2.863   3.095   6.273  1.1549 -0.3801 -1.0845
 4008SOL     OW13095   1.485   6.846   3.575 -0.0299 -0.2157 -0.3551
 4008SOL    HW113096   1.422   6.822   3.643  0.0370 -1.9629 -0.8538
 4008SOL    HW213097   1.562   6.792   3.594  1.4773  2.0805  0.4031
 4009SOL     OW13098   7.351   7.203   5.387 -0.5004  0.1035 -0.1506
 4009SOL    HW113099   7.349   7.240   5.475 -1.4237 -0.6647  0.1594
 4009SOL    HW213100   7.407   7.264   5.338 -0.9399  1.2054  0.6543
 4010SOL     OW13101   5.557   7.807   6.764 -0.0260 -0.2038 -0.7334
 4010SOL    HW113102   5.493   7.758   6.711 -0.7286 -2.0608  1.6748
 4010SOL    HW213103   5.639   7.759   6.752 -0.0965 -0.3977 -0.4387
 4011SOL     OW13104   0.899   5.748   0.641  0.1986 -0.4062  0.1380
 4011SOL    HW113105   0.944   5.833   0.640  0.2053 -0.2948  2.6096
 4011SOL    HW213106   0.968   5.685   0.662 -0.1034 -0.7887 -0.0018
 4012SOL     OW13107   3.707   1.496   3.584  0.2864 -0.0601 -0.1067
 4012SOL    HW113108   3.633   1.498   3.523  0.4437  0.3503 -0.2820
 4012SOL    HW213109   3.718   1.403   3.603 -1.0319 -0.0590  0.8520
 4013SOL     OW13110   6.303   1.807   4.845  0.3154  0.2252 -0.2263
 4013SOL    HW113111   6.232   1.848   4.795  0.2422  1.1896  0.6304
 4013SOL    HW213112   6.323   1.870   4.915  3.0996  0.7334 -1.3454
 4014SOL     OW13113   1.350   1.037   7.707  0.1654  0.5962  0.1242
 4014SOL    HW113114   1.425   0.993   7.668 -1.8119 -1.5025 -1.6449
 4014SOL    HW213115   1.367   1.037   7.801  2.8568  1.2849 -0.2957
 4015SOL     OW13116   0.392   8.144   7.930 -0.0397 -0.1011  0.3100
 4015SOL    HW113117   0.365   8.086   7.859  0.8586 -0.0210 -0.1007
 4015SOL    HW213118   0.372   8.232   7.898 -0.5628 -0.1163  0.5722
 4016SOL     OW13119   4.111   4.920   0.790 -0.1724  0.4924 -0.4960
 4016SOL    HW113120   4.157   4.948   0.711  2.3361 -2.1816 -0.1839
 4016SOL    HW213121   4.047   4.856   0.759  1.5759 -1.4065 -0.4026
 4017SOL     OW13122   3.115   0.693   4.572  0.1623 -0.5202 -0.4105
 4017SOL    HW113123   3.023   0.712   4.590 -0.2398  0.2973 -2.9224
 4017SOL    HW213124   3.163   0.739   4.641 -1.1084  3.9695 -2.1603
 4018SOL     OW13125   7.866   1.286   6.913  0.0118  0.7430  0.5109
 4018SOL    HW113126   7.826   1.228   6.977  0.3738  1.7421  1.6664
 4018SOL    HW213127   7.878   1.369   6.959  0.6741  1.3574 -0.7163
 4019SOL     OW13128   6.805   0.595   2.306  0.0820  0.2717 -0.1856
 4019SOL    HW113129   6.801   0.689   2.327  2.0117  0.3901 -0.1458
 4019SOL    HW213130   6.734   0.581   2.244 -0.2468  1.7642 -0.1809
 4020SOL     OW13131   1.574   5.701   7.274  0.0330 -0.8652 -0.2174
 4020SOL    HW113132   1.550   5.792   7.260 -1.5813 -0.8874  1.9030
 4020SOL    HW213133   1.554   5.657   7.191  0.1042  0.5370 -1.0029
 4021SOL     OW13134   2.579   5.509   3.006  0.0626  0.0820 -0.4162
 4021SOL    HW113135   2.533   5.495   3.089  1.0436  0.4928  0.2093
 4021SOL    HW213136   2.660   5.458   3.015  0.5771  0.8254 -0.7597
 4022SOL     OW13137   6.548   5.042   3.273 -0.6396 -0.8127 -0.2837
 4022SOL    HW113138   6.605   4.968   3.298  0.3460  0.2374  0.7132
 4022SOL    HW213139   6.551   5.043   3.178  1.2057 -0.6827 -0.2672
 4023SOL     OW13140   6.130   5.119   0.889 -0.0001 -0.2314  0.1297
 4023SOL    HW113141   6.210   5.100   0.937  0.6168  0.9284 -0.4018
 4023SOL    HW213142   6.150   5.094   0.798 -0.4224 -0.4067  0.0788
 4024SOL     OW13143   7.822   7.269   4.576 -0.6276 -0.1873 -0.1208
 4024SOL    HW113144   7.856   7.212   4.508  1.7150  1.2390 -0.2873
 4024SOL    HW213145   7.868   7.352   4.562 -2.3265  1.0796  1.3695
 4025SOL     OW13146   3.752   3.749   4.877  0.0047 -0.0624 -0.3394
 4025SOL    HW113147   3.689   3.808   4.919 -1.5523 -1.9099  0.0587
 4025SOL    HW213148   3.703   3.709   4.805  0.4371 -2.0762  0.4086
 4026SOL     OW13149   7.118   3.924   1.938 -0.0407  0.2016  0.2133
 4026SOL    HW113150   7.057   3.892   1.872  1.3095 -2.3031  0.0234
 4026SOL    HW213151   7.065   3.937   2.016 -0.9981 -1.0030 -0.2004
 4027SOL     OW13152   8.035   5.754   3.959 -0.4136 -0.1773 -0.5604
 4027SOL    HW113153   8.033   5.660   3.944  0.2704 -0.4325  0.8431
 4027SOL    HW213154   7.951   5.785   3.924 -0.5701 -1.2572 -1.2125
 4028SOL     OW13155   1.640   2.829   3.213 -0.4247 -0.7052  0.0278
 4028SOL    HW113156   1.597   2.913   3.194 -1.5258 -1.7040 -2.3518
 4028SOL    HW213157   1.696   2.847   3.288 -0.5703  2.1784 -0.4419
 4029SOL     OW13158   1.354   3.959   6.870  0.1342  0.1861 -0.1782
 4029SOL    HW113159   1.269   4.000   6.885  1.3286  2.0985  1.8048
 4029SOL    HW213160   1.358   3.888   6.934  0.2089  0.3741  0.0256
 4030SOL     OW13161   6.421   0.673   3.938  0.3576  0.2464 -0.0597
 4030SOL    HW113162   6.387   0.713   4.019 -0.1355  0.2296 -0.2574
 4030SOL    HW213163   6.462   0.746   3.891  1.6131  0.0604  0.6978
 4031SOL     OW13164   3.529   0.483   2.784  0.2348  0.5498  0.2426
 4031SOL    HW113165   3.515   0.391   2.759 -2.7055  0.7854  0.7190
 4031SOL    HW213166   3.479   0.494   2.864  3.2495  1.8137  2.1083
 4032SOL     OW13167   1.223   8.058   7.055 -0.0751 -0.2580 -0.2821
 4032SOL    HW113168   1.267   8.132   7.014 -1.6392  1.4409  0.9620
 4032SOL    HW213169   1.259   8.053   7.143 -1.0430 -0.0032  0.1391
 4033SOL     OW13170   3.949   2.391   5.505 -0.3769 -0.2050  0.3739
 4033SOL    HW113171   3.995   2.474   5.514  1.7816 -1.1001 -1.3827
 4033SOL    HW213172   3.857   2.415   5.493  0.1351  1.8830  0.3237
 4034SOL     OW13173   1.951   0.938   6.325 -0.1273  0.4280 -0.5917
 4034SOL    HW113174   2.034   0.920   6.369 -1.5653 -1.0442  1.7488
 4034SOL    HW213175   1.952   0.883   6.247 -0.0570 -2.0101  1.0018
 4035SOL     OW13176   0.857   5.125   7.937  0.0984 -0.3638  0.0291
 4035SOL    HW113177   0.887   5.190   8.000  0.0245  0.2820 -0.5982
 4035SOL    HW213178   0.764   5.113   7.957  0.7000 -2.4525  2.0523
 4036SOL     OW13179   5.079   4.724   0.402 -0.2932  0.7803 -0.0191
 4036SOL    HW113180   5.070   4.756   0.492 -0.6875  1.1327 -0.1782
 4036SOL    HW213181   5.146   4.780   0.363  0.7519 -0.1509  0.4005
 4037SOL     OW13182   2.412   5.721   1.805  0.4127 -0.4043 -0.7287
 4037SOL    HW113183   2.395   5.797   1.749  0.9270  0.1757 -0.1180
 4037SOL    HW213184   2.451   5.657   1.746 -1.0536 -0.6361 -1.4964
 4038SOL     OW13185   2.071   5.913   1.059  0.6455  0.4546 -0.4672
 4038SOL    HW113186   2.068   5.831   1.107 -2.7806  1.8625  2.1450
 4038SOL    HW213187   2.149   5.957   1.092  0.9825 -0.6039  0.1976
 4039SOL     OW13188   6.636   7.256   4.280  0.3199  0.3103 -0.1071
 4039SOL    HW113189   6.585   7.177   4.300 -0.5756  0.4686 -1.6229
 4039SOL    HW213190   6.589   7.298   4.208  2.1063  0.9525 -0.9605
 4040SOL     OW13191   4.646   3.136   4.179  0.2726  0.3911  0.0252
 4040SOL    HW113192   4.626   3.070   4.112 -3.1042  1.3778 -0.1312
 4040SOL    HW213193   4.650   3.087   4.261  1.9846 -0.4847 -0.5202
 4041SOL     OW13194   4.223   6.294   6.442  0.2209  0.2712 -0.3118
 4041SOL    HW113195   4.270   6.228   6.493  0.0321  0.4973  0.1588
 4041SOL    HW213196   4.155   6.244   6.396 -0.4779  0.2447  0.7153
 4042SOL     OW13197   2.642   6.417   7.261 -0.2107  0.7206 -0.3289
 4042SOL    HW113198   2.696   6.383   7.190 -0.1655 -2.5229  1.0898
 4042SOL    HW213199   2.614   6.503   7.230  1.8224  0.5157 -3.1517
 4043SOL     OW13200   2.538   1.971   7.461 -0.6312 -0.2431 -0.3408
 4043SOL    HW113201   2.489   2.044   7.501  0.6322  0.9915 -0.9559
 4043SOL    HW213202   2.604   2.014   7.407  1.2242 -1.8278  0.5411
 4044SOL     OW13203   1.166   1.398   5.576 -0.0093 -0.6174  0.0207
 4044SOL    HW113204   1.180   1.364   5.488 -0.9057  0.9650 -0.7789
 4044SOL    HW213205   1.199   1.488   5.573  0.9333 -0.8793  1.6227
 4045SOL     OW13206   4.508   5.701   2.165  0.0701  0.2884  0.6682
 4045SOL    HW113207   4.574   5.753   2.210 -0.5399  0.8209  0.9673
 4045SOL    HW213208   4.427   5.751   2.176 -0.0212  0.6857 -1.4238
 4046SOL     OW13209   1.548   8.129   6.583 -0.5329  0.2258  0.2380
 4046SOL    HW113210   1.534   8.037   6.607 -2.0526 -0.0763 -1.4879
 4046SOL    HW213211   1.643   8.139   6.577 -0.2449 -0.5866  2.6217
 4047SOL     OW13212   1.246   7.124   6.462 -0.0682  0.1685  0.0826
 4047SOL    HW113213   1.226   7.210   6.426 -1.0651  0.5618  1.4904
 4047SOL    HW213214   1.284   7.076   6.389 -2.2171  0.8370 -1.6052
 4048SOL     OW13215   0.512   7.592   0.470 -0.8095 -0.2805 -0.8214
 4048SOL    HW113216   0.523   7.572   0.377  0.1210 -0.5419 -0.6643
 4048SOL    HW213217   0.579   7.539   0.514 -1.3455 -0.2870  0.0159
 4049SOL     OW13218   0.202   0.404   4.653  0.5983  0.6689  0.5618
 4049SOL    HW113219   0.206   0.480   4.595 -0.2493  0.6478  0.4716
 4049SOL    HW213220   0.138   0.427   4.719  1.0043  0.3881  1.0608
 4050SOL     OW13221   3.093   0.810   7.535 -0.4463 -0.7181  0.2189
 4050SOL    HW113222   3.015   0.755   7.530 -1.1377  0.1599  0.8943
 4050SOL    HW213223   3.142   0.777   7.611  0.4334 -1.9795 -0.8561
 4051SOL     OW13224   2.521   3.312   4.418 -0.3859  0.3310 -0.4187
 4051SOL    HW113225   2.566   3.373   4.360  0.5122 -0.7236 -0.8576
 4051SOL    HW213226   2.580   3.237   4.426 -1.8026 -0.8560 -0.5496
 4052SOL     OW13227   7.621   7.037   7.598 -0.6830 -0.4481  0.3031
 4052SOL    HW113228   7.542   7.070   7.641 -1.1047  1.1202 -1.5120
 4052SOL    HW213229   7.589   6.996   7.517  0.3493  0.6829 -0.7243
 4053SOL     OW13230   7.690   5.112   5.094  0.1286  0.4150 -0.5852
 4053SOL    HW113231   7.717   5.204   5.098  0.5967  0.2440  0.8992
 4053SOL    HW213232   7.746   5.068   5.159 -2.6311 -0.2427  1.5762
 4054SOL     OW13233   4.423   5.423   7.796  0.6541 -0.5655  0.0422
 4054SOL    HW113234   4.416   5.517   7.783 -0.2379 -0.6615 -0.2406
 4054SOL    HW213235   4.374   5.385   7.723 -1.1722 -1.1840  1.5069
 4055SOL     OW13236   0.162   2.869   4.134  0.2561  0.7728  0.2034
 4055SOL    HW113237   0.200   2.795   4.085 -0.5268 -1.1930  2.3936
 4055SOL    HW213238   0.237   2.925   4.153  0.7449  1.0841 -2.2334
 4056SOL     OW13239   6.456   0.912   2.649  0.1084  0.1985 -0.4334
 4056SOL    HW113240   6.441   0.981   2.585  0.6817 -0.9309 -1.8244
 4056SOL    HW213241   6.402   0.839   2.620 -0.4574  0.0052  0.9913
 4057SOL     OW13242   5.637   7.862   3.798  0.4765 -0.1956  0.1181
 4057SOL    HW113243   5.555   7.848   3.751  0.1332 -1.4505  1.0311
 4057SOL    HW213244   5.615   7.843   3.890  1.1266  2.1201  0.8241
 4058SOL     OW13245   6.915   0.378   1.159  0.6803 -0.1705  0.4337
 4058SOL    HW113246   6.977   0.447   1.134  0.7454 -0.3920 -0.0324
 4058SOL    HW213247   6.919   0.375   1.254 -0.5637  1.6149  0.5931
 4059SOL     OW13248   7.106   5.588   5.227  0.5952  0.7071  0.3947
 4059SOL    HW113249   7.040   5.523   5.204 -0.3290  2.6470 -3.1296
 4059SOL    HW213250   7.066   5.638   5.299 -1.1333  0.8743 -0.6338
 4060SOL     OW13251   7.999   0.580   0.076  0.0525 -0.4548  0.4584
 4060SOL    HW113252   8.007   0.675   0.079 -1.0596 -0.2938 -0.8892
 4060SOL    HW213253   8.082   0.550   0.039 -0.7804  0.2646 -2.1316
 4061SOL     OW13254   7.201   7.523   5.457 -0.2725  0.2857  0.3194
 4061SOL    HW113255   7.141   7.523   5.382 -0.0293  1.0608  0.1089
 4061SOL    HW213256   7.158   7.468   5.523 -0.6642 -0.0980 -0.2515
 4062SOL     OW13257   0.106   1.336   3.408  0.0503 -0.2759 -0.6437
 4062SOL    HW113258   0.200   1.334   3.391  0.1619 -0.1015 -0.0525
 4062SOL    HW213259   0.095   1.402   3.476 -0.6107  0.4120 -1.3821
 4063SOL     OW13260   0.678   1.501   1.736  0.0454  0.0546 -0.8631
 4063SOL    HW113261   0.699   1.590   1.763 -0.5095 -0.0051 -0.2122
 4063SOL    HW213262   0.654   1.509   1.643  0.5383  0.4890 -0.9588
 4064SOL     OW13263   0.285   5.224   0.680 -0.0026  0.0925 -0.0769
 4064SOL    HW113264   0.194   5.253   0.684  0.0583  0.1493  1.1356
 4064SOL    HW213265   0.337   5.299   0.708  0.2564 -0.6372  1.5121
 4065SOL     OW13266   1.359   5.148   0.748 -0.3312 -0.2616  0.5823
 4065SOL    HW113267   1.277   5.194   0.731 -1.0783 -1.3841  1.0297
 4065SOL    HW213268   1.355   5.070   0.693 -0.0055 -0.8190  1.3296
 4066SOL     OW13269   0.248   0.467   5.399  0.1202 -0.5623 -0.0077
 4066SOL    HW113270   0.320   0.526   5.376 -0.2404  0.1871  0.7092
 4066SOL    HW213271   0.183   0.479   5.330 -0.4092  0.7095  0.6793
 4067SOL     OW13272   1.382   3.721   3.372 -0.0676 -0.8023  0.0014
 4067SOL    HW113273   1.292   3.750   3.358 -0.3628 -0.8061  1.6919
 4067SOL    HW213274   1.389   3.640   3.321 -0.8226 -0.4970 -0.6128
 4068SOL     OW13275   4.896   6.938   7.103 -0.6710  0.0317 -0.0412
 4068SOL    HW113276   4.873   7.021   7.145  1.6125  0.1177  1.1708
 4068SOL    HW213277   4.865   6.871   7.165  2.0463  0.1494  1.6215
 4069SOL     OW13278   7.422   1.564   1.516  0.7746 -1.3058  0.2270
 4069SOL    HW113279   7.421   1.620   1.593  1.4486  0.3817 -0.9326
 4069SOL    HW213280   7.509   1.524   1.516  1.7213  0.5981 -0.8941
 4070SOL     OW13281   6.698   3.641   0.620 -0.2898  0.7788  0.4492
 4070SOL    HW113282   6.635   3.673   0.685 -1.1145 -1.0144  0.6073
 4070SOL    HW213283   6.650   3.646   0.537  0.7081  2.9159 -0.0688
 4071SOL     OW13284   5.883   3.005   5.871  0.2301  0.0042 -0.0305
 4071SOL    HW113285   5.898   3.030   5.780 -0.8425  0.8617  0.0021
 4071SOL    HW213286   5.829   2.926   5.867  1.2169 -0.6850 -0.1244
 4072SOL     OW13287   4.565   2.911   6.925 -0.5200  0.5366 -0.8448
 4072SOL    HW113288   4.563   2.909   6.829  1.4419  1.6758 -0.9770
 4072SOL    HW213289   4.519   2.991   6.948  0.4083  1.1284 -0.9696
 4073SOL     OW13290   4.710   5.585   0.507 -0.6424 -0.3324  0.1858
 4073SOL    HW113291   4.625   5.621   0.532 -0.1218  0.4012  0.9802
 4073SOL    HW213292   4.757   5.659   0.470 -0.1764 -0.6146  0.2066
 4074SOL     OW13293   5.260   4.151   0.739 -0.1248  0.9059  0.4519
 4074SOL    HW113294   5.307   4.220   0.692  1.0266 -0.8591 -1.1779
 4074SOL    HW213295   5.313   4.136   0.817  1.3483 -0.0896 -0.6693
 4075SOL     OW13296   0.297   5.355   7.073 -0.3571 -0.4700  0.2089
 4075SOL    HW113297   0.316   5.286   7.010 -1.1261 -0.8159  0.3461
 4075SOL    HW213298   0.230   5.409   7.030 -0.0904 -0.0683  0.2868
 4076SOL     OW13299   7.644   5.217   3.873 -0.1148 -0.0812  0.9009
 4076SOL    HW113300   7.567   5.240   3.821 -0.6210  0.7680  1.9712
 4076SOL    HW213301   7.713   5.201   3.809 -0.8913  0.2597 -0.0423
 4077SOL     OW13302   7.743   1.437   6.187 -0.4343  0.2618  0.7762
 4077SOL    HW113303   7.672   1.447   6.124 -0.9091 -0.1650  1.2316
 4077SOL    HW213304   7.755   1.524   6.224 -0.1201  0.5228  0.0617
 4078SOL     OW13305   4.568   1.425   1.244 -0.3255 -0.1083 -0.4502
 4078SOL    HW113306   4.627   1.447   1.172  0.8652 -1.0827  0.2154
 4078SOL    HW213307   4.580   1.496   1.307  1.9486 -1.4510  0.7431
 4079SOL     OW13308   5.700   7.371   2.012  0.2532  0.8069 -0.0987
 4079SOL    HW113309   5.672   7.463   2.002  1.1650  1.0129 -0.8698
 4079SOL    HW213310   5.794   7.373   1.999  0.1014 -0.4586 -1.6484
 4080SOL     OW13311   7.291   2.969   5.813 -0.1017 -0.2917  0.3579
 4080SOL    HW113312   7.340   3.015   5.744 -1.0814  0.9491  0.4519
 4080SOL    HW213313   7.320   2.878   5.806  0.2513 -0.0912 -1.3133
 4081SOL     OW13314   3.397   6.860   5.459 -0.2367 -0.3034 -0.6572
 4081SOL    HW113315   3.432   6.815   5.536  3.4277 -0.3375 -2.1523
 4081SOL    HW213316   3.453   6.937   5.448 -0.3974 -0.4747 -3.4340
 4082SOL     OW13317   7.404   7.166   6.965 -0.4732 -0.0129 -0.1137
 4082SOL    HW113318   7.490   7.125   6.976  0.0290  0.9420 -0.3523
 4082SOL    HW213319   7.394   7.177   6.871 -0.0376  1.5297 -0.0010
 4083SOL     OW13320   1.323   2.483   2.173 -0.1649  0.3668 -0.2823
 4083SOL    HW113321   1.233   2.490   2.203  1.0731  3.8586  3.4987
 4083SOL    HW213322   1.358   2.406   2.218 -0.6726  0.3333  0.0588
 4084SOL     OW13323   5.643   5.957   7.767 -0.0553 -0.2609  0.1768
 4084SOL    HW113324   5.562   5.986   7.809  0.8603  3.0808 -0.0582
 4084SOL    HW213325   5.712   5.989   7.824  1.1454 -1.7230 -0.4095
 4085SOL     OW13326   4.936   1.058   5.857 -0.2216 -0.1478 -0.3007
 4085SOL    HW113327   4.904   1.038   5.769 -2.6157 -0.8010  0.6381
 4085SOL    HW213328   4.922   0.977   5.906  2.7534 -0.3978  0.3185
 4086SOL     OW13329   2.770   7.234   1.779  0.3641 -0.4499  0.2011
 4086SOL    HW113330   2.829   7.216   1.853  1.6163  0.4072 -0.5454
 4086SOL    HW213331   2.710   7.301   1.812 -0.2856 -1.3904  0.9972
 4087SOL     OW13332   1.409   0.928   6.898 -0.3850  0.0481 -0.2453
 4087SOL    HW113333   1.410   0.836   6.872  1.6836  0.2893 -1.2650
 4087SOL    HW213334   1.356   0.972   6.831  0.3513 -0.1286 -0.9563
 4088SOL     OW13335   0.167   7.967   4.002 -0.7157  0.8920  0.0011
 4088SOL    HW113336   0.140   7.906   3.934 -0.7605 -1.3848  1.9322
 4088SOL    HW213337   0.093   8.027   4.013 -1.5806 -0.0851 -0.4427
 4089SOL     OW13338   2.809   3.670   5.510 -0.0997  0.1689  0.1013
 4089SOL    HW113339   2.754   3.747   5.496  0.6027  0.7461  0.4838
 4089SOL    HW213340   2.753   3.610   5.559 -0.1146  1.0910  1.2519
 4090SOL     OW13341   3.996   2.886   1.585  0.1442 -0.5260  0.2625
 4090SOL    HW113342   4.015   2.951   1.653 -0.1107  0.9720 -1.0512
 4090SOL    HW213343   3.925   2.833   1.623  0.2744  0.0242  1.3154
 4091SOL     OW13344   3.065   1.778   4.757  0.2556 -0.3322 -0.3407
 4091SOL    HW113345   3.100   1.754   4.842  0.0177 -0.8107 -0.3707
 4091SOL    HW213346   3.110   1.860   4.734  0.0385  0.0098  0.4138
 4092SOL     OW13347   4.857   2.927   2.227 -0.5981 -0.7133  0.1983
 4092SOL    HW113348   4.940   2.944   2.271 -0.1290 -2.6803  0.1393
 4092SOL    HW213349   4.856   2.987   2.152  0.3984 -0.1384  0.6276
 4093SOL     OW13350   2.929   2.272   6.589  0.6213 -0.3112 -0.1733
 4093SOL    HW113351   2.880   2.353   6.576 -0.1946 -0.8486 -0.5128
 4093SOL    HW213352   2.943   2.238   6.501 -0.9070 -1.6153  0.0389
 4094SOL     OW13353   0.025   4.404   2.917  0.5763  0.4580  0.0826
 4094SOL    HW113354   0.106   4.393   2.868 -0.5223 -0.0992 -1.7450
 4094SOL    HW213355   0.014   4.499   2.923 -0.1062  0.6306 -2.4286
 4095SOL     OW13356   7.719   7.775   7.282  0.1745 -0.1538 -0.0354
 4095SOL    HW113357   7.755   7.742   7.199 -2.1015 -0.4356 -0.9844
 4095SOL    HW213358   7.756   7.716   7.348 -0.1382 -1.7331 -1.1847
 4096SOL     OW13359   4.811   5.837   7.877  0.8838 -0.6495 -0.6596
 4096SOL    HW113360   4.775   5.751   7.853 -2.0226  0.5993 -1.1738
 4096SOL    HW213361   4.742   5.899   7.855  2.4490  1.7472  0.7305
 4097SOL     OW13362   6.041   3.477   5.277 -0.2180 -0.3729 -0.2724
 4097SOL    HW113363   6.102   3.528   5.224  0.4366 -1.2411 -0.3675
 4097SOL    HW213364   6.050   3.514   5.365 -0.0479 -0.0550 -0.4211
 4098SOL     OW13365   6.889   0.580   0.882 -0.2864  0.1218  0.5141
 4098SOL    HW113366   6.832   0.628   0.823 -0.9922 -1.2230  0.0514
 4098SOL    HW213367   6.896   0.635   0.960 -2.8349 -0.0033  0.8947
 4099SOL     OW13368   1.534   6.040   5.482 -0.6139  0.0270  0.2665
 4099SOL    HW113369   1.565   6.063   5.394 -0.7593 -0.6886  0.0178
 4099SOL    HW213370   1.608   5.995   5.523 -0.9042 -0.5986  0.1140
 4100SOL     OW13371   1.483   1.058   5.426 -0.6197  0.1966  0.0750
 4100SOL    HW113372   1.450   1.042   5.338 -2.4141  0.0546  0.7228
 4100SOL    HW213373   1.455   1.147   5.447 -2.8329 -0.7282  1.5145
 4101SOL     OW13374   1.489   1.364   7.838 -0.1792  0.7520 -0.2437
 4101SOL    HW113375   1.485   1.295   7.903 -2.0722  0.7577 -0.3248
 4101SOL    HW213376   1.414   1.420   7.856  0.8718  2.3643 -0.6677
 4102SOL     OW13377   1.731   3.753   5.979 -0.1125  0.7169  0.3783
 4102SOL    HW113378   1.797   3.818   6.004  0.0724  0.1971  1.2624
 4102SOL    HW213379   1.648   3.790   6.009 -0.0486  0.6857  0.5890
 4103SOL     OW13380   1.991   0.576   5.979  0.0351  0.3321 -0.1533
 4103SOL    HW113381   2.060   0.531   5.930  0.0225 -0.4384  0.5063
 4103SOL    HW213382   1.913   0.569   5.924  0.0344 -0.4668 -0.0545
 4104SOL     OW13383   7.840   1.378   4.744  0.2991  0.1731  0.2196
 4104SOL    HW113384   7.861   1.460   4.698 -0.3596 -0.2287 -0.8423
 4104SOL    HW213385   7.923   1.332   4.750  0.3827  0.1893 -0.6899
 4105SOL     OW13386   0.850   7.298   4.670 -0.2921 -0.0378  0.1325
 4105SOL    HW113387   0.778   7.346   4.712 -0.5392  1.0326 -1.3910
 4105SOL    HW213388   0.893   7.365   4.616  1.3677 -0.8494  0.4163
 4106SOL     OW13389   3.243   4.171   7.757 -0.0233  0.4555 -0.3608
 4106SOL    HW113390   3.238   4.189   7.851  2.1342 -3.5069  0.7062
 4106SOL    HW213391   3.300   4.240   7.723  2.6233 -0.3135  2.1316
 4107SOL     OW13392   7.149   2.103   7.054  0.5976  0.6159 -0.1236
 4107SOL    HW113393   7.184   2.124   7.141  0.6312  1.1121 -0.2560
 4107SOL    HW213394   7.066   2.151   7.050 -1.3171 -2.2749  1.0806
 4108SOL     OW13395   0.856   5.559   7.933 -0.2483  0.3427  0.0711
 4108SOL    HW113396   0.819   5.636   7.890  0.4748  0.7465  0.1695
 4108SOL    HW213397   0.859   5.492   7.864 -1.3259  0.2409  0.1089
 4109SOL     OW13398   0.058   3.560   4.471  0.2825  0.4268  0.1085
 4109SOL    HW113399   0.104   3.572   4.388  0.9446  2.5037  0.6875
 4109SOL    HW213400   0.097   3.627   4.529 -1.2007  0.0458  1.6236
 4110SOL     OW13401   0.847   4.382   3.989 -0.9810  0.1881 -0.6410
 4110SOL    HW113402   0.878   4.305   3.942 -0.7408 -0.1314  0.0318
 4110SOL    HW213403   0.807   4.347   4.069  0.7261  0.8431  0.5506
 4111SOL     OW13404   7.965   5.426   4.835  0.1784 -0.8449 -0.0268
 4111SOL    HW113405   7.910   5.349   4.843 -0.3252 -0.5204 -0.3290
 4111SOL    HW213406   8.029   5.403   4.768  0.3673 -1.1932  0.2689
 4112SOL     OW13407   0.416   5.326   2.099 -0.0157 -0.6027 -0.3729
 4112SOL    HW113408   0.356   5.329   2.174 -0.4202 -0.9814 -0.6775
 4112SOL    HW213409   0.387   5.251   2.048  0.0247 -0.1229 -1.1091
 4113SOL     OW13410   2.332   7.095   5.747  0.0106  0.1421  0.4169
 4113SOL    HW113411   2.423   7.117   5.767  0.1391 -0.9964  1.1710
 4113SOL    HW213412   2.282   7.127   5.822 -0.5812  2.8564 -0.9928
 4114SOL     OW13413   1.616   4.757   7.349 -0.3557  0.4624  0.7022
 4114SOL    HW113414   1.603   4.761   7.444 -0.9957  2.2783  0.5615
 4114SOL    HW213415   1.534   4.722   7.315 -0.5538  0.8987  0.7302
 4115SOL     OW13416   3.858   1.819   0.832 -0.6651  0.1483 -0.9380
 4115SOL    HW113417   3.796   1.841   0.901  0.4702  1.0208 -0.1726
 4115SOL    HW213418   3.804   1.774   0.766 -1.3968 -3.1329  1.5891
 4116SOL     OW13419   1.443   1.729   2.658  0.6015 -1.0210  0.0487
 4116SOL    HW113420   1.509   1.780   2.611  1.3545 -3.1260 -1.3412
 4116SOL    HW213421   1.373   1.716   2.594  0.2234 -1.3184  0.5214
 4117SOL     OW13422   6.622   6.271   2.014  0.3831  0.2627 -0.2456
 4117SOL    HW113423   6.649   6.194   2.065  1.7545  1.1325  0.4086
 4117SOL    HW213424   6.565   6.319   2.074  1.2554  0.8176  0.1650
 4118SOL     OW13425   5.752   1.756   0.216 -0.4204 -0.3492  0.5850
 4118SOL    HW113426   5.730   1.846   0.191  0.4167  0.0670  1.2846
 4118SOL    HW213427   5.769   1.712   0.133  1.3274  0.7377  0.3160
 4119SOL     OW13428   2.260   8.160   5.700 -0.5817  0.1114 -0.3679
 4119SOL    HW113429   2.282   8.171   5.608  0.4539 -2.4353 -0.5086
 4119SOL    HW213430   2.285   8.069   5.720  1.8830  1.3586  3.1475
 4120SOL     OW13431   7.668   3.615   0.456 -0.0855 -0.4507  0.4466
 4120SOL    HW113432   7.605   3.560   0.408  0.1012 -1.0029  0.8319
 4120SOL    HW213433   7.617   3.652   0.527 -0.0451 -0.6811  0.5971
 4121SOL     OW13434   7.686   7.671   1.529  0.6070 -0.0965  0.5217
 4121SOL    HW113435   7.644   7.661   1.444  0.1071  0.2573  0.7209
 4121SOL    HW213436   7.613   7.683   1.590  0.9559 -0.4029  1.0056
 4122SOL     OW13437   6.746   3.976   0.379  0.0503 -0.1888  0.0747
 4122SOL    HW113438   6.835   3.948   0.361  0.0516 -0.0985 -0.0645
 4122SOL    HW213439   6.747   4.004   0.470  0.8515  2.4238 -0.6595
 4123SOL     OW13440   0.353   7.222   4.161 -0.1453 -0.4743  0.8517
 4123SOL    HW113441   0.388   7.228   4.250 -0.7100 -0.0558  1.0490
 4123SOL    HW213442   0.356   7.128   4.140 -0.8276 -0.6877  1.6496
 4124SOL     OW13443   6.303   1.687   2.510 -0.0274  0.0048 -0.0332
 4124SOL    HW113444   6.294   1.647   2.597 -0.2035  0.3749  0.1203
 4124SOL    HW213445   6.238   1.642   2.457 -0.7123  0.5661  0.3161
 4125SOL     OW13446   1.531   5.760   1.158 -0.5298 -0.3514 -0.5155
 4125SOL    HW113447   1.443   5.770   1.194 -0.6435 -1.3282 -0.4812
 4125SOL    HW213448   1.557   5.672   1.185  1.1018  0.5078  0.8696
 4126SOL     OW13449   4.510   5.184   1.956 -0.1649  0.0243  0.2228
 4126SOL    HW113450   4.494   5.090   1.954 -2.2549  0.3291  0.5240
 4126SOL    HW213451   4.535   5.202   2.047 -0.7419 -0.1217  0.4172
 4127SOL     OW13452   5.593   2.260   1.235 -0.3526  0.0933 -0.0785
 4127SOL    HW113453   5.503   2.229   1.230 -0.5663  0.5977  0.5247
 4127SOL    HW213454   5.596   2.313   1.314  0.6104 -0.3612  0.2104
 4128SOL     OW13455   7.827   1.505   4.098 -0.6038  0.3313 -0.3108
 4128SOL    HW113456   7.861   1.542   4.179 -1.2505  0.6178 -0.1645
 4128SOL    HW213457   7.765   1.571   4.066 -1.2647 -0.3209 -0.3998
 4129SOL     OW13458   6.201   7.577   3.790 -0.5136 -0.0475  0.3312
 4129SOL    HW113459   6.170   7.642   3.727  1.2592 -0.0995 -0.6275
 4129SOL    HW213460   6.170   7.494   3.756 -0.4155  0.0241  0.0666
 4130SOL     OW13461   1.080   4.400   4.504 -0.1737 -0.7980  0.0646
 4130SOL    HW113462   1.069   4.310   4.536 -0.0451 -0.1704  1.9979
 4130SOL    HW213463   0.991   4.430   4.485 -0.2472 -1.1913 -0.2350
 4131SOL     OW13464   2.170   6.004   7.155 -0.5169 -0.1892  0.0678
 4131SOL    HW113465   2.208   5.992   7.069  0.8221 -0.1384  0.6311
 4131SOL    HW213466   2.088   6.050   7.139 -0.1788  0.0174 -1.1516
 4132SOL     OW13467   1.389   5.783   3.280  0.9948 -0.4489  0.4633
 4132SOL    HW113468   1.350   5.745   3.358  1.5624 -1.1225  0.4234
 4132SOL    HW213469   1.372   5.719   3.211 -1.2265  0.9773 -0.4619
 4133SOL     OW13470   7.583   3.086   7.188  0.5746  0.0868 -0.6025
 4133SOL    HW113471   7.493   3.101   7.217  0.4333 -0.6555 -0.6435
 4133SOL    HW213472   7.626   3.171   7.200  0.2161  0.1221  0.6690
 4134SOL     OW13473   1.832   0.908   8.124 -0.1149  0.2010  0.3856
 4134SOL    HW113474   1.758   0.901   8.184  0.6574  0.4761  1.3924
 4134SOL    HW213475   1.902   0.948   8.176  1.3252 -1.7004  0.0197
 4135SOL     OW13476   2.969   5.908   8.134  0.7374  0.2123 -0.6920
 4135SOL    HW113477   2.977   5.814   8.151 -0.6831 -0.0767 -1.5468
 4135SOL    HW213478   3.027   5.924   8.060  3.7633  0.7313  1.5644
 4136SOL     OW13479   5.983   8.066   3.513  0.0774  0.0009  0.4648
 4136SOL    HW113480   5.959   8.085   3.422 -1.5068 -1.2147  0.5813
 4136SOL    HW213481   6.042   7.991   3.507 -1.2378 -1.0815  0.4657
 4137SOL     OW13482   3.555   6.233   2.067 -0.0925 -0.0090  0.0023
 4137SOL    HW113483   3.609   6.212   1.991 -0.5806 -0.7349 -0.1617
 4137SOL    HW213484   3.532   6.325   2.057  0.6673  0.1567 -0.2095
 4138SOL     OW13485   6.061   7.632   6.521  0.2135 -0.2054  0.0743
 4138SOL    HW113486   6.155   7.617   6.530  0.2365  0.1159  0.4183
 4138SOL    HW213487   6.051   7.671   6.434  0.6095  1.2641  0.6498
 4139SOL     OW13488   4.241   6.905   0.992  0.3682 -0.4280 -0.2810
 4139SOL    HW113489   4.235   6.948   1.077 -2.0107  0.6194 -0.9001
 4139SOL    HW213490   4.334   6.911   0.969  0.6063  1.8092  0.9717
 4140SOL     OW13491   0.150   6.300   6.014 -0.3656 -0.1343 -0.0792
 4140SOL    HW113492   0.234   6.273   5.978 -0.1696 -1.4718  1.3276
 4140SOL    HW213493   0.118   6.367   5.952  1.2529 -0.3086 -1.1498
 4141SOL     OW13494   5.739   1.509   3.309  0.3454  0.1541  0.3082
 4141SOL    HW113495   5.734   1.604   3.298 -1.1103  0.4765  2.8471
 4141SOL    HW213496   5.819   1.495   3.360  0.8595 -0.0790 -0.5387
 4142SOL     OW13497   6.142   1.934   4.579 -0.6814  0.2795  0.5225
 4142SOL    HW113498   6.102   2.020   4.590  0.7677  1.0198  0.1647
 4142SOL    HW213499   6.164   1.929   4.486 -0.4721 -0.3532  0.5974
 4143SOL     OW13500   4.896   3.806   0.363 -0.1990  0.2495  0.1218
 4143SOL    HW113501   4.810   3.845   0.343 -0.4909  0.1646  1.1438
 4143SOL    HW213502   4.919   3.842   0.448 -1.2072 -2.9113  1.8958
 4144SOL     OW13503   2.119   5.296   6.530 -0.2935 -0.1597  0.2020
 4144SOL    HW113504   2.055   5.357   6.567 -0.8294  1.4447 -2.9982
 4144SOL    HW213505   2.067   5.222   6.499 -0.2770 -0.0375 -0.1218
 4145SOL     OW13506   2.541   3.779   7.573  0.2223 -0.9027  0.2069
 4145SOL    HW113507   2.553   3.732   7.490  0.0052  1.1486 -1.0484
 4145SOL    HW213508   2.573   3.867   7.555  0.4239 -0.4873  2.4222
 4146SOL     OW13509   5.064   2.089   5.890  0.1312 -0.4206 -0.3045
 4146SOL    HW113510   5.015   2.011   5.863  0.8287 -0.9578 -0.0571
 4146SOL    HW213511   5.154   2.070   5.862  0.0684  0.9079 -1.5204
 4147SOL     OW13512   1.792   2.494   1.123 -0.3074  0.2377  0.3171
 4147SOL    HW113513   1.728   2.428   1.098 -0.8979  0.7687  0.3980
 4147SOL    HW213514   1.779   2.565   1.060  2.2987 -0.8716 -1.6503
 4148SOL     OW13515   2.956   2.953   5.563  0.6688  0.6110 -0.1318
 4148SOL    HW113516   3.010   2.982   5.636 -1.1082 -0.5154  1.7366
 4148SOL    HW213517   2.906   2.880   5.598 -0.7843  0.4962 -2.2791
 4149SOL     OW13518   1.984   3.856   6.060 -0.1790  0.4270 -0.0565
 4149SOL    HW113519   2.000   3.855   6.154 -0.9179 -0.5777  0.0787
 4149SOL    HW213520   2.027   3.777   6.027 -1.3057 -0.1056 -0.2972
 4150SOL     OW13521   4.851   8.140   1.057 -0.1013  0.1070  0.1194
 4150SOL    HW113522   4.777   8.079   1.055  0.1471 -0.1905 -0.0962
 4150SOL    HW213523   4.925   8.089   1.027  0.0399  0.6117 -0.4108
 4151SOL     OW13524   8.114   4.172   6.958  0.3754 -0.0215 -0.5719
 4151SOL    HW113525   8.060   4.167   7.037  1.0595  2.0879  0.1177
 4151SOL    HW213526   8.064   4.226   6.898  1.4790  1.6666 -0.0544
 4152SOL     OW13527   7.557   6.958   1.800  0.4818 -0.4617 -0.2991
 4152SOL    HW113528   7.476   6.913   1.825  0.9623 -1.3992 -0.3791
 4152SOL    HW213529   7.538   6.996   1.714 -0.4274  0.8207  0.4383
 4153SOL     OW13530   2.532   1.929   6.571 -0.1642 -0.1653 -0.2640
 4153SOL    HW113531   2.504   2.019   6.554 -0.3862 -0.3111 -0.6851
 4153SOL    HW213532   2.548   1.892   6.484  1.3418 -0.0903 -0.0344
 4154SOL     OW13533   4.186   7.619   6.738 -0.2688 -0.0083  0.0330
 4154SOL    HW113534   4.095   7.635   6.713  0.1145  0.0759 -1.3767
 4154SOL    HW213535   4.195   7.662   6.823 -1.2169  1.0547 -0.3744
 4155SOL     OW13536   7.942   3.722   1.677 -0.3412  0.0683 -0.1951
 4155SOL    HW113537   7.961   3.639   1.633  1.3205  1.0727 -1.4841
 4155SOL    HW213538   7.883   3.698   1.749  0.8871 -2.3761  0.0946
 4156SOL     OW13539   4.324   2.596   5.189  0.3451  0.5086 -0.1965
 4156SOL    HW113540   4.308   2.552   5.272  0.7194 -1.0073 -0.8913
 4156SOL    HW213541   4.418   2.612   5.187  0.4781 -0.2798 -0.6996
 4157SOL     OW13542   1.754   7.664   4.941  0.3780 -0.0508 -0.3467
 4157SOL    HW113543   1.828   7.604   4.944  1.3610  1.1309 -0.2320
 4157SOL    HW213544   1.768   7.716   4.861  0.1650  0.7757  0.1397
 4158SOL     OW13545   2.208   5.715   7.503  0.4883  0.0770  0.0432
 4158SOL    HW113546   2.154   5.730   7.581  0.7399  1.1214  0.0371
 4158SOL    HW213547   2.181   5.629   7.472 -1.2135  0.5732  0.0085
 4159SOL     OW13548   5.441   0.136   0.961 -0.1326  0.3448  0.1733
 4159SOL    HW113549   5.366   0.084   0.930  1.1035 -1.1922 -0.3334
 4159SOL    HW213550   5.518   0.089   0.929  1.0995  1.2494  1.6941
 4160SOL     OW13551   4.284   0.365   3.710 -0.6425 -0.3761 -0.3257
 4160SOL    HW113552   4.241   0.280   3.694  1.1527 -1.5231  0.6007
 4160SOL    HW213553   4.378   0.345   3.709 -0.1895  1.0514  2.5130
 4161SOL     OW13554   1.493   5.855   2.853  0.3228  0.0704  0.1154
 4161SOL    HW113555   1.438   5.795   2.804  1.5640 -0.9054 -0.1344
 4161SOL    HW213556   1.554   5.891   2.788  0.2026  0.8896  0.4383
 4162SOL     OW13557   1.354   0.075   2.615 -0.6073  0.5312  0.3896
 4162SOL    HW113558   1.420   0.142   2.637 -0.3366  0.4158 -0.0605
 4162SOL    HW213559   1.288   0.123   2.565 -0.1817  0.3722 -0.3330
 4163SOL     OW13560   0.372   3.593   2.298  0.6594 -0.8119  0.1383
 4163SOL    HW113561   0.415   3.510   2.319  1.2312 -0.2945  1.0580
 4163SOL    HW213562   0.441   3.659   2.307  0.1162 -0.1872 -0.1921
 4164SOL     OW13563   7.596   1.870   0.252  0.5807  0.3373  0.0543
 4164SOL    HW113564   7.578   1.822   0.171 -0.6957 -0.3331  0.7055
 4164SOL    HW213565   7.602   1.802   0.319 -1.0471  1.0154  0.9627
 4165SOL     OW13566   6.433   5.897   7.874  0.0762  0.2525 -0.0606
 4165SOL    HW113567   6.484   5.893   7.955  0.9434 -1.9194 -0.6360
 4165SOL    HW213568   6.427   5.806   7.845 -0.6576  0.9167 -2.1753
 4166SOL     OW13569   3.791   6.129   5.508 -0.0435  0.0697 -0.0312
 4166SOL    HW113570   3.854   6.108   5.439  0.0513  0.7688 -0.1685
 4166SOL    HW213571   3.839   6.117   5.590  0.0176 -0.1978 -0.1053
 4167SOL     OW13572   3.860   1.941   7.746 -0.4431 -0.0922 -0.2218
 4167SOL    HW113573   3.927   1.873   7.757 -0.3679  0.0534  0.2699
 4167SOL    HW213574   3.880   1.981   7.662 -0.1096 -0.2732 -0.2313
 4168SOL     OW13575   0.246   4.902   1.173 -0.3811  0.1211  0.2290
 4168SOL    HW113576   0.301   4.860   1.108 -1.7858 -0.6623 -0.5046
 4168SOL    HW213577   0.157   4.893   1.139 -0.9029  2.1886  0.8914
 4169SOL     OW13578   0.477   2.498   3.036  0.8025  0.2137 -0.0057
 4169SOL    HW113579   0.538   2.529   2.969  0.4937  1.9850  0.4901
 4169SOL    HW213580   0.396   2.480   2.988  1.2285 -0.6680 -0.4225
 4170SOL     OW13581   1.435   6.461   4.598  0.6609 -0.3985  0.3570
 4170SOL    HW113582   1.386   6.459   4.680  0.6086  1.5563  0.4336
 4170SOL    HW213583   1.452   6.369   4.577 -0.8019 -1.0068  1.6601
 4171SOL     OW13584   1.943   2.451   1.930 -0.2353 -0.4006 -0.3662
 4171SOL    HW113585   1.982   2.383   1.985  1.9929  1.0619 -0.0070
 4171SOL    HW213586   2.008   2.522   1.929 -1.4572  0.8094 -2.5647
 4172SOL     OW13587   6.194   2.825   2.631 -0.3025  0.2157  0.0746
 4172SOL    HW113588   6.256   2.898   2.640 -0.1978  0.3199 -1.3401
 4172SOL    HW213589   6.113   2.866   2.600 -0.0125 -0.3428 -1.4872
 4173SOL     OW13590   5.939   4.806   4.237  0.1064  0.2187  0.2043
 4173SOL    HW113591   5.960   4.839   4.325  2.3017 -0.0011 -0.1736
 4173SOL    HW213592   5.881   4.872   4.200  1.6583  1.9578  0.7095
 4174SOL     OW13593   3.332   2.198   1.486  0.2956 -0.0797 -0.4866
 4174SOL    HW113594   3.377   2.178   1.404 -0.5881  0.6682 -1.1612
 4174SOL    HW213595   3.240   2.204   1.463 -0.1430 -1.2001  0.8111
 4175SOL     OW13596   7.514   4.561   2.056  0.0888 -0.1114  0.3344
 4175SOL    HW113597   7.427   4.526   2.037  0.4553 -0.9332  0.1758
 4175SOL    HW213598   7.573   4.513   1.999  0.3504  2.4744 -1.7949
 4176SOL     OW13599   5.270   1.162   3.510 -0.0510 -0.8161 -0.0304
 4176SOL    HW113600   5.208   1.198   3.447 -0.6873  2.0010  2.0472
 4176SOL    HW213601   5.356   1.178   3.471 -0.4564 -0.4134 -0.7861
 4177SOL     OW13602   1.725   7.730   5.939  0.3465 -0.4189  0.0622
 4177SOL    HW113603   1.632   7.717   5.956 -0.1376 -2.2268 -3.1426
 4177SOL    HW213604   1.769   7.701   6.019 -1.7548 -1.2417  1.0000
 4178SOL     OW13605   5.646   0.169   5.699  0.0418 -0.3332  0.0333
 4178SOL    HW113606   5.560   0.209   5.691 -0.3696 -0.7752  1.7726
 4178SOL    HW213607   5.629   0.075   5.697  0.7002 -0.4490 -1.3177
 4179SOL     OW13608   3.949   4.451   0.601  0.6650 -0.3705  0.1707
 4179SOL    HW113609   3.946   4.546   0.588  1.4806 -0.4299 -0.4924
 4179SOL    HW213610   3.948   4.415   0.512 -2.8433 -1.1332  0.3537
 4180SOL     OW13611   2.559   7.146   5.895 -0.1701 -0.0285  0.1296
 4180SOL    HW113612   2.585   7.064   5.936  1.5144  0.3186 -0.1486
 4180SOL    HW213613   2.607   7.149   5.813 -2.0385  0.1707 -1.0166
 4181SOL     OW13614   3.077   2.352   3.164  0.3597 -0.7903 -0.1878
 4181SOL    HW113615   3.094   2.258   3.169 -0.3999 -1.0028 -1.2702
 4181SOL    HW213616   3.146   2.392   3.217 -0.4461 -2.0645  1.9528
 4182SOL     OW13617   4.485   6.907   0.377  0.1665  0.0131  0.1464
 4182SOL    HW113618   4.503   6.984   0.324 -0.3119  0.1616  0.1924
 4182SOL    HW213619   4.557   6.903   0.440 -1.7897  2.7347  2.8072
 4183SOL     OW13620   7.455   6.967   5.347 -0.5336  0.7296 -0.1178
 4183SOL    HW113621   7.420   7.054   5.333  0.4988  1.1288 -0.3180
 4183SOL    HW213622   7.405   6.932   5.420 -0.1545  1.9567  0.7559
 4184SOL     OW13623   4.002   0.800   2.433 -0.3394  1.1896  0.7965
 4184SOL    HW113624   4.012   0.821   2.341 -1.1992 -0.2058  0.3583
 4184SOL    HW213625   4.091   0.781   2.463 -0.3353 -1.2541 -0.5189
 4185SOL     OW13626   7.697   7.455   0.988 -0.1176  0.3964 -0.6835
 4185SOL    HW113627   7.689   7.360   0.992  1.1465  0.2690 -0.6019
 4185SOL    HW213628   7.626   7.483   0.929 -0.3856 -0.6092 -0.8599
 4186SOL     OW13629   5.491   3.273   0.527  0.3144 -0.8811  0.0564
 4186SOL    HW113630   5.584   3.294   0.529  0.3112 -0.6460 -1.2640
 4186SOL    HW213631   5.470   3.262   0.434 -1.2375  0.3558  0.1959
 4187SOL     OW13632   6.145   6.891   3.319 -0.5925  0.0070 -0.0847
 4187SOL    HW113633   6.223   6.857   3.276  0.1738  0.4800  0.8719
 4187SOL    HW213634   6.142   6.844   3.403 -0.6798  0.7893  0.3646
 4188SOL     OW13635   4.548   6.927   6.565  0.2963  0.3119 -0.1393
 4188SOL    HW113636   4.599   6.880   6.631  1.7852 -0.4516 -1.7425
 4188SOL    HW213637   4.534   7.014   6.602  1.5123  0.0592  0.9772
 4189SOL     OW13638   2.994   5.332   3.532  0.5261  0.0125  0.0558
 4189SOL    HW113639   2.958   5.418   3.554 -2.1448 -0.7369 -0.8908
 4189SOL    HW213640   2.977   5.323   3.438 -1.8743 -2.5815  0.6109
 4190SOL     OW13641   3.759   5.326   5.218  0.5768  0.3704  0.1453
 4190SOL    HW113642   3.847   5.317   5.181  0.0841 -0.2928 -0.9065
 4190SOL    HW213643   3.751   5.420   5.236  1.0517  0.6323 -0.9160
 4191SOL     OW13644   2.244   0.574   4.304 -0.5446  0.1744  0.1029
 4191SOL    HW113645   2.203   0.530   4.379  0.5603  0.3553  0.8347
 4191SOL    HW213646   2.279   0.655   4.340  0.3041  0.1062 -0.5328
 4192SOL     OW13647   4.462   7.902   6.735 -0.1283 -0.4151 -0.2542
 4192SOL    HW113648   4.475   7.814   6.699  0.2263 -0.0536 -1.0451
 4192SOL    HW213649   4.545   7.922   6.778 -0.2071 -0.4651 -0.0786
 4193SOL     OW13650   6.589   6.389   4.641 -0.5326 -0.1120 -0.3734
 4193SOL    HW113651   6.539   6.418   4.565 -0.1176  2.9525  0.4051
 4193SOL    HW213652   6.648   6.322   4.607 -0.1044  1.4152 -2.8350
 4194SOL     OW13653   3.331   1.815   0.084 -0.5102 -0.0596  0.4292
 4194SOL    HW113654   3.301   1.870   0.156  1.8283  0.5007  1.0629
 4194SOL    HW213655   3.349   1.877   0.013  1.8967  0.0658  1.0630
 4195SOL     OW13656   2.741   2.660   4.183 -0.8743  0.3800  0.0148
 4195SOL    HW113657   2.714   2.703   4.264 -0.7437  0.3946  0.0507
 4195SOL    HW213658   2.812   2.602   4.209 -1.5109 -0.3817  0.0833
 4196SOL     OW13659   8.029   7.159   7.669 -0.2888 -0.2387  0.8501
 4196SOL    HW113660   8.037   7.231   7.731  1.9781 -0.4562  0.8941
 4196SOL    HW213661   8.029   7.201   7.583  0.5325 -0.1555  0.8895
 4197SOL     OW13662   6.672   7.108   7.327  0.5194  0.8290  0.4761
 4197SOL    HW113663   6.768   7.101   7.333  0.5396  0.4025 -0.1879
 4197SOL    HW213664   6.642   7.017   7.336  0.3352  0.6313 -1.6796
 4198SOL     OW13665   0.360   5.097   1.902  0.2898 -0.1202 -0.3193
 4198SOL    HW113666   0.293   5.029   1.890  0.0424  0.2059 -0.8031
 4198SOL    HW213667   0.442   5.048   1.909  0.2853 -0.4357 -1.9609
 4199SOL     OW13668   1.998   5.949   0.802  0.1046  0.0129 -0.0111
 4199SOL    HW113669   2.002   5.956   0.897 -0.3889  0.0810  0.0060
 4199SOL    HW213670   1.909   5.921   0.783  0.1492  0.1596 -0.4619
 4200SOL     OW13671   0.514   6.170   4.878  0.0124 -0.3306  0.3389
 4200SOL    HW113672   0.466   6.095   4.913 -0.2586 -0.5134 -0.3869
 4200SOL    HW213673   0.504   6.238   4.944 -0.1995 -0.7595  0.7595
 4201SOL     OW13674   1.379   6.183   1.120  0.4685  0.1092  0.2035
 4201SOL    HW113675   1.328   6.192   1.200  0.1639  1.0765 -0.0880
 4201SOL    HW213676   1.351   6.099   1.082 -0.7792  0.5485  0.1326
 4202SOL     OW13677   1.568   5.281   1.921 -0.6042  0.4841 -0.4008
 4202SOL    HW113678   1.604   5.284   2.009 -1.5075 -0.4025  0.0270
 4202SOL    HW213679   1.499   5.214   1.925  1.4443 -1.9831 -2.5688
 4203SOL     OW13680   2.333   6.104   5.333  0.0830  0.2553 -0.2116
 4203SOL    HW113681   2.269   6.165   5.371  0.5444 -0.3961  1.7111
 4203SOL    HW213682   2.294   6.018   5.345  0.4641  0.0003 -0.7840
 4204SOL     OW13683   7.661   5.688   4.754 -0.2687  0.0278  0.2560
 4204SOL    HW113684   7.655   5.780   4.780  2.0317 -0.2967  2.2588
 4204SOL    HW213685   7.748   5.680   4.716 -0.3051 -1.4095  0.4351
 4205SOL     OW13686   3.293   4.609   0.500  0.2467 -0.4709  0.4672
 4205SOL    HW113687   3.371   4.656   0.530  0.7164 -0.1931 -1.1189
 4205SOL    HW213688   3.227   4.677   0.487 -0.5493 -0.7738  2.4917
 4206SOL     OW13689   0.307   4.846   7.815  0.7377 -0.2135 -0.2909
 4206SOL    HW113690   0.384   4.902   7.814  0.1995  0.5742  0.5719
 4206SOL    HW213691   0.342   4.757   7.813  1.6272  0.1424 -0.9284
 4207SOL     OW13692   6.191   6.678   5.876  0.2405  0.4688  0.2560
 4207SOL    HW113693   6.139   6.702   5.799  0.4292 -2.3301 -0.8783
 4207SOL    HW213694   6.158   6.734   5.946 -1.2098  1.8601 -1.4466
 4208SOL     OW13695   3.022   5.011   2.911 -0.2002  0.3317  0.0202
 4208SOL    HW113696   3.106   4.975   2.943  0.5000  1.6387 -0.2956
 4208SOL    HW213697   3.034   5.106   2.913 -1.7798  0.5533  0.2043
 4209SOL     OW13698   4.755   1.550   1.834 -0.5643 -0.1559  0.1326
 4209SOL    HW113699   4.763   1.645   1.819  0.6848 -0.2341  0.2530
 4209SOL    HW213700   4.845   1.519   1.839 -0.9340 -1.6346 -1.6001
 4210SOL     OW13701   3.066   2.699   3.910  0.4329 -0.3179 -0.1227
 4210SOL    HW113702   2.972   2.715   3.920  0.4725 -0.0185 -0.2258
 4210SOL    HW213703   3.104   2.729   3.992  0.8743  3.0321 -1.3783
 4211SOL     OW13704   0.605   2.080   6.225  0.0967 -0.5738  0.7244
 4211SOL    HW113705   0.659   2.001   6.234 -0.3709 -1.2141 -1.5454
 4211SOL    HW213706   0.637   2.138   6.295  2.5824 -1.5566  0.5337
 4212SOL     OW13707   6.578   0.394   6.362 -0.1909 -0.0145 -0.2281
 4212SOL    HW113708   6.497   0.344   6.352 -0.7000  0.3302  1.7448
 4212SOL    HW213709   6.550   0.482   6.385  0.7074 -0.1809  1.6818
 4213SOL     OW13710   6.354   3.216   1.037 -0.1278  0.0633  0.2632
 4213SOL    HW113711   6.427   3.199   1.096  0.7571  2.0082 -0.2160
 4213SOL    HW213712   6.279   3.232   1.094  0.4225  0.6434  0.8316
 4214SOL     OW13713   5.252   7.377   2.053 -0.0389  0.5223  0.8070
 4214SOL    HW113714   5.328   7.342   2.099  0.2002 -0.0224  0.0159
 4214SOL    HW213715   5.251   7.471   2.075  1.3150  0.6886  0.2088
 4215SOL     OW13716   5.666   5.988   2.843 -0.1266  0.4008  0.1326
 4215SOL    HW113717   5.605   5.996   2.916 -2.1833 -0.6007 -1.3781
 4215SOL    HW213718   5.621   6.030   2.769  0.5737 -1.1504 -1.2457
 4216SOL     OW13719   1.884   3.453   6.725  0.3158 -0.6254  0.2599
 4216SOL    HW113720   1.902   3.469   6.632  1.6745 -1.5980  0.3122
 4216SOL    HW213721   1.808   3.395   6.725  0.0863 -0.3280 -0.2366
 4217SOL     OW13722   6.723   5.237   2.956 -0.0408 -0.0589 -0.0530
 4217SOL    HW113723   6.803   5.267   3.000  0.1886 -1.0425  0.2144
 4217SOL    HW213724   6.672   5.317   2.943  0.0425  0.3135  1.6727
 4218SOL     OW13725   5.091   1.287   4.483  0.4500  0.0891 -0.3523
 4218SOL    HW113726   5.120   1.373   4.451  2.7169 -0.8411 -1.0526
 4218SOL    HW213727   5.073   1.300   4.576 -0.0362  1.4951 -0.6316
 4219SOL     OW13728   4.213   5.555   3.629  0.7758 -0.1061  0.6428
 4219SOL    HW113729   4.240   5.550   3.537 -0.2422 -2.3024  0.4070
 4219SOL    HW213730   4.245   5.641   3.659  1.7149  0.3694 -1.5498
 4220SOL     OW13731   5.219   0.002   2.249  0.1134 -0.5583 -0.1988
 4220SOL    HW113732   5.154   0.025   2.315 -0.3722 -0.7078 -0.6090
 4220SOL    HW213733   5.238   0.084   2.204  1.0976 -0.2902  0.6817
 4221SOL     OW13734   4.703   7.520   0.567  0.1312  0.2883 -0.0635
 4221SOL    HW113735   4.678   7.544   0.478 -0.5693  1.3600  0.4086
 4221SOL    HW213736   4.624   7.534   0.618  0.7468  0.4095  0.8688
 4222SOL     OW13737   5.209   6.645   0.370  0.0069  0.0012  1.0036
 4222SOL    HW113738   5.202   6.741   0.367  0.3941  0.0364  1.0699
 4222SOL    HW213739   5.287   6.629   0.424  2.6226 -0.2399 -2.4463
 4223SOL     OW13740   6.786   6.615   7.274 -0.6304  0.5441  0.1081
 4223SOL    HW113741   6.750   6.526   7.276 -2.0501  1.0849 -0.3196
 4223SOL    HW213742   6.856   6.614   7.339 -0.6905 -0.8590  0.1736
 4224SOL     OW13743   3.703   3.260   1.563  0.3108  0.7695 -0.3135
 4224SOL    HW113744   3.742   3.293   1.643 -0.0545 -0.1948  0.2694
 4224SOL    HW213745   3.620   3.221   1.590  0.1746  0.4409 -1.1609
 4225SOL     OW13746   6.654   5.374   8.093  0.3096 -0.2694  0.3729
 4225SOL    HW113747   6.578   5.316   8.098  1.1967 -1.3788  2.0863
 4225SOL    HW213748   6.634   5.446   8.152  0.6456 -0.6482  0.9546
 4226SOL     OW13749   7.285   7.960   7.136 -0.4992 -0.3217 -0.2715
 4226SOL    HW113750   7.308   8.027   7.201 -0.3160  1.6424 -2.2133
 4226SOL    HW213751   7.363   7.954   7.081 -0.8626 -1.5082 -0.6797
 4227SOL     OW13752   1.220   5.487   4.829 -0.0039 -0.1329 -0.1011
 4227SOL    HW113753   1.283   5.432   4.876  1.0027  1.7957  0.9587
 4227SOL    HW213754   1.274   5.556   4.789 -0.9236 -1.1484 -3.4311
 4228SOL     OW13755   5.936   1.356   0.234 -0.1191 -0.3648 -0.3074
 4228SOL    HW113756   5.926   1.341   0.140  1.5470 -0.8727 -0.4283
 4228SOL    HW213757   5.902   1.276   0.275  2.1405 -1.5792 -0.6555
 4229SOL     OW13758   2.849   4.233   7.581  0.3278  0.1569  0.4272
 4229SOL    HW113759   2.906   4.284   7.639  0.2212  2.2100 -1.1386
 4229SOL    HW213760   2.910   4.189   7.521  0.4225 -1.7052  1.8166
 4230SOL     OW13761   1.645   2.411   2.431 -0.0614  0.1474  0.1888
 4230SOL    HW113762   1.652   2.395   2.337 -1.5497  0.0779  0.0642
 4230SOL    HW213763   1.694   2.339   2.472 -1.2442 -1.1127 -0.5093
 4231SOL     OW13764   0.250   1.743   5.109 -0.0373  0.1442 -0.4564
 4231SOL    HW113765   0.260   1.838   5.123 -1.4617  0.4654 -1.4215
 4231SOL    HW213766   0.157   1.731   5.092  0.1213 -1.4511 -0.3507
 4232SOL     OW13767   3.999   3.811   4.615  0.4346 -0.1865  0.2756
 4232SOL    HW113768   4.013   3.729   4.568  0.1986 -0.1792  0.1873
 4232SOL    HW213769   4.082   3.858   4.608 -0.2919  0.9019 -2.2669
 4233SOL     OW13770   2.754   4.523   7.359  0.2304 -0.1479  0.0813
 4233SOL    HW113771   2.710   4.528   7.274  0.6385  0.3337 -0.1075
 4233SOL    HW213772   2.837   4.478   7.341  0.5227  0.3680  0.1408
 4234SOL     OW13773   6.937   0.981   0.941 -0.3809  0.5281  0.3250
 4234SOL    HW113774   7.023   1.018   0.958 -0.0321 -0.4348  0.7522
 4234SOL    HW213775   6.924   0.916   1.011 -0.8465 -0.3385 -0.5284
 4235SOL     OW13776   7.850   7.312   4.248  0.3732 -0.7343 -0.0547
 4235SOL    HW113777   7.874   7.247   4.181  2.3712  0.8617 -1.0054
 4235SOL    HW213778   7.915   7.381   4.238  0.7954 -0.4037  3.5938
 4236SOL     OW13779   7.587   0.173   1.852  0.1015  0.0672  0.2651
 4236SOL    HW113780   7.643   0.128   1.788 -0.0524  0.4580 -0.1540
 4236SOL    HW213781   7.498   0.152   1.825  0.0168 -1.6653  1.7334
 4237SOL     OW13782   5.594   3.121   7.389 -0.3711 -0.4998 -0.2567
 4237SOL    HW113783   5.571   3.029   7.402 -1.3001 -0.4778 -1.5516
 4237SOL    HW213784   5.664   3.119   7.324  0.3033 -0.3300  0.4490
 4238SOL     OW13785   2.917   3.826   5.703  0.0567  0.0801  0.3202
 4238SOL    HW113786   2.845   3.877   5.742  0.1785  1.2492 -0.8951
 4238SOL    HW213787   2.874   3.769   5.640  0.1442  0.5524 -0.1778
 4239SOL     OW13788   0.967   0.523   0.103 -0.1103  0.4975  0.3103
 4239SOL    HW113789   1.053   0.490   0.076 -0.7803  0.0809 -1.4752
 4239SOL    HW213790   0.971   0.617   0.085 -0.0095  0.4829  0.2535
 4240SOL     OW13791   5.470   7.247   3.651 -0.0123 -0.3930  0.1589
 4240SOL    HW113792   5.380   7.267   3.625  0.5789  2.9696  0.1501
 4240SOL    HW213793   5.495   7.173   3.597 -2.8486 -1.6768  0.4181
 4241SOL     OW13794   4.336   6.788   2.282 -0.3300 -0.2108  0.3751
 4241SOL    HW113795   4.246   6.774   2.311 -0.5992  0.1250 -0.2836
 4241SOL    HW213796   4.343   6.738   2.201 -0.0459  0.0872  0.2127
 4242SOL     OW13797   4.721   2.961   1.831 -0.0398 -0.5666  0.5409
 4242SOL    HW113798   4.636   2.964   1.788 -0.0617  2.0954  0.6037
 4242SOL    HW213799   4.771   2.895   1.782 -2.1430 -2.3612  0.6597
 4243SOL     OW13800   4.099   7.610   5.633 -0.4381  0.5413 -0.2252
 4243SOL    HW113801   4.154   7.671   5.583  0.0024 -0.4219 -0.9613
 4243SOL    HW213802   4.159   7.540   5.659 -1.2347 -0.3604 -0.7456
 4244SOL     OW13803   6.530   4.931   5.325 -0.1571  0.0908 -0.3993
 4244SOL    HW113804   6.506   4.847   5.287 -0.3743  0.2442 -0.5985
 4244SOL    HW213805   6.574   4.908   5.407 -2.3162 -0.1423  0.7462
 4245SOL     OW13806   2.984   4.158   2.486 -0.0445 -0.1752 -0.2150
 4245SOL    HW113807   3.075   4.143   2.459  0.4561  1.4950  0.4368
 4245SOL    HW213808   2.980   4.125   2.576  0.1513  0.5012  0.0459
 4246SOL     OW13809   7.803   6.335   1.160 -0.0201  0.0010 -0.0150
 4246SOL    HW113810   7.720   6.324   1.206  0.3753  0.6193  0.8806
 4246SOL    HW213811   7.869   6.325   1.229  0.5469  2.2511 -0.1697
 4247SOL     OW13812   5.605   2.270   2.736  0.5201 -0.4135  0.1582
 4247SOL    HW113813   5.686   2.317   2.716  2.3854 -2.8240  1.5151
 4247SOL    HW213814   5.624   2.179   2.714 -1.0297 -1.4256  2.5480
 4248SOL     OW13815   4.351   4.939   5.946  0.2110  0.2151  0.5868
 4248SOL    HW113816   4.435   4.925   5.991  0.1553  1.0323  0.9576
 4248SOL    HW213817   4.299   4.990   6.008 -1.0748 -1.4338  0.9264
 4249SOL     OW13818   4.556   0.088   3.127 -0.2918 -0.4283  0.0372
 4249SOL    HW113819   4.526   0.087   3.218  2.5260  1.0546  1.1128
 4249SOL    HW213820   4.650   0.067   3.133 -0.0232 -0.2548 -2.5436
 4250SOL     OW13821   1.894   3.803   5.631  0.4648 -0.1091  0.1530
 4250SOL    HW113822   1.960   3.869   5.652  0.8077 -0.8797  1.6026
 4250SOL    HW213823   1.925   3.723   5.674 -0.6552 -0.8635 -0.3914
 4251SOL     OW13824   5.287   7.940   5.821  0.2464 -0.5726  0.1536
 4251SOL    HW113825   5.202   7.929   5.862 -0.3627 -0.2644 -0.9860
 4251SOL    HW213826   5.312   7.852   5.792  0.3616 -0.6741  0.5505
 4252SOL     OW13827   6.083   7.444   1.304  0.1239  0.2773 -0.2968
 4252SOL    HW113828   6.069   7.534   1.275 -1.2186  0.9838  2.2241
 4252SOL    HW213829   6.011   7.395   1.265  0.3667  0.4425 -0.9738
 4253SOL     OW13830   3.692   5.584   2.582 -0.2239  0.6912  0.1688
 4253SOL    HW113831   3.728   5.593   2.670  0.5785  2.0537 -0.2678
 4253SOL    HW213832   3.718   5.664   2.537 -0.7789  0.1046 -1.2621
 4254SOL     OW13833   3.444   1.011   3.814 -0.0951  0.1662 -0.3849
 4254SOL    HW113834   3.509   0.977   3.752 -0.3879 -0.0586 -0.5758
 4254SOL    HW213835   3.361   1.007   3.766 -0.3787 -0.3189  0.1321
 4255SOL     OW13836   3.614   0.216   0.314 -0.2225 -0.0841  0.2231
 4255SOL    HW113837   3.558   0.179   0.246 -2.6252  1.6750  1.0859
 4255SOL    HW213838   3.591   0.166   0.393  2.3738 -1.9562 -0.0948
 4256SOL     OW13839   7.475   0.006   6.482 -0.1298 -0.3711 -0.3928
 4256SOL    HW113840   7.541  -0.045   6.436 -0.4330 -1.0704 -0.0688
 4256SOL    HW213841   7.452   0.076   6.422  1.9617  0.7709  0.0424
 4257SOL     OW13842   2.183   2.954   8.158  0.2024 -0.0309  0.3613
 4257SOL    HW113843   2.256   3.012   8.178  2.1497 -2.1759 -0.0881
 4257SOL    HW213844   2.171   2.962   8.064 -2.3365  2.6201  0.7689
 4258SOL     OW13845   6.278   1.110   6.861  0.3648  0.1024  0.1740
 4258SOL    HW113846   6.258   1.186   6.915 -0.3907 -1.1331  1.7469
 4258SOL    HW213847   6.373   1.100   6.869  0.1885 -0.5939  2.1579
 4259SOL     OW13848   7.291   0.525   5.335 -0.6317 -0.5301  0.4994
 4259SOL    HW113849   7.356   0.565   5.392 -0.1154  0.1352 -0.5214
 4259SOL    HW213850   7.324   0.540   5.246 -0.1241 -3.6703  0.0416
 4260SOL     OW13851   1.143   2.617   4.629  0.6891 -0.1353 -0.2665
 4260SOL    HW113852   1.153   2.711   4.613  1.3404 -0.1614 -0.0437
 4260SOL    HW213853   1.077   2.612   4.698 -0.6632  0.0619 -1.4815
 4261SOL     OW13854   1.123   0.550   2.347 -0.1781  0.2804  0.1096
 4261SOL    HW113855   1.181   0.474   2.359 -2.4588 -1.3313  1.7246
 4261SOL    HW213856   1.161   0.618   2.401  0.6999 -0.4431  0.4316
 4262SOL     OW13857   3.032   5.874   6.540  0.2417  0.0779  0.1361
 4262SOL    HW113858   2.955   5.840   6.494  0.3648  0.4342 -0.3274
 4262SOL    HW213859   3.105   5.854   6.483  0.4023  0.4593  0.2074
 4263SOL     OW13860   5.924   0.609   3.175  0.2992 -0.0345  0.4199
 4263SOL    HW113861   5.957   0.621   3.086  0.8204 -0.3273  0.5697
 4263SOL    HW213862   6.001   0.584   3.226 -0.4176 -2.3376  0.4623
 4264SOL     OW13863   7.317   1.091   1.413  0.3122  0.2002 -0.3621
 4264SOL    HW113864   7.366   1.058   1.338 -0.3139 -1.1316 -0.2225
 4264SOL    HW213865   7.366   1.059   1.489 -1.0106 -1.6381 -0.2172
 4265SOL     OW13866   6.388   3.345   5.897 -0.6773  0.2116  0.0956
 4265SOL    HW113867   6.395   3.252   5.916  0.3336  0.5159  1.3815
 4265SOL    HW213868   6.349   3.382   5.976  0.3694  1.0663  0.2387
 4266SOL     OW13869   2.144   5.355   3.931 -0.5728  0.0086 -0.3740
 4266SOL    HW113870   2.226   5.334   3.885 -0.8522 -0.8787 -0.4825
 4266SOL    HW213871   2.168   5.353   4.024 -0.2452  0.7697 -0.4335
 4267SOL     OW13872   6.595   4.451   2.089  0.1492  0.0654 -0.2120
 4267SOL    HW113873   6.563   4.489   2.171  3.1729  0.2093  1.0200
 4267SOL    HW213874   6.658   4.515   2.055  0.9533 -1.1985 -1.2222
 4268SOL     OW13875   1.736   1.677   0.465  0.2616  0.3101  0.4476
 4268SOL    HW113876   1.645   1.666   0.435  0.6178 -0.4716 -0.3997
 4268SOL    HW213877   1.777   1.728   0.395  0.8570 -0.6842  0.0561
 4269SOL     OW13878   6.555   2.977   7.112 -0.1690 -0.0885  0.1795
 4269SOL    HW113879   6.548   3.027   7.030 -0.0708  1.7229  1.2358
 4269SOL    HW213880   6.624   2.913   7.095 -0.7511 -0.3392 -1.4406
 4270SOL     OW13881   3.483   6.911   4.562  0.7971  0.9483 -0.3905
 4270SOL    HW113882   3.535   6.943   4.488  1.4237  1.5203  0.2732
 4270SOL    HW213883   3.527   6.947   4.639  0.1253  0.4123  0.2609
 4271SOL     OW13884   0.355   0.577   2.843 -0.0709 -0.0316  0.0049
 4271SOL    HW113885   0.266   0.553   2.818  1.3632 -2.7333 -3.3544
 4271SOL    HW213886   0.361   0.671   2.825 -1.0025 -0.6447 -4.8453
 4272SOL     OW13887   0.160   1.903   0.699  0.2074  0.5458 -0.4684
 4272SOL    HW113888   0.066   1.896   0.683  0.0307 -0.5943  0.8629
 4272SOL    HW213889   0.194   1.814   0.685  0.5920  0.2822  1.7809
 4273SOL     OW13890   8.007   1.783   2.721  0.2227  0.0183 -0.0236
 4273SOL    HW113891   8.096   1.756   2.697  0.0101 -0.2672 -0.5027
 4273SOL    HW213892   7.989   1.734   2.802  1.2018  1.5197  1.1648
 4274SOL     OW13893   2.030   6.911   3.033  0.7704  0.2675 -0.5754
 4274SOL    HW113894   2.102   6.969   3.057 -0.7378  2.4105 -0.9890
 4274SOL    HW213895   1.972   6.965   2.980 -1.3337 -1.2815  0.0179
 4275SOL     OW13896   2.332   3.546   4.038 -0.3265  0.1047 -0.5277
 4275SOL    HW113897   2.244   3.532   4.004 -0.3084  0.6634 -0.7959
 4275SOL    HW213898   2.333   3.637   4.067 -0.2508 -0.2575  0.7002
 4276SOL     OW13899   7.639   5.919   4.156  0.2851  0.1842  0.1330
 4276SOL    HW113900   7.577   5.992   4.162 -1.2224 -0.8873 -1.2254
 4276SOL    HW213901   7.671   5.907   4.245 -0.6504  1.4723  0.6830
 4277SOL     OW13902   3.460   4.501   0.777  0.0508  0.4738  0.1372
 4277SOL    HW113903   3.440   4.586   0.816  2.2438  1.5906 -0.9812
 4277SOL    HW213904   3.525   4.520   0.709 -0.6555 -1.8853 -1.3342
 4278SOL     OW13905   6.721   5.820   7.983 -0.0886 -0.3318 -0.3058
 4278SOL    HW113906   6.780   5.893   7.962 -0.0375 -0.3393 -0.1879
 4278SOL    HW213907   6.770   5.742   7.956 -0.3463 -0.2969 -0.9081
 4279SOL     OW13908   4.828   1.590   7.749 -1.1979 -0.1251 -0.1299
 4279SOL    HW113909   4.923   1.589   7.762 -1.2555  1.7351  0.8090
 4279SOL    HW213910   4.791   1.591   7.837 -2.0345  0.4821 -0.4691
 4280SOL     OW13911   2.312   7.289   0.749 -0.0039  0.1776 -0.8038
 4280SOL    HW113912   2.288   7.252   0.664  0.9914 -0.7915 -0.6771
 4280SOL    HW213913   2.253   7.246   0.811 -0.8817  1.0467 -0.9998
 4281SOL     OW13914   5.408   6.135   4.423 -0.2920  0.1942  0.4028
 4281SOL    HW113915   5.357   6.056   4.441  1.2497 -0.4315  2.4226
 4281SOL    HW213916   5.462   6.147   4.501  0.6574  2.3717 -0.5094
 4282SOL     OW13917   4.172   1.129   5.833  0.7882  0.2849 -0.0982
 4282SOL    HW113918   4.161   1.060   5.767  0.3076 -0.1987  0.4743
 4282SOL    HW213919   4.184   1.082   5.915 -3.7348  0.7006  1.0869
 4283SOL     OW13920   6.485   4.695   1.829 -0.4870 -0.2863  0.0167
 4283SOL    HW113921   6.437   4.614   1.848 -2.3275  0.8839  0.5807
 4283SOL    HW213922   6.429   4.765   1.862  0.0203  1.3850 -2.4339
 4284SOL     OW13923   1.359   7.126   4.080 -0.1828 -0.2015  0.4394
 4284SOL    HW113924   1.398   7.213   4.086 -1.9677  0.5575  2.3651
 4284SOL    HW213925   1.294   7.134   4.010 -1.3577  0.5195  1.5568
 4285SOL     OW13926   1.285   6.110   5.852 -0.2279  0.6969 -0.6061
 4285SOL    HW113927   1.192   6.118   5.834 -0.2936 -0.7719 -1.0435
 4285SOL    HW213928   1.328   6.140   5.772 -0.2962  1.7572 -0.2594
 4286SOL     OW13929   4.034   6.763   7.239  0.4620  0.4174 -0.0646
 4286SOL    HW113930   4.122   6.725   7.231 -0.9976 -3.1217 -0.9765
 4286SOL    HW213931   4.005   6.776   7.149  0.3257  2.5766  0.2173
 4287SOL     OW13932   4.332   0.897   4.901 -0.2875 -0.3071 -0.6498
 4287SOL    HW113933   4.301   0.810   4.926 -0.3804 -0.4329 -1.2018
 4287SOL    HW213934   4.275   0.957   4.950 -0.5884 -0.5517 -0.6953
 4288SOL     OW13935   5.183   6.041   7.229 -0.2668  0.2916  0.4378
 4288SOL    HW113936   5.104   5.989   7.217 -0.2984  0.6011 -0.7722
 4288SOL    HW213937   5.231   6.032   7.147  2.4396 -2.2863  2.0883
 4289SOL     OW13938   3.436   4.466   0.298  0.0840  0.3542  0.6887
 4289SOL    HW113939   3.406   4.509   0.378 -1.0138  1.1066 -0.0971
 4289SOL    HW213940   3.502   4.525   0.262  0.3302  0.1835  0.8568
 4290SOL     OW13941   6.202   3.461   1.154 -0.0453  0.3256 -0.0530
 4290SOL    HW113942   6.212   3.544   1.106  0.2211 -0.8961 -2.2454
 4290SOL    HW213943   6.108   3.452   1.167  0.0047  1.6771  1.6287
 4291SOL     OW13944   4.290   5.998   0.621  0.1580  0.2922 -0.3845
 4291SOL    HW113945   4.312   6.005   0.713  0.8114  0.3770 -0.5467
 4291SOL    HW213946   4.219   5.934   0.618  1.0441 -0.7359  0.0381
 4292SOL     OW13947   3.968   2.978   7.674  0.4271 -0.5896  0.4316
 4292SOL    HW113948   4.054   2.946   7.648 -0.2290 -0.8036 -1.6385
 4292SOL    HW213949   3.909   2.905   7.660 -0.6737  0.6357 -1.9041
 4293SOL     OW13950   4.055   1.766   7.836 -0.6796  0.3693  0.3525
 4293SOL    HW113951   4.136   1.716   7.835 -0.0466  1.3467  0.5243
 4293SOL    HW213952   4.002   1.725   7.905  0.4137  0.8121  1.4946
 4294SOL     OW13953   0.423   4.609   7.236  0.0393 -0.1203 -0.2868
 4294SOL    HW113954   0.467   4.586   7.318 -0.9493  0.2755  0.3760
 4294SOL    HW213955   0.344   4.655   7.264 -0.9579 -1.0799 -1.4092
 4295SOL     OW13956   3.640   8.044   3.948  0.0946 -0.0750  0.2679
 4295SOL    HW113957   3.647   8.068   3.855  0.5169 -0.9373  0.0605
 4295SOL    HW213958   3.599   8.119   3.990 -2.4419 -0.6119 -1.0621
 4296SOL     OW13959   7.412   1.992   0.432 -0.2697 -0.1059 -0.4064
 4296SOL    HW113960   7.475   1.965   0.365 -0.1998  2.4865 -1.5295
 4296SOL    HW213961   7.350   2.048   0.385 -2.7663 -1.5853  0.9078
 4297SOL     OW13962   0.467   7.256   4.400  0.1436  0.4593 -0.0976
 4297SOL    HW113963   0.435   7.271   4.489  0.7285  0.1391  0.1697
 4297SOL    HW213964   0.561   7.245   4.410  0.0996 -0.4705 -0.6433
 4298SOL     OW13965   5.905   5.218   6.379 -0.1495 -0.4518  0.2585
 4298SOL    HW113966   5.888   5.203   6.286  2.9948 -1.3752 -0.3000
 4298SOL    HW213967   5.922   5.312   6.385  2.9834 -0.8211 -0.8952
 4299SOL     OW13968   2.172   5.768   4.526  0.0406  0.1255  0.0648
 4299SOL    HW113969   2.168   5.694   4.586  2.3949  0.3586  0.6391
 4299SOL    HW213970   2.139   5.734   4.443 -0.9725 -0.9071  0.8642
 4300SOL     OW13971   3.085   0.956   6.910 -0.4512 -0.0819  0.7792
 4300SOL    HW113972   3.143   0.901   6.857 -1.5307  0.8870 -1.5760
 4300SOL    HW213973   3.133   0.970   6.992  1.7499 -0.9085 -0.2873
 4301SOL     OW13974   5.836   3.821   4.067  0.3371 -0.5603 -0.1255
 4301SOL    HW113975   5.848   3.743   4.121  1.4353 -1.6363 -1.8408
 4301SOL    HW213976   5.753   3.805   4.020 -0.0691 -0.1133  0.4248
 4302SOL     OW13977   5.437   1.292   6.784 -0.2058  0.5228 -0.0164
 4302SOL    HW113978   5.387   1.214   6.761 -0.0549  0.5154 -0.3237
 4302SOL    HW213979   5.464   1.277   6.875  1.4708 -0.6872 -0.6543
 4303SOL     OW13980   7.842   5.874   1.399 -0.2902  0.0271 -0.2431
 4303SOL    HW113981   7.797   5.857   1.316 -0.3547  0.9879 -0.4181
 4303SOL    HW213982   7.805   5.809   1.460 -0.5148 -0.4404 -0.8637
 4304SOL     OW13983   1.580   2.563   3.091  0.7858 -0.2613  0.2030
 4304SOL    HW113984   1.534   2.626   3.147  0.0838  0.1479 -0.7870
 4304SOL    HW213985   1.673   2.582   3.104  0.5944  1.7595 -0.8585
 4305SOL     OW13986   3.377   1.362   2.510 -0.7411 -0.0447 -0.2591
 4305SOL    HW113987   3.401   1.417   2.585 -0.3298  0.7225 -0.9371
 4305SOL    HW213988   3.451   1.304   2.497 -1.0185 -0.5172  0.2249
 4306SOL     OW13989   0.957   6.899   6.101  0.0232  0.5991  0.0880
 4306SOL    HW113990   0.864   6.916   6.086  0.1177  0.9977 -0.0409
 4306SOL    HW213991   0.987   6.971   6.156  0.1057  0.1176  0.6857
 4307SOL     OW13992   2.670   1.203   0.914  0.3210 -0.2159 -0.2000
 4307SOL    HW113993   2.611   1.275   0.938  0.2598 -0.4260  0.2801
 4307SOL    HW213994   2.667   1.143   0.988  1.5931  0.0440  0.0806
 4308SOL     OW13995   2.290   7.271   2.611  0.0051 -0.5826  0.3404
 4308SOL    HW113996   2.372   7.240   2.649  0.7865 -1.8111 -2.1007
 4308SOL    HW213997   2.222   7.226   2.661  0.9991 -2.6277 -0.0049
 4309SOL     OW13998   1.209   7.221   3.864  1.0102  0.1789 -0.7088
 4309SOL    HW113999   1.145   7.291   3.855  1.5923  0.8867  0.5184
 4309SOL    HW214000   1.249   7.214   3.777  1.3037  1.7262 -0.7216
 4310SOL     OW14001   2.354   6.818   1.387 -0.2508  0.2338  0.0145
 4310SOL    HW114002   2.325   6.909   1.379 -0.9289  0.2469  2.0258
 4310SOL    HW214003   2.305   6.784   1.462  0.7022 -1.5122 -0.1077
 4311SOL     OW14004   0.557   4.936   7.834 -0.3328 -0.3715  0.1010
 4311SOL    HW114005   0.609   4.981   7.767  1.2527 -0.6965  1.0408
 4311SOL    HW214006   0.572   4.986   7.914  1.9640 -2.7360  1.3292
 4312SOL     OW14007   6.162   5.808   4.087 -0.6352 -0.2533 -0.1483
 4312SOL    HW114008   6.152   5.729   4.034 -1.1627 -0.1729 -0.1781
 4312SOL    HW214009   6.254   5.831   4.079 -0.8525  0.1955 -1.6493
 4313SOL     OW14010   4.691   6.125   6.518  0.1572 -0.0759  0.1415
 4313SOL    HW114011   4.677   6.101   6.426 -0.5966 -1.1584  0.5156
 4313SOL    HW214012   4.781   6.100   6.536 -0.4352 -2.3091  0.3701
 4314SOL     OW14013   0.741   4.752   7.339 -0.5058  0.0298  0.1826
 4314SOL    HW114014   0.756   4.671   7.290 -1.6466 -0.5435  0.7330
 4314SOL    HW214015   0.661   4.735   7.389 -0.0481  1.0425  1.2968
 4315SOL     OW14016   0.874   1.362   3.298  0.0254  0.3241  0.3977
 4315SOL    HW114017   0.914   1.275   3.293 -1.9133 -0.5651 -3.3301
 4315SOL    HW214018   0.926   1.417   3.239 -0.9350  0.6389 -0.1808
 4316SOL     OW14019   7.071   7.449   1.626  0.1908  0.0338 -0.9509
 4316SOL    HW114020   6.995   7.496   1.659  1.6013  0.9128  1.2340
 4316SOL    HW214021   7.086   7.379   1.689  1.7949  0.5340 -0.7201
 4317SOL     OW14022   4.942   6.399   5.587  0.3330  0.0774  0.1467
 4317SOL    HW114023   4.956   6.309   5.618 -0.1003 -0.4999 -1.2842
 4317SOL    HW214024   4.863   6.394   5.533  0.8501  1.1281 -0.7356
 4318SOL     OW14025   2.556   3.315   2.998 -0.4741 -0.2986  0.4734
 4318SOL    HW114026   2.615   3.295   2.925  1.2854  0.3859  1.6483
 4318SOL    HW214027   2.494   3.378   2.961 -0.5706 -1.1032 -0.8189
 4319SOL     OW14028   6.072   1.899   2.467  0.0408 -0.0046  0.0117
 4319SOL    HW114029   6.063   1.812   2.506 -1.2418 -1.6471 -3.4753
 4319SOL    HW214030   6.164   1.921   2.479  0.4515 -1.9380  0.7940
 4320SOL     OW14031   5.766   4.210   5.812 -0.0640  0.1489  0.4773
 4320SOL    HW114032   5.836   4.155   5.847  0.4336  1.7205  2.0464
 4320SOL    HW214033   5.774   4.293   5.859 -2.0360  0.8968 -0.4031
 4321SOL     OW14034   5.822   4.345   6.066  0.2233  0.3080 -0.5042
 4321SOL    HW114035   5.866   4.277   6.117 -0.7981  1.3995  1.9770
 4321SOL    HW214036   5.890   4.410   6.051  0.3551  0.3296  0.1582
 4322SOL     OW14037   4.892   5.985   4.945 -0.3173 -0.3059 -0.0863
 4322SOL    HW114038   4.809   5.941   4.930 -0.7369  0.6465 -0.6062
 4322SOL    HW214039   4.931   5.938   5.019 -0.8626 -1.3727 -0.4585
 4323SOL     OW14040   0.949   3.533   7.352 -0.2132  0.3450 -0.9222
 4323SOL    HW114041   0.896   3.456   7.333  0.1560  0.0273 -0.7009
 4323SOL    HW214042   0.893   3.607   7.332 -0.8743  0.0219 -0.3234
 4324SOL     OW14043   5.245   7.536   0.570 -0.0455  1.1171  0.1224
 4324SOL    HW114044   5.301   7.585   0.630 -0.5836  0.3992  1.2316
 4324SOL    HW214045   5.156   7.550   0.602 -0.3384  0.6325 -0.4428
 4325SOL     OW14046   0.662   1.716   0.767 -0.0221 -0.0291 -1.2083
 4325SOL    HW114047   0.672   1.708   0.672  0.3156 -0.4161 -1.1421
 4325SOL    HW214048   0.707   1.797   0.790  0.8155 -0.4774 -1.2439
 4326SOL     OW14049   2.758   6.985   1.280  0.6059  0.0169  0.4797
 4326SOL    HW114050   2.725   6.897   1.298  2.4180 -0.6951  0.5502
 4326SOL    HW214051   2.834   6.993   1.337  1.4235  1.0098 -0.7111
 4327SOL     OW14052   7.450   3.927   1.185  0.4624  0.3467  1.0134
 4327SOL    HW114053   7.421   3.839   1.212  2.7885 -0.3325  1.4668
 4327SOL    HW214054   7.482   3.968   1.265  0.7233  1.0734  0.5486
 4328SOL     OW14055   1.232   4.846   5.435  0.3093  0.9130  0.5949
 4328SOL    HW114056   1.179   4.769   5.453  0.0232  1.4450  2.2335
 4328SOL    HW214057   1.296   4.848   5.506  3.5745 -0.4960 -2.0040
 4329SOL     OW14058   4.564   4.566   1.735  0.2024 -1.1514  0.5111
 4329SOL    HW114059   4.560   4.655   1.771 -0.8705 -0.8862 -0.2211
 4329SOL    HW214060   4.521   4.511   1.800  1.3818 -1.2578  1.2418
 4330SOL     OW14061   3.316   1.222   6.248  0.6040  0.7328 -0.6052
 4330SOL    HW114062   3.280   1.133   6.249  1.7961  0.2007  1.5356
 4330SOL    HW214063   3.390   1.218   6.188  0.3865  0.4099 -0.8542
 4331SOL     OW14064   2.217   3.726   6.846 -0.5535  0.2709  0.4788
 4331SOL    HW114065   2.187   3.676   6.770 -0.3752 -0.7043  1.0375
 4331SOL    HW214066   2.170   3.687   6.920  0.8712 -0.2242  1.1518
 4332SOL     OW14067   7.316   6.725   5.282 -0.2335  0.4309 -0.4339
 4332SOL    HW114068   7.276   6.788   5.222 -1.0934 -0.5081 -0.8821
 4332SOL    HW214069   7.409   6.747   5.282 -0.5367  1.7962 -0.4366
 4333SOL     OW14070   0.703   1.714   0.102  0.1441  0.5818 -0.6831
 4333SOL    HW114071   0.794   1.730   0.128 -0.0394 -0.8387  1.0021
 4333SOL    HW214072   0.708   1.640   0.042  0.2068  1.5332 -1.9048
 4334SOL     OW14073   1.525   0.483   8.117  0.4508  0.9309  0.0488
 4334SOL    HW114074   1.480   0.563   8.089 -0.8020 -0.3111 -1.6901
 4334SOL    HW214075   1.606   0.482   8.066  0.0303  0.6476 -0.6254
 4335SOL     OW14076   1.300   4.063   6.492  0.0656  0.1054 -0.1809
 4335SOL    HW114077   1.348   4.108   6.422  0.7400  0.0949  0.2669
 4335SOL    HW214078   1.301   4.124   6.565 -1.1791  0.3733 -0.3636
 4336SOL     OW14079   0.113   6.822   4.892  0.2055 -0.0449  0.0240
 4336SOL    HW114080   0.135   6.909   4.926 -0.3686  0.7212 -1.4432
 4336SOL    HW214081   0.168   6.812   4.815  1.6477 -1.8292  1.2257
 4337SOL     OW14082   6.027   4.181   1.175 -0.0735 -0.0835  0.6358
 4337SOL    HW114083   6.018   4.258   1.120  0.0787 -0.3206  0.2785
 4337SOL    HW214084   5.989   4.207   1.259 -2.4166 -0.4453 -0.2330
 4338SOL     OW14085   4.449   2.952   1.715 -0.0077 -0.3679 -0.5220
 4338SOL    HW114086   4.420   2.925   1.628 -0.2515 -0.3234 -0.4531
 4338SOL    HW214087   4.389   2.909   1.775 -0.7538  0.7777 -0.4278
 4339SOL     OW14088   7.074   2.978   0.552 -0.7755  0.5564 -0.4112
 4339SOL    HW114089   7.025   3.044   0.602 -1.7521  2.1457 -3.2377
 4339SOL    HW214090   7.161   3.016   0.542 -0.4807  0.0860  0.3389
 4340SOL     OW14091   6.541   5.857   3.124  0.1616  0.0871 -0.3481
 4340SOL    HW114092   6.456   5.879   3.087  0.1691 -0.4766 -0.6997
 4340SOL    HW214093   6.549   5.914   3.201 -0.2055  0.6745 -0.7417
 4341SOL     OW14094   0.164   6.558   8.097 -0.0099 -0.1342 -0.0034
 4341SOL    HW114095   0.102   6.499   8.054 -3.6436  2.6761  0.9285
 4341SOL    HW214096   0.185   6.624   8.030  0.0093  0.3058  0.4335
 4342SOL     OW14097   7.134   6.739   7.255  0.1427 -0.6158  0.4795
 4342SOL    HW114098   7.121   6.774   7.167  1.1290 -1.5777 -0.0686
 4342SOL    HW214099   7.227   6.752   7.273  0.3850 -2.2078  0.5648
 4343SOL     OW14100   7.597   3.959   6.536  0.5874 -0.1354 -0.2161
 4343SOL    HW114101   7.590   3.864   6.531 -0.2807 -0.0507 -0.8977
 4343SOL    HW214102   7.671   3.981   6.479  0.6617 -0.3810 -0.2149
 4344SOL     OW14103   3.843   4.348   3.632  0.1802  0.5085 -0.1195
 4344SOL    HW114104   3.777   4.358   3.563  0.2939 -0.3111 -0.3526
 4344SOL    HW214105   3.796   4.366   3.713 -0.4745 -0.5894 -0.2399
 4345SOL     OW14106   3.857   5.653   3.230 -0.0796  0.5127 -0.1929
 4345SOL    HW114107   3.763   5.639   3.235 -0.0249 -0.3888 -1.2839
 4345SOL    HW214108   3.867   5.742   3.196 -0.5696  0.1751 -1.2617
 4346SOL     OW14109   8.015   1.232   4.542  0.0312  0.3215  0.4185
 4346SOL    HW114110   8.016   1.251   4.448 -0.5030  1.4907  0.6351
 4346SOL    HW214111   8.052   1.144   4.549  0.2461  0.2930 -0.8692
 4347SOL     OW14112   7.826   3.067   4.190 -0.0909 -0.0136 -0.0444
 4347SOL    HW114113   7.893   3.123   4.229  0.2089  0.7060 -1.5404
 4347SOL    HW214114   7.828   3.088   4.097  0.3835 -2.8578 -0.7647
 4348SOL     OW14115   6.602   6.737   3.031  0.0550 -0.3828 -0.0585
 4348SOL    HW114116   6.687   6.779   3.047 -0.0460  0.5180 -1.6638
 4348SOL    HW214117   6.576   6.768   2.944 -1.3665 -1.5914 -0.1022
 4349SOL     OW14118   1.610   1.674   4.180  0.2991 -0.5545  0.5520
 4349SOL    HW114119   1.580   1.689   4.090  1.1196 -0.0779  0.3461
 4349SOL    HW214120   1.670   1.746   4.198 -0.2322 -0.3761  1.6662
 4350SOL     OW14121   2.811   0.695   1.836  0.6012 -0.0005 -0.7344
 4350SOL    HW114122   2.752   0.625   1.864  2.9250 -0.8134  2.7247
 4350SOL    HW214123   2.840   0.736   1.917  2.5994  2.2228 -2.4220
 4351SOL     OW14124   4.666   1.243   5.401 -0.5042 -0.0366  0.5666
 4351SOL    HW114125   4.623   1.165   5.437 -2.2270 -0.9363 -2.9271
 4351SOL    HW214126   4.594   1.302   5.379  0.6525  1.6923  1.2508
 4352SOL     OW14127   0.208   6.745   7.440 -0.1455  0.0402 -0.1389
 4352SOL    HW114128   0.157   6.819   7.406  2.2773  2.1770  0.5145
 4352SOL    HW214129   0.223   6.768   7.532 -1.5731 -2.6768  0.8729
 4353SOL     OW14130   0.934   6.374   6.876  0.4523  0.3568  0.1195
 4353SOL    HW114131   0.990   6.406   6.805 -0.0023 -0.9328 -0.8660
 4353SOL    HW214132   0.965   6.419   6.954  0.9363  1.8566 -0.9025
 4354SOL     OW14133   6.429   6.381   0.999  0.1005 -0.0737 -0.9441
 4354SOL    HW114134   6.507   6.370   1.055 -1.5930 -0.0689  1.5766
 4354SOL    HW214135   6.386   6.459   1.032 -1.2384 -0.3375 -1.9726
 4355SOL     OW14136   2.563   4.962   3.532  0.2331 -0.2057  0.2813
 4355SOL    HW114137   2.625   5.018   3.487  1.0036 -1.6614 -0.5599
 4355SOL    HW214138   2.589   4.873   3.508 -1.3881 -0.9138  0.9519
 4356SOL     OW14139   0.635   6.802   2.953  0.0316 -0.1289 -0.0639
 4356SOL    HW114140   0.557   6.790   2.899 -0.8523  0.1034  1.1158
 4356SOL    HW214141   0.643   6.721   3.003  0.1968  0.0861  0.2623
 4357SOL     OW14142   0.536   0.835   1.535  0.3784  0.1283 -0.0468
 4357SOL    HW114143   0.593   0.807   1.463  1.1772 -0.3379  0.7355
 4357SOL    HW214144   0.473   0.894   1.495  1.0910  0.2404 -1.0437
 4358SOL     OW14145   1.888   3.147   2.907  0.5956  0.0193  0.0821
 4358SOL    HW114146   1.868   3.136   3.000  0.7274 -0.8948  0.0050
 4358SOL    HW214147   1.802   3.151   2.865  0.5394 -0.7445  0.1139
 4359SOL     OW14148   2.618   1.380   3.235 -0.4589  0.0159 -0.0422
 4359SOL    HW114149   2.636   1.473   3.244  0.9480 -0.2770  0.4295
 4359SOL    HW214150   2.698   1.343   3.197 -0.5809 -1.1594  0.7915
 4360SOL     OW14151   7.020   1.247   7.822  0.5234 -0.3499  0.3145
 4360SOL    HW114152   7.037   1.230   7.730 -0.2680 -0.8586  0.2457
 4360SOL    HW214153   7.083   1.315   7.847  0.6544 -0.1106 -0.6314
 4361SOL     OW14154   4.695   5.395   7.020 -0.5583 -0.0076 -0.8174
 4361SOL    HW114155   4.659   5.343   7.092 -0.6624 -1.3401 -1.7994
 4361SOL    HW214156   4.629   5.463   7.005 -0.6754  0.1035  0.1309
 4362SOL     OW14157   3.725   2.342   2.890  0.6186  0.4532 -0.1398
 4362SOL    HW114158   3.748   2.434   2.883  1.6028  0.3244  1.1173
 4362SOL    HW214159   3.639   2.341   2.932 -0.4373  0.8283 -2.1372
 4363SOL     OW14160   4.625   5.322   0.534  0.1852 -0.7708  0.8531
 4363SOL    HW114161   4.689   5.392   0.542  0.1889 -0.6568 -0.0800
 4363SOL    HW214162   4.556   5.345   0.595 -0.7320  1.0591 -0.7770
 4364SOL     OW14163   5.319   4.194   7.937  0.1028 -0.0249  0.2548
 4364SOL    HW114164   5.252   4.154   7.992  0.6528 -1.1268  0.1550
 4364SOL    HW214165   5.342   4.126   7.874  0.0283  0.9545 -0.8782
 4365SOL     OW14166   1.157   6.675   7.350 -0.5352 -0.3618  0.3175
 4365SOL    HW114167   1.142   6.750   7.407  0.5274  1.0273 -1.1582
 4365SOL    HW214168   1.189   6.712   7.268  2.0486 -2.4775  0.2026
 4366SOL     OW14169   0.417   0.470   7.348 -0.2008 -0.1451  0.6945
 4366SOL    HW114170   0.386   0.528   7.418 -0.3456  0.5626  0.0637
 4366SOL    HW214171   0.499   0.434   7.382 -0.4979 -0.1661  1.4093
 4367SOL     OW14172   5.717   5.956   3.839 -0.6832  0.0088 -0.1046
 4367SOL    HW114173   5.664   5.908   3.775 -0.2873  0.0652 -0.4816
 4367SOL    HW214174   5.665   6.033   3.861 -1.6584 -0.9220  1.0520
 4368SOL     OW14175   2.682   4.016   2.584  0.1123 -0.0820  0.1138
 4368SOL    HW114176   2.763   4.033   2.633 -0.8273  2.8699  0.8287
 4368SOL    HW214177   2.621   3.983   2.650 -0.4874  1.7686  0.5281
 4369SOL     OW14178   6.476   0.449   4.562  0.3340 -0.4662 -0.4905
 4369SOL    HW114179   6.394   0.442   4.611 -0.6199  1.4802 -1.7091
 4369SOL    HW214180   6.519   0.364   4.575 -1.8726 -1.5557  0.1491
 4370SOL     OW14181   0.572   8.049   3.193  0.1783 -0.3996 -0.2124
 4370SOL    HW114182   0.663   8.039   3.165  0.0704 -1.2537 -0.2933
 4370SOL    HW214183   0.577   8.069   3.286  0.4885  0.9999 -0.5057
 4371SOL     OW14184   0.704   1.206   1.736 -0.2510 -0.6249 -0.2093
 4371SOL    HW114185   0.640   1.139   1.756  0.5061 -0.8246  1.7764
 4371SOL    HW214186   0.658   1.289   1.752 -1.0322 -0.6169 -2.1889
 4372SOL     OW14187   3.514   7.202   2.455  0.2741 -0.0609  0.1766
 4372SOL    HW114188   3.541   7.132   2.395  2.0474 -0.2407  1.1230
 4372SOL    HW214189   3.537   7.283   2.410 -0.2430 -0.1197 -0.2082
 4373SOL     OW14190   4.041   5.070   1.062 -0.6379  0.1061 -0.1284
 4373SOL    HW114191   4.064   5.162   1.045 -0.9296  0.4415  1.1709
 4373SOL    HW214192   4.087   5.021   0.995 -1.8861  1.3317 -1.9759
 4374SOL     OW14193   0.034   0.863   0.667  0.2026 -0.0942  0.0155
 4374SOL    HW114194  -0.007   0.820   0.742  0.0006  0.8831  0.4923
 4374SOL    HW214195  -0.030   0.855   0.596  0.2071 -0.6396  0.0677
 4375SOL     OW14196   3.223   5.102   6.644  0.1952  0.6602 -0.3156
 4375SOL    HW114197   3.148   5.159   6.663 -0.4390  0.0225 -0.8617
 4375SOL    HW214198   3.287   5.124   6.713 -0.9400  0.3968  0.8717
 4376SOL     OW14199   7.180   0.424   3.802  0.0244  0.3875  0.2579
 4376SOL    HW114200   7.265   0.465   3.813  0.3225 -0.1018 -0.1688
 4376SOL    HW214201   7.170   0.366   3.878  0.6790 -0.5768 -0.3631
 4377SOL     OW14202   1.048   7.778   2.184 -0.0079 -0.1956 -0.9223
 4377SOL    HW114203   1.038   7.785   2.279 -1.6787  2.1247 -1.1783
 4377SOL    HW214204   0.966   7.740   2.154  0.6784 -1.3107 -1.4494
 4378SOL     OW14205   2.647   2.177   3.739 -0.8098 -0.2785  0.2072
 4378SOL    HW114206   2.725   2.157   3.688 -1.4311  0.8710 -1.2651
 4378SOL    HW214207   2.587   2.105   3.720 -0.6898 -0.3503  0.0959
 4379SOL     OW14208   4.876   2.254   0.836 -0.1380 -0.2691  0.0174
 4379SOL    HW114209   4.814   2.214   0.775 -0.7648 -1.5949  1.4502
 4379SOL    HW214210   4.827   2.263   0.918  1.3537 -0.7489  1.0118
 4380SOL     OW14211   6.776   7.502   1.693 -0.0536 -0.1176 -0.1162
 4380SOL    HW114212   6.772   7.428   1.633 -0.6721  0.2195 -0.4966
 4380SOL    HW214213   6.724   7.570   1.651  1.7511  1.0939 -0.5468
 4381SOL     OW14214   0.881   7.560   2.692 -0.2872  0.1046 -0.2412
 4381SOL    HW114215   0.875   7.601   2.606  1.3975  0.6875 -0.1246
 4381SOL    HW214216   0.837   7.622   2.751 -0.1234  0.4416 -0.4700
 4382SOL     OW14217   4.961   6.909   1.797 -0.0573  0.3908  0.4271
 4382SOL    HW114218   5.025   6.838   1.805 -0.4001  0.1300  0.8914
 4382SOL    HW214219   4.967   6.936   1.705 -0.0486 -0.3535  0.1990
 4383SOL     OW14220   4.786   7.133   1.785  0.5066 -0.1181  0.8851
 4383SOL    HW114221   4.839   7.064   1.824  1.0300  0.7376  1.7499
 4383SOL    HW214222   4.721   7.087   1.733  0.3126 -1.2998  2.1062
 4384SOL     OW14223   4.013   7.093   0.208  0.3425 -0.0351  0.4213
 4384SOL    HW114224   4.046   7.006   0.185  0.1048 -0.2660  0.9342
 4384SOL    HW214225   3.978   7.128   0.126 -1.0945 -1.1150  0.5425
 4385SOL     OW14226   6.189   7.429   5.299 -0.6068 -0.2421  0.1705
 4385SOL    HW114227   6.240   7.348   5.309 -1.8431 -0.7991  3.0513
 4385SOL    HW214228   6.250   7.499   5.323 -0.1689 -0.5173 -0.1202
 4386SOL     OW14229   0.410   0.455   3.358  0.0816  0.9750 -0.3082
 4386SOL    HW114230   0.353   0.378   3.363  0.2717  0.8927  1.1143
 4386SOL    HW214231   0.443   0.455   3.268 -1.3964  0.4764 -0.8809
 4387SOL     OW14232   3.024   1.583   4.050 -0.4953  0.7189  0.2615
 4387SOL    HW114233   3.067   1.630   3.979 -0.0306 -0.9855 -0.6361
 4387SOL    HW214234   3.096   1.545   4.101 -0.8591  0.8751  0.9059
 4388SOL     OW14235   5.173   3.681   4.842  0.2400 -0.0005  0.3009
 4388SOL    HW114236   5.112   3.717   4.778  0.7487 -0.1761 -0.2968
 4388SOL    HW214237   5.120   3.663   4.919 -0.5141 -0.4125 -0.3059
 4389SOL     OW14238   6.887   1.140   7.135 -0.0365 -0.2146 -0.9095
 4389SOL    HW114239   6.808   1.123   7.187  0.3512 -0.1015 -0.2685
 4389SOL    HW214240   6.874   1.091   7.054 -0.9346  0.1053 -0.9680
 4390SOL     OW14241   5.561   4.232   2.512  0.3871 -0.0954  0.6192
 4390SOL    HW114242   5.594   4.311   2.555  1.6129  0.2607 -0.8575
 4390SOL    HW214243   5.630   4.209   2.450 -0.6910 -1.3664 -0.1486
 4391SOL     OW14244   0.372   4.107   2.384 -0.0984 -0.4423  0.3902
 4391SOL    HW114245   0.416   4.045   2.326 -0.4451 -0.6331  0.3291
 4391SOL    HW214246   0.443   4.146   2.435  0.4088  0.9865 -1.3246
 4392SOL     OW14247   6.199   2.099   0.416  0.2516  0.0875  1.0291
 4392SOL    HW114248   6.161   2.034   0.358  2.5337  0.6734 -1.2775
 4392SOL    HW214249   6.175   2.183   0.378  0.9084  0.5204  1.5402
 4393SOL     OW14250   0.481   6.510   0.407  0.8065 -0.1947 -0.2829
 4393SOL    HW114251   0.402   6.561   0.388  0.0271 -1.8877 -1.8905
 4393SOL    HW214252   0.553   6.568   0.381  0.1042  1.1614  0.6713
 4394SOL     OW14253   4.317   1.729   5.495 -0.0409 -0.1085  0.2549
 4394SOL    HW114254   4.394   1.785   5.487  0.7499 -1.2076  0.0602
 4394SOL    HW214255   4.326   1.687   5.580 -0.7050  0.1413  0.4592
 4395SOL     OW14256   4.272   7.727   4.714 -0.1763 -0.1561 -0.0038
 4395SOL    HW114257   4.365   7.733   4.734  0.2214 -2.5320 -0.8575
 4395SOL    HW214258   4.250   7.814   4.681  1.6897  0.4985  0.3206
 4396SOL     OW14259   1.930   6.837   6.181  0.0514  0.8004 -0.5951
 4396SOL    HW114260   1.916   6.898   6.254  1.4059  0.6534 -0.1872
 4396SOL    HW214261   2.014   6.797   6.199 -0.1657 -0.1611 -1.6142
 4397SOL     OW14262   1.402   1.367   6.756  0.1040 -0.4098  0.6494
 4397SOL    HW114263   1.478   1.338   6.705 -0.6126 -0.2904 -0.5222
 4397SOL    HW214264   1.408   1.463   6.755 -0.0457 -0.4012  0.5748
 4398SOL     OW14265   4.481   4.988   6.931 -0.3056  0.1694  0.1932
 4398SOL    HW114266   4.443   4.913   6.885  0.1119 -0.3376  0.6674
 4398SOL    HW214267   4.574   4.968   6.938  0.1782  1.6105 -1.3672
 4399SOL     OW14268   4.232   5.959   1.885  0.2292 -0.2718 -0.0500
 4399SOL    HW114269   4.242   5.882   1.941 -2.5387  0.6066  1.9037
 4399SOL    HW214270   4.218   6.031   1.947  0.3957  1.3746 -1.8534
 4400SOL     OW14271   2.248   3.411   4.300 -0.2085 -0.0611 -0.4370
 4400SOL    HW114272   2.288   3.415   4.213  3.1674 -0.9894  0.8873
 4400SOL    HW214273   2.315   3.369   4.355 -2.0392  0.7805  2.7039
 4401SOL     OW14274   5.202   0.719   6.052  0.4594  0.0001 -0.7331
 4401SOL    HW114275   5.147   0.640   6.051  0.7292 -0.1793 -1.3795
 4401SOL    HW214276   5.291   0.687   6.045  0.6676  0.2908  0.3849
 4402SOL     OW14277   3.016   1.317   2.680  0.1483  0.2047  0.0467
 4402SOL    HW114278   3.068   1.385   2.723  0.2020 -0.5148  1.1614
 4402SOL    HW214279   3.038   1.237   2.726 -0.6420 -0.4108 -0.6110
 4403SOL     OW14280   2.341   2.004   1.690  0.5861 -0.0807  0.0755
 4403SOL    HW114281   2.258   1.961   1.711 -0.2604  0.5638 -1.6564
 4403SOL    HW214282   2.327   2.095   1.716  0.5983  0.1033 -0.5427
 4404SOL     OW14283   7.950   0.889   3.873 -0.3192  0.0283  0.1936
 4404SOL    HW114284   7.939   0.971   3.826  0.7344 -0.0738 -0.2618
 4404SOL    HW214285   7.935   0.911   3.965  0.0794  0.7492  0.0898
 4405SOL     OW14286   7.636   4.549   7.892  0.1196  0.0843 -0.0053
 4405SOL    HW114287   7.689   4.593   7.826  1.2233 -2.7842 -1.1451
 4405SOL    HW214288   7.545   4.567   7.865  0.5126  1.4931 -0.4796
 4406SOL     OW14289   2.960   6.505   1.737 -0.5148 -0.5161 -0.0440
 4406SOL    HW114290   2.968   6.478   1.645 -0.0304 -0.3737 -0.0498
 4406SOL    HW214291   2.984   6.598   1.736 -0.4543 -0.5291  0.2360
 4407SOL     OW14292   3.165   0.699   1.556  0.7677 -0.3790 -0.1452
 4407SOL    HW114293   3.210   0.633   1.609  0.1347 -1.6813 -1.2071
 4407SOL    HW214294   3.229   0.723   1.489  1.0495  0.2289  0.3236
 4408SOL     OW14295   0.923   7.551   7.485 -0.0420  0.2397  0.5886
 4408SOL    HW114296   1.003   7.603   7.496  1.3213 -1.4764 -0.6764
 4408SOL    HW214297   0.900   7.563   7.393 -2.2452  1.9964  1.2926
 4409SOL     OW14298   4.480   6.601   5.754  0.8215  0.0160 -0.0612
 4409SOL    HW114299   4.541   6.565   5.819  0.5752  2.6057  1.7639
 4409SOL    HW214300   4.397   6.557   5.773  1.3513 -1.1480 -0.3821
 4410SOL     OW14301   4.417   0.954   2.114  0.2558  0.6296  0.4480
 4410SOL    HW114302   4.366   0.953   2.195 -0.8430  0.9799 -0.2252
 4410SOL    HW214303   4.498   1.000   2.138  0.1401  0.3363  1.4520
 4411SOL     OW14304   2.845   4.296   5.600  0.0609  0.1478  0.3586
 4411SOL    HW114305   2.807   4.383   5.588  0.3184  0.1305 -0.6766
 4411SOL    HW214306   2.874   4.270   5.513  0.3578 -0.8097  0.7265
 4412SOL     OW14307   6.145   1.369   2.415  0.4494  0.0223 -0.3399
 4412SOL    HW114308   6.051   1.357   2.405  0.2424  1.9681 -1.1158
 4412SOL    HW214309   6.156   1.399   2.506  0.5850 -2.1049  0.4027
 4413SOL     OW14310   4.978   2.127   5.391 -0.1022  0.0030  0.6060
 4413SOL    HW114311   4.938   2.114   5.477  1.5288 -2.6577  1.1071
 4413SOL    HW214312   4.959   2.218   5.368 -2.3174  0.2029  2.8386
 4414SOL     OW14313   3.106   8.118   6.731 -0.2466 -0.2509 -0.1533
 4414SOL    HW114314   3.131   8.028   6.751 -0.3240 -0.5665 -1.3721
 4414SOL    HW214315   3.036   8.138   6.793  2.2796  0.3330  2.7043
 4415SOL     OW14316   1.034   5.613   4.513 -0.5454 -0.0855 -0.6323
 4415SOL    HW114317   1.089   5.536   4.528 -1.7569 -1.2020 -1.6310
 4415SOL    HW214318   1.057   5.642   4.424 -1.2247 -0.2816 -0.8782
 4416SOL     OW14319   7.185   5.819   8.142  0.1383  0.4379 -0.0985
 4416SOL    HW114320   7.258   5.762   8.118  0.8303  1.2764 -0.0625
 4416SOL    HW214321   7.110   5.786   8.092  0.6372 -0.2010 -0.4305
 4417SOL     OW14322   3.820   0.009   7.855  0.1517  0.0612 -0.0267
 4417SOL    HW114323   3.869  -0.001   7.936  2.4439 -0.7837 -1.4020
 4417SOL    HW214324   3.872   0.071   7.803 -0.6209 -0.2973 -1.2834
 4418SOL     OW14325   5.488   5.848   3.478 -0.2716  0.5671  0.1601
 4418SOL    HW114326   5.494   5.878   3.569 -0.3166 -1.1432  0.7677
 4418SOL    HW214327   5.556   5.782   3.470  0.0220  1.0017 -1.2044
 4419SOL     OW14328   2.031   1.608   0.247 -0.3386  0.3746 -0.2536
 4419SOL    HW114329   2.114   1.627   0.204  0.1682  0.8796  0.8964
 4419SOL    HW214330   1.980   1.561   0.181  0.3535  1.2069 -1.4289
 4420SOL     OW14331   6.191   6.031   2.363 -0.2018  0.5598  0.0500
 4420SOL    HW114332   6.128   5.960   2.353  1.1927 -0.4735 -2.5998
 4420SOL    HW214333   6.273   5.988   2.388  0.1230  1.5405  0.7492
 4421SOL     OW14334   5.823   5.330   7.430 -0.4094 -0.8334 -0.3563
 4421SOL    HW114335   5.846   5.332   7.523  0.9163  0.7947 -0.6659
 4421SOL    HW214336   5.812   5.422   7.407  0.4372 -1.1372 -2.0777
 4422SOL     OW14337   6.692   0.148   6.667  0.4168  0.3876  0.2385
 4422SOL    HW114338   6.715   0.061   6.633  0.8733 -0.9554  3.5752
 4422SOL    HW214339   6.772   0.180   6.708 -0.3108  1.4571  0.8803
 4423SOL     OW14340   5.758   1.787   3.333  0.2943  0.1901 -0.2172
 4423SOL    HW114341   5.677   1.839   3.330  1.5684  2.3819  0.4762
 4423SOL    HW214342   5.761   1.755   3.423  0.3217  0.3276 -0.1685
 4424SOL     OW14343   7.706   7.438   3.066 -0.2287  0.3580 -0.2343
 4424SOL    HW114344   7.785   7.491   3.074  1.5354 -1.3631 -3.7011
 4424SOL    HW214345   7.634   7.497   3.090  1.9091  2.7378  0.7217
 4425SOL     OW14346   5.501   1.919   6.278  0.1236 -0.5728 -0.9403
 4425SOL    HW114347   5.518   2.010   6.252  0.3743 -0.0959  0.7594
 4425SOL    HW214348   5.573   1.898   6.338 -0.3619 -1.6369 -0.7102
 4426SOL     OW14349   2.119   5.402   2.714  0.3931  0.2366 -0.1621
 4426SOL    HW114350   2.210   5.399   2.683  0.3415  1.4595 -0.4716
 4426SOL    HW214351   2.119   5.346   2.792  0.8216 -1.8331 -1.5467
 4427SOL     OW14352   4.103   0.548   6.560 -0.2645  0.3352 -0.1744
 4427SOL    HW114353   4.153   0.550   6.642 -0.0358  0.5032 -0.3179
 4427SOL    HW214354   4.012   0.560   6.587 -0.3995 -1.3377  0.2285
 4428SOL     OW14355   2.350   6.545   4.752 -0.3641  0.3817 -0.3561
 4428SOL    HW114356   2.277   6.603   4.774 -1.3825 -1.2848  0.9395
 4428SOL    HW214357   2.309   6.463   4.725  1.0267 -0.3456 -0.3778
 4429SOL     OW14358   1.849   0.569   2.149 -1.1832 -0.2686 -0.4523
 4429SOL    HW114359   1.821   0.597   2.062  0.1303 -1.1082 -1.1736
 4429SOL    HW214360   1.944   0.568   2.144 -1.0936 -0.3926  0.9848
 4430SOL     OW14361   7.262   0.541   7.655  0.3260 -0.3613 -0.2021
 4430SOL    HW114362   7.332   0.564   7.716  1.7219 -0.1189 -1.7943
 4430SOL    HW214363   7.181   0.565   7.699  1.2131 -1.0277  1.8792
 4431SOL     OW14364   4.232   0.170   1.403  0.1850  0.8602  0.4993
 4431SOL    HW114365   4.258   0.135   1.318 -0.7453 -2.4249  1.3913
 4431SOL    HW214366   4.139   0.190   1.393 -0.6411 -2.0807  1.3096
 4432SOL     OW14367   1.941   3.771   2.005 -0.0724  0.1362  0.3437
 4432SOL    HW114368   2.005   3.789   2.074  1.2817  0.1485 -0.8641
 4432SOL    HW214369   1.886   3.849   2.001  2.7691  2.2387 -1.6715
 4433SOL     OW14370   5.363   5.041   4.769 -0.5885  0.0804  0.7102
 4433SOL    HW114371   5.302   5.107   4.802 -0.5319 -0.2271  1.4518
 4433SOL    HW214372   5.356   5.048   4.673  2.2624  3.8368  0.5448
 4434SOL     OW14373   0.589   3.264   3.391  0.1546  0.2000 -0.1886
 4434SOL    HW114374   0.528   3.231   3.325  0.8782 -0.5033 -0.5269
 4434SOL    HW214375   0.673   3.223   3.369  0.4531  0.0839  1.0621
 4435SOL     OW14376   4.952   2.048   4.824  0.0338 -0.3670  0.7191
 4435SOL    HW114377   5.029   2.029   4.878 -0.8636 -1.9172  1.5408
 4435SOL    HW214378   4.901   2.110   4.875  0.0484 -0.4350  0.8156
 4436SOL     OW14379   2.534   0.236   5.241  0.4263  0.7983  0.0704
 4436SOL    HW114380   2.576   0.235   5.155 -0.8813 -1.1413 -0.6173
 4436SOL    HW214381   2.577   0.165   5.289 -0.2374  0.5394  0.2869
 4437SOL     OW14382   0.700   4.093   5.604  0.0156 -0.1213  0.0413
 4437SOL    HW114383   0.697   4.020   5.542 -1.3019 -0.3224  0.3246
 4437SOL    HW214384   0.668   4.056   5.686  0.9838  0.3522  0.6429
 4438SOL     OW14385   0.985   4.093   0.510  0.1042  0.4047  0.2364
 4438SOL    HW114386   0.897   4.110   0.542  0.6415  0.9977  1.4479
 4438SOL    HW214387   1.040   4.158   0.553  0.9998  0.6994 -1.2703
 4439SOL     OW14388   8.066   2.488   7.351 -0.4364  0.4902 -1.1246
 4439SOL    HW114389   8.015   2.542   7.291 -0.6969  0.3818 -1.0027
 4439SOL    HW214390   8.024   2.401   7.347 -2.0368  1.0616  1.0565
 4440SOL     OW14391   3.459   0.109   4.019 -0.1994 -0.0632 -0.2235
 4440SOL    HW114392   3.390   0.076   3.961  0.7000 -0.6792 -0.9809
 4440SOL    HW214393   3.423   0.101   4.107 -0.8820 -0.9136 -0.5683
 4441SOL     OW14394   6.715   0.574   4.653 -0.1133 -0.3465  0.2322
 4441SOL    HW114395   6.738   0.613   4.569 -0.3429  1.5511  0.9829
 4441SOL    HW214396   6.674   0.491   4.631  0.8814 -0.4384 -1.4588
 4442SOL     OW14397   4.042   3.342   4.047  0.1156  0.2732 -0.7012
 4442SOL    HW114398   4.108   3.394   4.093  0.0122  0.0218 -0.2606
 4442SOL    HW214399   4.013   3.277   4.112 -2.4958  2.0237  0.0433
 4443SOL     OW14400   6.692   4.345   7.698  0.2166  0.6212 -0.0247
 4443SOL    HW114401   6.676   4.268   7.644  1.0363  0.6794 -0.3727
 4443SOL    HW214402   6.605   4.381   7.715 -0.0850  0.4392 -1.0720
 4444SOL     OW14403   5.507   0.769   2.427 -0.1049  0.2238  0.5215
 4444SOL    HW114404   5.480   0.737   2.341  2.1321 -1.6324  0.3883
 4444SOL    HW214405   5.503   0.864   2.421  0.3659  0.1393 -1.7935
 4445SOL     OW14406   0.239   6.575   1.516 -0.7629  0.8227 -0.6832
 4445SOL    HW114407   0.164   6.527   1.551  0.2342 -0.1840  0.1626
 4445SOL    HW214408   0.300   6.506   1.489  0.8664  1.5829  0.8883
 4446SOL     OW14409   6.722   2.787   1.039 -0.1573 -0.2195  0.5236
 4446SOL    HW114410   6.774   2.802   1.118 -0.1451 -2.0254  0.9148
 4446SOL    HW214411   6.632   2.806   1.066  0.0372  0.8981  0.4362
 4447SOL     OW14412   6.275   0.197   1.728 -0.7676  0.5383  0.8385
 4447SOL    HW114413   6.357   0.232   1.762 -0.4227  1.0817 -0.4870
 4447SOL    HW214414   6.226   0.275   1.702 -1.8083  0.2331  1.7945
 4448SOL     OW14415   5.760   5.162   0.490 -0.0226  0.2962 -0.1036
 4448SOL    HW114416   5.843   5.208   0.484 -0.6500  1.2283 -2.8865
 4448SOL    HW214417   5.779   5.085   0.544  1.9919  1.7252  1.3666
 4449SOL     OW14418   2.313   3.187   0.083 -0.2653  0.0249 -0.0528
 4449SOL    HW114419   2.310   3.226   0.170  2.3201 -0.1104  0.1576
 4449SOL    HW214420   2.345   3.257   0.026  1.0948 -0.7540 -0.2900
 4450SOL     OW14421   1.282   5.056   2.717  0.0223 -0.3090  0.1099
 4450SOL    HW114422   1.368   5.021   2.738  0.9560  1.8636  0.1816
 4450SOL    HW214423   1.253   5.100   2.797 -1.0010 -0.6954 -0.0279
 4451SOL     OW14424   6.609   7.841   1.706  0.1973 -0.3759  0.3055
 4451SOL    HW114425   6.560   7.764   1.735 -1.0112 -0.2466 -1.2572
 4451SOL    HW214426   6.604   7.902   1.780 -1.2560 -0.7264  0.5361
 4452SOL     OW14427   3.861   6.165   0.589  0.3328 -0.3254  0.1180
 4452SOL    HW114428   3.881   6.074   0.609  0.6400 -0.5979 -1.3551
 4452SOL    HW214429   3.940   6.198   0.546 -0.4857  0.0398 -1.1643
 4453SOL     OW14430   6.836   0.072   2.551  0.2367 -0.1963  0.2529
 4453SOL    HW114431   6.843   0.155   2.505 -0.0139 -0.8436 -0.9960
 4453SOL    HW214432   6.926   0.053   2.579  0.4794 -0.0056 -0.3758
 4454SOL     OW14433   2.868   6.927   2.306  0.3816  0.1560 -0.3873
 4454SOL    HW114434   2.960   6.901   2.304  0.3617 -0.0240  0.5586
 4454SOL    HW214435   2.869   7.021   2.286  0.6216 -0.1470 -1.9081
 4455SOL     OW14436   0.116   2.965   2.517 -0.3431  0.1509 -0.1145
 4455SOL    HW114437   0.045   2.937   2.460  0.8700 -1.1111 -1.0505
 4455SOL    HW214438   0.156   3.038   2.470 -1.4460  1.3873  0.7782
 4456SOL     OW14439   0.398   5.540   3.805  0.1089 -0.2250  0.5296
 4456SOL    HW114440   0.448   5.620   3.787 -0.5886  0.1083  0.0490
 4456SOL    HW214441   0.314   5.571   3.837 -0.2072 -0.7578  0.2270
 4457SOL     OW14442   4.554   2.574   7.550  0.0571 -0.0700 -0.0459
 4457SOL    HW114443   4.583   2.660   7.578  2.0596 -0.8370  0.4174
 4457SOL    HW214444   4.598   2.559   7.466 -0.3474 -0.5807 -0.1736
 4458SOL     OW14445   5.521   4.636   0.484  0.1115 -0.3556  0.2249
 4458SOL    HW114446   5.482   4.684   0.411  0.9867  0.6632  0.4023
 4458SOL    HW214447   5.467   4.558   0.493 -0.1196 -0.4185 -1.4092
 4459SOL     OW14448   7.649   3.239   5.745 -0.1160  0.1623  0.1979
 4459SOL    HW114449   7.610   3.266   5.828 -0.1979  2.5970 -0.5554
 4459SOL    HW214450   7.597   3.284   5.678  2.1348  1.1873 -0.9670
 4460SOL     OW14451   3.019   5.631   8.125 -0.0810  0.2679 -0.0616
 4460SOL    HW114452   3.097   5.644   8.071 -0.3053 -0.0884 -0.4823
 4460SOL    HW214453   2.985   5.546   8.097 -0.4097  0.2516  0.3836
 4461SOL     OW14454   3.326   3.573   4.972  0.3668 -0.2055 -0.5757
 4461SOL    HW114455   3.395   3.568   5.038  0.8530 -1.2739 -1.1323
 4461SOL    HW214456   3.248   3.602   5.020  0.0743 -3.2285  1.0214
 4462SOL     OW14457   7.727   7.606   1.213  0.8261  0.6542  0.1530
 4462SOL    HW114458   7.796   7.671   1.206 -1.6522  3.4621  0.0567
 4462SOL    HW214459   7.725   7.563   1.128  2.3012  0.5873  0.1244
 4463SOL     OW14460   4.245   1.547   6.088 -0.0584 -0.5521 -0.3043
 4463SOL    HW114461   4.196   1.628   6.076 -0.2564 -0.8006 -1.2950
 4463SOL    HW214462   4.219   1.492   6.013 -0.3898 -1.7673  0.6738
 4464SOL     OW14463   6.655   1.934   7.798 -0.3046  0.1461 -0.5339
 4464SOL    HW114464   6.707   2.014   7.803  1.8805 -1.0747 -2.1105
 4464SOL    HW214465   6.599   1.946   7.722 -1.0945  0.7278  0.1130
 4465SOL     OW14466   1.485   4.785   1.572  0.5780 -0.0480 -0.2787
 4465SOL    HW114467   1.460   4.784   1.665 -0.7832 -0.8262 -0.6237
 4465SOL    HW214468   1.581   4.782   1.573  0.6366  0.9829  1.1056
 4466SOL     OW14469   2.217   2.590   2.805  0.1595 -0.1264 -0.4307
 4466SOL    HW114470   2.128   2.601   2.771  0.5867  3.5166 -0.7880
 4466SOL    HW214471   2.204   2.566   2.897 -1.2506  0.6670 -0.3817
 4467SOL     OW14472   7.621   7.234   7.267 -0.0271  0.5930 -0.1164
 4467SOL    HW114473   7.699   7.205   7.313  1.7107  0.3225 -2.9635
 4467SOL    HW214474   7.649   7.311   7.218 -0.6599 -1.0108 -3.2956
 4468SOL     OW14475   7.143   7.584   7.934 -0.5280 -0.4626 -0.0126
 4468SOL    HW114476   7.121   7.502   7.979 -1.6843  1.0329  2.3906
 4468SOL    HW214477   7.220   7.617   7.980 -1.7062  1.0882  0.9767
 4469SOL     OW14478   1.735   0.564   1.035 -0.0674  0.1537 -0.0543
 4469SOL    HW114479   1.728   0.579   1.129 -0.9707  0.2071 -0.1137
 4469SOL    HW214480   1.789   0.636   1.002 -1.3685  1.2806  0.1669
 4470SOL     OW14481   5.006   0.273   7.138 -0.1665  0.4769 -0.5733
 4470SOL    HW114482   4.910   0.276   7.139 -0.2844 -1.2711 -1.8311
 4470SOL    HW214483   5.029   0.226   7.219 -0.3816  0.5921 -0.4430
 4471SOL     OW14484   7.683   1.408   0.298  0.3960 -0.6522  0.5249
 4471SOL    HW114485   7.711   1.318   0.312  0.1977 -0.4804  2.2540
 4471SOL    HW214486   7.654   1.438   0.384  1.7096  1.4813  0.3187
 4472SOL     OW14487   6.686   3.543   1.644  0.4582 -0.4693 -0.1083
 4472SOL    HW114488   6.673   3.466   1.588 -1.9454  0.3700 -0.7824
 4472SOL    HW214489   6.649   3.518   1.728  0.4019 -0.3190 -0.0886
 4473SOL     OW14490   2.202   6.234   3.763  0.1152 -0.2726 -0.4234
 4473SOL    HW114491   2.139   6.190   3.705  0.3570  1.3205 -1.9416
 4473SOL    HW214492   2.287   6.207   3.731  0.2544 -0.5251  0.1346
 4474SOL     OW14493   2.922   7.624   3.036  0.5586  0.1752 -0.3097
 4474SOL    HW114494   2.867   7.701   3.021  1.1754  0.2306 -2.7946
 4474SOL    HW214495   2.971   7.645   3.115 -1.3612  1.0505  0.7201
 4475SOL     OW14496   7.821   6.157   7.045 -0.0146  0.2678 -0.1210
 4475SOL    HW114497   7.905   6.199   7.027  0.6557 -0.2855  1.5576
 4475SOL    HW214498   7.774   6.220   7.098  0.8014 -0.8168  1.9894
 4476SOL     OW14499   3.071   0.327   3.997 -0.6093 -0.0442 -0.2004
 4476SOL    HW114500   3.028   0.255   3.950 -1.9039  0.6011 -0.0532
 4476SOL    HW214501   3.000   0.388   4.017 -0.0094  0.0240  2.0253
 4477SOL     OW14502   3.681   1.354   4.121 -0.4664  0.1118 -0.0641
 4477SOL    HW114503   3.632   1.292   4.067  2.3742 -1.8813 -0.6277
 4477SOL    HW214504   3.720   1.415   4.058  0.8793 -0.7460 -0.1197
 4478SOL     OW14505   3.851   4.178   6.629  0.1752 -0.8226 -0.3022
 4478SOL    HW114506   3.821   4.224   6.550  1.8888  1.7325  0.4116
 4478SOL    HW214507   3.771   4.164   6.680 -0.5805  0.2285 -1.1509
 4479SOL     OW14508   0.218   5.474   6.036  0.8115 -0.8201 -0.1971
 4479SOL    HW114509   0.166   5.394   6.036  0.2716 -0.4867 -0.9893
 4479SOL    HW214510   0.276   5.465   6.111 -2.9357  0.4576  3.1844
 4480SOL     OW14511   2.911   8.096   4.135 -0.4785 -0.7837  0.5632
 4480SOL    HW114512   3.002   8.067   4.141 -0.5121 -0.6191  2.6829
 4480SOL    HW214513   2.902   8.163   4.203 -1.0392  2.6147 -2.5335
 4481SOL     OW14514   7.459   4.447   5.364  0.2947  0.0461  0.4117
 4481SOL    HW114515   7.526   4.512   5.383  0.4365 -0.6136  2.3830
 4481SOL    HW214516   7.377   4.496   5.363  0.2882  0.2125  2.7645
 4482SOL     OW14517   2.679   3.157   1.027 -0.2821 -0.5342  0.0161
 4482SOL    HW114518   2.589   3.137   1.053 -1.1433  1.0674 -1.4586
 4482SOL    HW214519   2.699   3.239   1.072  0.5703 -1.0428  0.5783
 4483SOL     OW14520   5.426   1.063   1.542  0.0392  0.0601 -0.6076
 4483SOL    HW114521   5.467   1.073   1.456  0.9230 -1.9996 -0.4892
 4483SOL    HW214522   5.333   1.082   1.527  0.0432 -1.0508 -2.2148
 4484SOL     OW14523   3.408   7.672   2.175  0.5301  0.2929 -0.4419
 4484SOL    HW114524   3.353   7.599   2.146  1.6047 -0.3635 -0.8704
 4484SOL    HW214525   3.350   7.749   2.169 -0.7013 -0.5466  0.3194
 4485SOL     OW14526   8.138   1.169   2.986 -0.0495 -0.8062  0.4415
 4485SOL    HW114527   8.233   1.158   2.986 -0.0999 -1.4000  1.9387
 4485SOL    HW214528   8.119   1.215   3.067 -0.9671  0.2827 -0.3526
 4486SOL     OW14529   2.135   6.716   7.341 -0.5965  0.1684  0.5669
 4486SOL    HW114530   2.208   6.777   7.327 -1.6397  1.3513  0.0518
 4486SOL    HW214531   2.107   6.691   7.254 -1.4292  0.5162  0.7243
 4487SOL     OW14532   2.858   2.991   3.911 -0.7086 -0.3716 -0.1250
 4487SOL    HW114533   2.823   2.902   3.905  2.3342 -1.6247 -1.2608
 4487SOL    HW214534   2.825   3.035   3.833 -2.2175 -0.4173  0.4357
 4488SOL     OW14535   5.269   0.752   0.273 -0.0576  0.4334 -0.5515
 4488SOL    HW114536   5.359   0.733   0.245 -0.2691  0.6568 -1.4037
 4488SOL    HW214537   5.260   0.706   0.356  0.9973  0.7657 -0.2326
 4489SOL     OW14538   8.141   8.028   7.294 -0.6620 -0.0468  1.0569
 4489SOL    HW114539   8.201   7.963   7.257 -2.6584 -0.6137 -1.5049
 4489SOL    HW214540   8.168   8.110   7.254 -2.7168 -0.6348 -1.8878
 4490SOL     OW14541   2.646   6.611   4.868 -0.1748  0.7082 -0.1948
 4490SOL    HW114542   2.674   6.599   4.778 -0.0771 -0.6052 -0.0100
 4490SOL    HW214543   2.580   6.543   4.882  0.0927  0.6441  0.8377
 4491SOL     OW14544   3.086   2.908   5.117 -0.6845 -0.0485  0.0585
 4491SOL    HW114545   3.007   2.949   5.082 -1.3221  0.9770  2.4985
 4491SOL    HW214546   3.054   2.851   5.187  0.6577 -0.6516  0.2176
 4492SOL     OW14547   1.325   3.616   0.701 -0.1162 -0.4446 -0.7114
 4492SOL    HW114548   1.396   3.635   0.639  0.8476 -0.0037  0.4846
 4492SOL    HW214549   1.253   3.674   0.673  1.2079  1.7042  0.1030
 4493SOL     OW14550   6.101   0.872   2.108  0.0626  0.3940 -0.3883
 4493SOL    HW114551   6.163   0.845   2.040 -0.6564  1.3681 -1.4656
 4493SOL    HW214552   6.149   0.859   2.190  0.2971 -2.6761 -0.8737
 4494SOL     OW14553   7.120   5.184   1.161  0.0565  0.2000  0.1712
 4494SOL    HW114554   7.058   5.134   1.107  1.4462 -1.5258  0.0853
 4494SOL    HW214555   7.126   5.134   1.242  1.7496 -0.0168 -0.0484
 4495SOL     OW14556   0.636   6.671   6.487 -0.6148 -0.3215 -0.4094
 4495SOL    HW114557   0.590   6.598   6.529  1.8556 -2.0082 -0.4443
 4495SOL    HW214558   0.569   6.714   6.434 -3.7727  1.3572  4.2577
 4496SOL     OW14559   0.037   6.980   7.512 -0.3156  0.4437 -0.0525
 4496SOL    HW114560  -0.017   7.031   7.573 -1.7140  0.3147 -1.1196
 4496SOL    HW214561   0.038   7.033   7.432 -0.1579 -0.2926 -0.5483
 4497SOL     OW14562   2.812   4.988   2.070 -0.7774  0.6056  0.0051
 4497SOL    HW114563   2.831   4.947   2.155 -0.4570  1.0852  0.1655
 4497SOL    HW214564   2.897   5.016   2.037 -0.9212  0.5648 -0.4028
 4498SOL     OW14565   3.169   5.787   3.377 -1.0519 -0.4538  0.3534
 4498SOL    HW114566   3.171   5.813   3.469  0.1181 -0.9955  0.4954
 4498SOL    HW214567   3.140   5.696   3.377 -3.3765  0.2342 -0.0130
 4499SOL     OW14568   2.782   8.029   5.529 -0.3955  0.0998  0.0841
 4499SOL    HW114569   2.853   8.029   5.465 -0.8607  1.2877 -0.4638
 4499SOL    HW214570   2.821   7.994   5.608  0.9673  1.2563 -0.0443
 4500SOL     OW14571   1.760   3.545   5.574 -0.0129 -0.3183 -0.4901
 4500SOL    HW114572   1.822   3.556   5.501 -0.8078 -0.8515 -1.2650
 4500SOL    HW214573   1.690   3.608   5.556  1.6160  2.4221  1.9265
 4501SOL     OW14574   4.565   1.204   8.005  0.2251 -0.3710 -0.3818
 4501SOL    HW114575   4.651   1.245   8.006  1.1360 -2.0548  2.1011
 4501SOL    HW214576   4.579   1.118   7.966 -0.5550 -0.3345 -0.7822
 4502SOL     OW14577   1.375   2.985   5.512  0.0655 -0.1435  0.5995
 4502SOL    HW114578   1.301   2.999   5.452 -0.3576 -2.8586  0.3729
 4502SOL    HW214579   1.338   3.000   5.599 -0.5468 -0.6489  0.4329
 4503SOL     OW14580   8.109   6.260   2.352  0.5108  0.2509 -0.2787
 4503SOL    HW114581   8.116   6.166   2.334 -1.4422 -0.3255  1.5371
 4503SOL    HW214582   8.178   6.276   2.417  0.7012  0.0271 -0.4211
 4504SOL     OW14583   7.784   5.332   0.806 -0.9850 -0.5943  0.3056
 4504SOL    HW114584   7.869   5.374   0.805 -1.7865  1.1372 -1.1405
 4504SOL    HW214585   7.775   5.297   0.894  0.7581  0.1323  0.8118
 4505SOL     OW14586   6.489   5.141   7.260  0.5263  0.3029 -0.2797
 4505SOL    HW114587   6.583   5.141   7.245  0.6532 -1.6564  0.1372
 4505SOL    HW214588   6.450   5.117   7.176  0.4927 -0.0208 -0.1751
 4506SOL     OW14589   7.704   0.867   4.311 -0.1166 -0.0303  0.0611
 4506SOL    HW114590   7.691   0.774   4.328 -0.9255 -0.4104 -2.2128
 4506SOL    HW214591   7.622   0.908   4.339  0.0237 -0.0726  0.5425
 4507SOL     OW14592   6.159   2.079   1.630 -0.3320 -0.1929 -0.1483
 4507SOL    HW114593   6.252   2.071   1.607 -0.3800 -4.2992  0.2741
 4507SOL    HW214594   6.113   2.073   1.547 -0.2215 -2.0133 -0.1192
 4508SOL     OW14595   7.016   2.821   3.042  0.3385 -0.4849  0.4569
 4508SOL    HW114596   7.050   2.889   2.984 -1.1343 -0.0658  0.0399
 4508SOL    HW214597   7.087   2.757   3.047  2.1383  1.4521  1.5637
 4509SOL     OW14598   0.495   1.443   4.739 -0.3113 -0.2704 -0.2570
 4509SOL    HW114599   0.510   1.515   4.801  0.8834  1.5285 -2.4979
 4509SOL    HW214600   0.460   1.372   4.793  2.0927  0.6312  2.7669
 4510SOL     OW14601   3.287   5.475   0.798 -0.2222 -0.4696  0.3341
 4510SOL    HW114602   3.281   5.383   0.773  0.3359  0.2778 -2.9442
 4510SOL    HW214603   3.198   5.500   0.820 -0.4628 -1.6354  0.7725
 4511SOL     OW14604   6.953   4.796   2.659 -0.2150  0.3316  0.1118
 4511SOL    HW114605   7.000   4.719   2.691 -0.9589 -0.0755  0.2465
 4511SOL    HW214606   6.903   4.826   2.735 -0.1141  0.8045 -0.0096
 4512SOL     OW14607   6.865   2.843   1.262  0.1470 -0.1862  0.0997
 4512SOL    HW114608   6.959   2.825   1.270  0.1074 -0.3226  0.2591
 4512SOL    HW214609   6.833   2.842   1.352  0.0255  0.0428  0.0594
 4513SOL     OW14610   7.533   4.372   3.226 -0.3227 -0.6805 -0.2695
 4513SOL    HW114611   7.437   4.379   3.225 -0.3555 -0.5747 -3.2058
 4513SOL    HW214612   7.563   4.447   3.175  1.0682 -2.7766 -2.7740
 4514SOL     OW14613   4.877   6.451   4.851  0.2821  0.4771  0.4215
 4514SOL    HW114614   4.881   6.508   4.774 -0.9213 -1.5373 -1.2237
 4514SOL    HW214615   4.792   6.469   4.890  0.3841  0.5996  0.5941
 4515SOL     OW14616   0.824   4.478   7.248 -1.1532 -0.2577  0.3401
 4515SOL    HW114617   0.763   4.405   7.257 -1.4223 -0.3916 -1.9584
 4515SOL    HW214618   0.830   4.494   7.153  0.4201  1.4208  0.6433
 4516SOL     OW14619   4.571   1.127   2.419 -0.0525 -0.1119 -0.3417
 4516SOL    HW114620   4.478   1.107   2.403 -0.1029 -1.4265  1.2324
 4516SOL    HW214621   4.576   1.142   2.513  1.6076 -2.0239 -0.0423
 4517SOL     OW14622   2.672   1.674   6.901  0.5086 -0.1180 -0.2957
 4517SOL    HW114623   2.578   1.682   6.920  0.8778  1.3061  1.1155
 4517SOL    HW214624   2.677   1.676   6.805 -0.9214 -0.6150 -0.4088
 4518SOL     OW14625   4.394   1.449   2.715 -0.0523  0.0664  0.0546
 4518SOL    HW114626   4.486   1.457   2.691 -0.4944  0.8596 -1.5222
 4518SOL    HW214627   4.347   1.458   2.632 -1.5821  0.5042  0.9361
 4519SOL     OW14628   7.030   0.467   6.510  0.4018 -0.3553  0.6446
 4519SOL    HW114629   7.012   0.501   6.597 -2.7271 -0.4841  0.1575
 4519SOL    HW214630   6.946   0.431   6.480  1.5517 -1.0288 -2.1006
 4520SOL     OW14631   1.785   2.822   1.969 -0.4786 -0.1730  0.7344
 4520SOL    HW114632   1.822   2.803   1.882  0.2044 -1.0567  1.2005
 4520SOL    HW214633   1.861   2.818   2.028 -1.2138 -1.4663  1.6370
 4521SOL     OW14634   7.376   3.972   3.392 -0.3170  0.6514  0.0970
 4521SOL    HW114635   7.334   3.958   3.307 -0.5061  0.8188  0.1620
 4521SOL    HW214636   7.312   4.022   3.442 -0.0654  0.8604  0.2145
 4522SOL     OW14637   6.842   6.665   1.456  0.5963 -0.6926  0.0213
 4522SOL    HW114638   6.774   6.598   1.445  0.2637 -0.4165  0.3556
 4522SOL    HW214639   6.924   6.617   1.450  0.4214 -0.8442 -1.8213
 4523SOL     OW14640   7.745   7.412   5.957  0.1309 -0.2391 -1.4113
 4523SOL    HW114641   7.778   7.463   5.882 -1.2450 -1.1012 -2.6641
 4523SOL    HW214642   7.650   7.412   5.946 -0.0220 -1.4278 -0.3383
 4524SOL     OW14643   2.063   7.080   5.601 -0.4728 -0.1808  0.8891
 4524SOL    HW114644   1.998   7.031   5.650  0.7985 -2.8230  0.1242
 4524SOL    HW214645   2.142   7.077   5.657 -0.0753  0.0442  0.3457
 4525SOL     OW14646   5.816   2.533   2.097 -0.2971  0.2038 -0.0888
 4525SOL    HW114647   5.868   2.456   2.122 -0.2983  0.1925 -0.1214
 4525SOL    HW214648   5.861   2.568   2.020  0.5845  1.1219  0.8137
 4526SOL     OW14649   5.027   1.318   4.772 -0.5935 -0.3937 -0.1620
 4526SOL    HW114650   5.066   1.286   4.853  1.1760  0.5397 -0.5968
 4526SOL    HW214651   4.956   1.375   4.800  1.8256  2.3612  0.9499
 4527SOL     OW14652   4.441   7.659   6.607  0.4130 -0.4307 -0.9075
 4527SOL    HW114653   4.447   7.572   6.568 -0.7742 -0.4276 -1.1305
 4527SOL    HW214654   4.357   7.658   6.654  0.9582  0.1833  0.1084
 4528SOL     OW14655   2.257   1.567   4.503 -0.3619  0.0403 -0.1006
 4528SOL    HW114656   2.255   1.515   4.422 -0.3713  0.3346 -0.2900
 4528SOL    HW214657   2.329   1.629   4.490 -0.1840 -0.0956  0.2310
 4529SOL     OW14658   4.567   0.780   2.724  0.4417 -0.3772 -0.0760
 4529SOL    HW114659   4.561   0.817   2.635 -0.2276  2.0896  0.9181
 4529SOL    HW214660   4.659   0.754   2.733  0.4695 -0.8876 -1.5402
 4530SOL     OW14661   3.845   1.578   5.330  0.3700 -0.0547 -0.2772
 4530SOL    HW114662   3.918   1.638   5.346 -1.5078  2.0337  1.0322
 4530SOL    HW214663   3.789   1.587   5.407 -1.4819 -1.2571 -1.3991
 4531SOL     OW14664   4.248   0.183   7.158 -0.0527 -0.0831 -0.0804
 4531SOL    HW114665   4.160   0.161   7.190 -0.3652  0.2593 -0.6822
 4531SOL    HW214666   4.233   0.213   7.068  0.9356 -2.2392 -1.0282
 4532SOL     OW14667   0.318   3.691   4.993 -0.2094 -0.0865 -0.4531
 4532SOL    HW114668   0.375   3.767   4.982  0.7470 -0.7155 -0.0064
 4532SOL    HW214669   0.373   3.617   4.966 -1.5018 -0.5245 -2.0145
 4533SOL     OW14670   7.532   0.005   3.485 -0.1587 -0.1395  1.0618
 4533SOL    HW114671   7.554  -0.076   3.438 -0.3106  1.2295 -1.5278
 4533SOL    HW214672   7.437   0.010   3.480 -0.0448  1.0663 -0.4167
 4534SOL     OW14673   0.387   0.574   4.393 -0.0597  0.0482  0.3584
 4534SOL    HW114674   0.298   0.570   4.356  0.9361 -0.8619 -2.1227
 4534SOL    HW214675   0.404   0.668   4.402 -1.3737  0.2394  1.2350
 4535SOL     OW14676   2.124   6.391   5.322 -0.4195 -0.5104 -0.0004
 4535SOL    HW114677   2.182   6.431   5.387 -1.2257 -0.4319  0.6848
 4535SOL    HW214678   2.167   6.409   5.238  0.4886 -0.3575  0.4818
 4536SOL     OW14679   0.021   6.968   6.422 -0.2471 -0.1424  1.0324
 4536SOL    HW114680   0.008   7.057   6.455 -0.5325  0.1870  0.0559
 4536SOL    HW214681   0.095   6.935   6.472 -0.4012  0.4926  1.7018
 4537SOL     OW14682   0.212   0.603   2.394  0.6773 -0.2137 -0.1749
 4537SOL    HW114683   0.139   0.567   2.344  0.2049 -0.8887  0.9552
 4537SOL    HW214684   0.186   0.694   2.411 -0.8807 -0.9392  1.8514
 4538SOL     OW14685   6.093   3.274   3.824  0.3660  0.3623  0.2399
 4538SOL    HW114686   6.055   3.210   3.884 -0.7158  1.8033  1.1807
 4538SOL    HW214687   6.033   3.276   3.749 -0.2535  1.0811  0.7404
 4539SOL     OW14688   5.093   7.983   2.493  0.1013  0.4303 -1.0451
 4539SOL    HW114689   5.020   7.969   2.432 -0.8360  0.5367  0.0236
 4539SOL    HW214690   5.099   8.078   2.501 -0.4928  0.3984 -0.1458
 4540SOL     OW14691   0.862   6.337   6.361  0.6650  0.1314 -0.4107
 4540SOL    HW114692   0.904   6.323   6.446  0.8289  0.1019 -0.4975
 4540SOL    HW214693   0.897   6.421   6.330  1.2690 -0.2719 -0.8466
 4541SOL     OW14694   0.878   6.664   5.044 -0.3635  0.1017 -0.5722
 4541SOL    HW114695   0.879   6.760   5.038  0.6287  0.0343 -2.1549
 4541SOL    HW214696   0.948   6.643   5.106 -1.3274  0.4134  0.6542
 4542SOL     OW14697   5.472   4.085   6.308 -0.8395 -0.0711 -0.6850
 4542SOL    HW114698   5.527   4.122   6.239 -0.2847 -0.8337 -0.6684
 4542SOL    HW214699   5.483   3.990   6.299  1.7381 -0.2281  2.3745
 4543SOL     OW14700   0.377   3.764   6.619 -0.9039  0.0268  0.6144
 4543SOL    HW114701   0.410   3.692   6.565 -0.8381  0.2932  0.2954
 4543SOL    HW214702   0.288   3.738   6.643 -0.5237 -0.6310  1.3578
 4544SOL     OW14703   1.442   4.736   5.258 -0.0622  0.7577  0.1591
 4544SOL    HW114704   1.362   4.780   5.227 -1.6288 -0.4821  2.1773
 4544SOL    HW214705   1.497   4.806   5.290 -0.2318  1.6630 -1.4128
 4545SOL     OW14706   1.518   1.329   5.902 -0.1309 -0.8278 -0.5443
 4545SOL    HW114707   1.589   1.385   5.932 -1.9414  2.9864 -2.5831
 4545SOL    HW214708   1.468   1.309   5.981 -0.0448  1.6029  0.2250
 4546SOL     OW14709   1.041   7.293   3.605 -0.0482  0.6270  0.9201
 4546SOL    HW114710   0.980   7.318   3.537  1.9668  1.0846 -0.8164
 4546SOL    HW214711   1.068   7.375   3.646 -0.1220  0.4819  1.2699
 4547SOL     OW14712   2.527   2.849   3.393  0.2019 -0.1159 -0.4604
 4547SOL    HW114713   2.523   2.800   3.311  0.2740 -1.1743  0.1631
 4547SOL    HW214714   2.611   2.895   3.391  0.9984 -1.5314 -0.2015
 4548SOL     OW14715   3.624   3.134   6.426  0.2301  0.3561 -0.2423
 4548SOL    HW114716   3.684   3.199   6.389 -1.5260  2.7038  0.7082
 4548SOL    HW214717   3.602   3.169   6.513 -0.5140 -1.7572  0.4767
 4549SOL     OW14718   5.796   2.531   4.320 -0.3681  0.4515  0.3423
 4549SOL    HW114719   5.870   2.574   4.364  0.5855 -1.2804  0.5043
 4549SOL    HW214720   5.725   2.535   4.384 -0.2065  1.4413  0.4855
 4550SOL     OW14721   5.761   7.976   6.611  0.2101 -0.6329  0.1614
 4550SOL    HW114722   5.735   7.889   6.641  0.0795 -1.1091 -1.2316
 4550SOL    HW214723   5.708   7.990   6.532 -0.4860  1.1291  0.8868
 4551SOL     OW14724   0.107   5.470   1.141 -0.1777 -0.6109  0.5544
 4551SOL    HW114725   0.112   5.411   1.216 -2.4173 -1.5836  0.0351
 4551SOL    HW214726   0.018   5.458   1.107 -0.3653  2.3072 -0.2427
 4552SOL     OW14727   7.876   3.030   1.425 -0.0187  0.1696 -0.1471
 4552SOL    HW114728   7.926   3.002   1.502  0.7686  0.1201 -0.6709
 4552SOL    HW214729   7.923   2.994   1.351 -0.6532  0.4037 -0.6744
 4553SOL     OW14730   5.574   2.974   5.436 -0.3354  0.2159  0.6275
 4553SOL    HW114731   5.551   2.891   5.478  2.4099 -0.7197  0.5129
 4553SOL    HW214732   5.537   3.041   5.492 -3.4255 -1.0180  0.2445
 4554SOL     OW14733   5.173   7.214   5.653  0.0113  0.4103  0.3997
 4554SOL    HW114734   5.220   7.243   5.731  1.1736  0.2417 -0.2230
 4554SOL    HW214735   5.111   7.149   5.686  0.4089  0.4168  1.1967
 4555SOL     OW14736   1.422   6.049   6.651  0.2883 -0.5983 -0.2188
 4555SOL    HW114737   1.503   6.098   6.636 -0.6939  1.2113  0.1760
 4555SOL    HW214738   1.363   6.079   6.582 -1.0354  0.4158  1.2919
 4556SOL     OW14739   3.741   1.210   2.721 -0.2292 -0.2684 -0.4056
 4556SOL    HW114740   3.740   1.272   2.793  1.9602 -1.0127  0.3691
 4556SOL    HW214741   3.729   1.125   2.762 -0.5475 -0.5811 -1.1230
 4557SOL     OW14742   2.764   2.013   7.294 -0.9572  0.0834  0.7852
 4557SOL    HW114743   2.791   2.105   7.300  1.0281 -0.3914 -0.1555
 4557SOL    HW214744   2.817   1.977   7.224 -1.9904 -1.7105  0.8749
 4558SOL     OW14745   4.807   5.482   1.621  0.0924  0.6626 -0.7176
 4558SOL    HW114746   4.872   5.472   1.551  0.0477  1.3930 -0.8711
 4558SOL    HW214747   4.727   5.444   1.586  0.2863  0.2887 -0.7529
 4559SOL     OW14748   0.345   5.509   1.000 -0.1477  0.2313  0.1928
 4559SOL    HW114749   0.377   5.598   1.018  0.4516  0.1413 -0.3842
 4559SOL    HW214750   0.267   5.500   1.055 -0.8873  1.5246 -0.5846
 4560SOL     OW14751   6.383   4.337   0.777 -0.2231  0.2890  0.2458
 4560SOL    HW114752   6.454   4.401   0.783 -0.1187  0.5908 -2.7513
 4560SOL    HW214753   6.313   4.376   0.830  0.7031  1.6350  0.5517
 4561SOL     OW14754   1.242   0.281   2.260 -0.8350 -0.0801  0.1209
 4561SOL    HW114755   1.220   0.188   2.267 -0.1072 -0.2898 -0.1936
 4561SOL    HW214756   1.332   0.287   2.294 -1.6989  0.9171  2.4129
 4562SOL     OW14757   3.983   0.088   0.446  0.1358 -0.0573 -0.1618
 4562SOL    HW114758   4.075   0.116   0.450  0.0220  0.1932  1.2976
 4562SOL    HW214759   3.933   0.168   0.462 -0.2332 -0.6350  2.0042
 4563SOL     OW14760   3.779   2.299   3.232 -0.0742 -0.2335  0.2150
 4563SOL    HW114761   3.735   2.383   3.219 -0.3508 -0.2742  0.8225
 4563SOL    HW214762   3.725   2.236   3.185  1.4508  0.2376 -2.3386
 4564SOL     OW14763   5.172   2.279   7.086  0.3812 -0.4910 -0.1454
 4564SOL    HW114764   5.169   2.201   7.031  0.9610 -1.2208  0.8272
 4564SOL    HW214765   5.097   2.332   7.058 -0.7122 -1.9336 -0.0370
 4565SOL     OW14766   4.679   1.071   2.054  0.6936  0.7864  0.6988
 4565SOL    HW114767   4.702   1.069   1.961 -0.2237  0.7297  0.4600
 4565SOL    HW214768   4.691   1.163   2.080 -1.5496  1.3934 -0.1675
 4566SOL     OW14769   4.106   4.067   1.304  0.1853 -0.1432 -0.3244
 4566SOL    HW114770   4.189   4.071   1.353  0.1880  0.1043 -0.3465
 4566SOL    HW214771   4.124   4.005   1.232 -0.7394 -2.9588  1.6948
 4567SOL     OW14772   5.698   2.575   7.698 -0.5255  0.0817  0.6513
 4567SOL    HW114773   5.679   2.546   7.608  1.9613 -0.9676  0.3855
 4567SOL    HW214774   5.679   2.668   7.698  0.5908  0.3727 -1.3695
 4568SOL     OW14775   6.346   7.694   4.023  0.1596  0.6416  0.3620
 4568SOL    HW114776   6.287   7.657   3.958  0.3765  0.2161  0.3983
 4568SOL    HW214777   6.403   7.752   3.974 -0.5718  1.4094  0.3967
 4569SOL     OW14778   4.939   2.041   6.794  1.0202 -0.1389  0.0621
 4569SOL    HW114779   4.899   1.955   6.781 -1.3603  0.5791  1.9667
 4569SOL    HW214780   4.920   2.088   6.712  0.8407 -0.8760 -0.3331
 4570SOL     OW14781   1.510   3.898   0.360 -0.0178 -0.0706 -0.3044
 4570SOL    HW114782   1.602   3.924   0.374 -0.2357  0.2043  0.7064
 4570SOL    HW214783   1.496   3.912   0.267  1.1500 -0.7193 -0.6056
 4571SOL     OW14784   2.850   3.581   6.593  0.2830  0.6927 -0.5689
 4571SOL    HW114785   2.907   3.555   6.665 -0.9303 -0.3337  0.0565
 4571SOL    HW214786   2.871   3.521   6.522 -0.7246 -0.3830  0.0161
 4572SOL     OW14787   5.413   0.906   0.691  1.2525  0.0119 -0.7945
 4572SOL    HW114788   5.390   0.927   0.601  0.3440 -0.2174 -0.6254
 4572SOL    HW214789   5.437   0.813   0.690  0.5038 -0.1872 -0.6704
 4573SOL     OW14790   1.866   5.983   6.497  0.3668  0.2361  0.1542
 4573SOL    HW114791   1.933   5.919   6.521  2.0733  1.7915 -0.2197
 4573SOL    HW214792   1.855   6.037   6.576  0.1564  0.4795 -0.0397
 4574SOL     OW14793   8.089   3.960   8.056  0.3700  0.0169  0.4013
 4574SOL    HW114794   7.993   3.965   8.050  0.4571  1.9166  0.1315
 4574SOL    HW214795   8.120   4.007   7.979  1.5409 -0.8505  0.3217
 4575SOL     OW14796   3.403   2.701   4.262 -0.3024 -0.6163 -0.6942
 4575SOL    HW114797   3.383   2.609   4.274 -2.7260 -0.1324 -0.4369
 4575SOL    HW214798   3.498   2.704   4.248  0.1462 -2.9246  1.2193
 4576SOL     OW14799   5.911   3.054   6.870 -0.1300 -0.4289  0.4230
 4576SOL    HW114800   5.828   3.095   6.895  0.6537  1.2808  0.3928
 4576SOL    HW214801   5.961   3.049   6.951  0.8929  1.4785 -0.0004
 4577SOL     OW14802   0.035   3.854   7.249 -0.2166  0.0672 -0.4753
 4577SOL    HW114803   0.046   3.928   7.308 -0.1923  0.8000 -1.3747
 4577SOL    HW214804  -0.056   3.828   7.259 -0.2748  0.3379 -0.2922
 4578SOL     OW14805   7.992   4.603   2.734 -0.3101 -0.1859 -0.0428
 4578SOL    HW114806   8.083   4.616   2.759 -0.4843 -0.1795  0.6143
 4578SOL    HW214807   7.992   4.609   2.638  0.7344 -2.4020 -0.2479
 4579SOL     OW14808   3.031   1.345   6.125 -0.3693 -0.1874  0.0931
 4579SOL    HW114809   2.962   1.311   6.182  1.2614 -0.3339  2.0946
 4579SOL    HW214810   3.034   1.439   6.144 -0.7760  0.0318 -0.8644
 4580SOL     OW14811   6.861   2.282   4.987 -0.2252  0.3939 -0.1958
 4580SOL    HW114812   6.777   2.255   5.024 -0.9425  2.2464 -0.3677
 4580SOL    HW214813   6.847   2.372   4.958  1.8967  0.8494  0.0013
 4581SOL     OW14814   5.448   6.572   0.481  0.3939 -0.0401  0.1144
 4581SOL    HW114815   5.510   6.535   0.418  0.6442  0.2192  0.2086
 4581SOL    HW214816   5.410   6.496   0.524  1.7939 -0.1719  1.1662
 4582SOL     OW14817   0.375   0.935   6.464 -0.2495 -0.0223 -0.3094
 4582SOL    HW114818   0.397   0.849   6.501 -0.6791 -0.8374 -1.8566
 4582SOL    HW214819   0.294   0.959   6.508 -0.8421 -1.0484 -0.7926
 4583SOL     OW14820   7.668   6.579   0.175 -0.0873 -0.1984 -0.0047
 4583SOL    HW114821   7.680   6.674   0.173  0.1667 -0.2151  0.5484
 4583SOL    HW214822   7.751   6.543   0.145 -0.3815 -0.2370 -0.7763
 4584SOL     OW14823   2.008   7.572   6.791 -0.0149  0.0993  0.0162
 4584SOL    HW114824   1.958   7.638   6.839  1.8961  1.2365  0.5319
 4584SOL    HW214825   2.005   7.599   6.700  2.0268  1.8667  0.3943
 4585SOL     OW14826   0.141   4.442   1.544  0.7404  0.1841 -0.1731
 4585SOL    HW114827   0.203   4.499   1.499 -0.9433  1.5767 -0.8335
 4585SOL    HW214828   0.170   4.443   1.635  3.1343 -1.2366 -0.8188
 4586SOL     OW14829   3.927   0.116   6.700 -0.1698 -0.1374  0.4340
 4586SOL    HW114830   3.924   0.083   6.790 -0.1850 -0.6636  0.2467
 4586SOL    HW214831   3.836   0.141   6.681  0.0052  0.8990  0.8905
 4587SOL     OW14832   1.109   2.381   2.845 -0.5393 -0.1175 -0.3638
 4587SOL    HW114833   1.075   2.455   2.897  0.4847 -1.2022  2.0066
 4587SOL    HW214834   1.181   2.419   2.794 -0.4528  0.6658  0.3120
 4588SOL     OW14835   6.176   1.407   4.477  0.2852  0.2406  0.1493
 4588SOL    HW114836   6.182   1.502   4.486 -1.5681  0.4441 -0.3431
 4588SOL    HW214837   6.149   1.393   4.386 -1.0394 -0.6419  0.6460
 4589SOL     OW14838   6.936   3.737   0.626  0.4749 -0.0945  0.2553
 4589SOL    HW114839   6.846   3.702   0.623  1.0841 -1.8080  0.6234
 4589SOL    HW214840   6.944   3.772   0.715 -0.4856  2.0397 -0.4496
 4590SOL     OW14841   6.060   5.729   4.406 -0.3922 -0.5546  0.1914
 4590SOL    HW114842   6.007   5.809   4.403 -0.3232 -0.4830  0.8850
 4590SOL    HW214843   6.118   5.741   4.480 -0.5152 -1.3339  0.4234
 4591SOL     OW14844   6.621   6.905   7.984 -0.3594 -0.1949  0.2483
 4591SOL    HW114845   6.610   6.914   8.079 -0.0799  0.7728  0.1957
 4591SOL    HW214846   6.692   6.843   7.974  1.0414  1.2608  0.7172
 4592SOL     OW14847   3.315   4.094   4.671  0.2849 -0.0759  0.7483
 4592SOL    HW114848   3.257   4.019   4.678 -0.6178  0.4686 -0.4835
 4592SOL    HW214849   3.364   4.095   4.753 -1.2076 -0.7540  1.6826
 4593SOL     OW14850   7.537   7.275   1.155 -0.2200  0.5625  0.4962
 4593SOL    HW114851   7.581   7.312   1.231  1.3932  1.2612 -0.7233
 4593SOL    HW214852   7.530   7.348   1.093 -0.1909 -0.3200 -0.5824
 4594SOL     OW14853   1.665   4.896   3.756 -0.8525  0.1010  0.0984
 4594SOL    HW114854   1.721   4.973   3.750 -0.0875 -0.3765  0.9318
 4594SOL    HW214855   1.721   4.823   3.729 -0.9230 -0.4361  1.3278
 4595SOL     OW14856   0.119   0.229   4.006  0.0403  0.4109 -0.0933
 4595SOL    HW114857   0.119   0.233   3.910 -0.1103 -0.5322 -0.1422
 4595SOL    HW214858   0.044   0.282   4.032 -0.7323 -0.4091 -0.5719
 4596SOL     OW14859   1.602   3.250   3.357  0.0403 -0.6417  0.1941
 4596SOL    HW114860   1.564   3.174   3.313 -1.8322  0.1301  0.4060
 4596SOL    HW214861   1.571   3.244   3.447  0.6988 -0.1583  0.4592
 4597SOL     OW14862   7.735   7.313   6.339 -0.0681  0.4365 -0.4291
 4597SOL    HW114863   7.733   7.391   6.394  0.4683  0.4213 -0.3816
 4597SOL    HW214864   7.652   7.315   6.292  0.9864  2.4748 -2.3981
 4598SOL     OW14865   1.592   2.444   4.308 -0.0897  0.5847  0.0661
 4598SOL    HW114866   1.633   2.408   4.230  0.5647  3.1959 -0.9218
 4598SOL    HW214867   1.645   2.412   4.381  1.1125  0.4590 -0.8419
 4599SOL     OW14868   0.929   4.067   3.223 -0.2551 -0.0572 -0.6364
 4599SOL    HW114869   0.835   4.085   3.229 -0.0317  1.7856 -1.8140
 4599SOL    HW214870   0.939   4.018   3.141 -0.1870 -0.2351 -0.5222
 4600SOL     OW14871   8.041   6.286   7.042  0.3710 -0.3257 -0.3250
 4600SOL    HW114872   8.076   6.200   7.064 -2.0077 -1.5814 -1.1203
 4600SOL    HW214873   8.103   6.322   6.978  1.2851 -1.4981 -0.1388
 4601SOL     OW14874   5.828   7.248   1.769  0.3567 -0.6096  0.2991
 4601SOL    HW114875   5.904   7.294   1.805  2.3667 -2.4281 -1.3467
 4601SOL    HW214876   5.834   7.159   1.804 -0.7354 -0.9196 -0.2426
 4602SOL     OW14877   7.352   5.944   2.155 -0.1402  0.7655 -0.2573
 4602SOL    HW114878   7.323   5.938   2.064 -0.3497 -0.4683 -0.1170
 4602SOL    HW214879   7.423   5.880   2.162  0.1996  1.1976  0.3373
 4603SOL     OW14880   3.998   5.670   5.594  0.3701 -0.1020 -0.1749
 4603SOL    HW114881   3.914   5.691   5.552 -0.0544 -0.3417  0.5442
 4603SOL    HW214882   3.981   5.678   5.688  1.5491  1.3197 -0.0520
 4604SOL     OW14883   4.939   7.694   3.255 -0.0721 -0.1292  0.4719
 4604SOL    HW114884   4.953   7.645   3.174  0.8137  1.3768 -0.3337
 4604SOL    HW214885   4.852   7.668   3.285  0.0943 -1.6358 -0.2855
 4605SOL     OW14886   3.157   0.533   0.796 -0.1146  0.5066  0.3041
 4605SOL    HW114887   3.191   0.452   0.834  0.9385  0.7239 -0.1582
 4605SOL    HW214888   3.091   0.563   0.858  0.3447 -0.0669  1.0782
 4606SOL     OW14889   4.053   2.048   4.357  0.0781 -0.5978  0.6335
 4606SOL    HW114890   4.045   1.956   4.385  0.3102 -0.2982  1.7483
 4606SOL    HW214891   4.127   2.081   4.408  0.1413  0.1503  0.0620
 4607SOL     OW14892   4.934   6.464   1.168 -0.5471  0.2336 -0.1859
 4607SOL    HW114893   5.012   6.410   1.154 -0.4975  0.8063 -2.4687
 4607SOL    HW214894   4.868   6.425   1.111 -1.1737  1.2441 -0.1587
 4608SOL     OW14895   5.599   4.147   6.067 -0.1316  0.1645 -0.4804
 4608SOL    HW114896   5.550   4.155   5.986 -2.4397  0.2191  0.8451
 4608SOL    HW214897   5.670   4.212   6.059 -1.8824  2.0769 -1.3950
 4609SOL     OW14898   7.106   1.690   4.635 -0.3581  0.2778  0.8547
 4609SOL    HW114899   7.158   1.709   4.713 -1.7130  1.1982  1.5844
 4609SOL    HW214900   7.085   1.597   4.642  0.5518  0.0750  0.9384
 4610SOL     OW14901   2.743   0.103   8.080  0.8476  0.6118  0.6561
 4610SOL    HW114902   2.682   0.161   8.035  1.9724  0.4616 -1.1652
 4610SOL    HW214903   2.751   0.140   8.168 -0.1067  1.9388  0.2151
 4611SOL     OW14904   3.027   0.769   3.128  0.1069 -0.0889 -0.2578
 4611SOL    HW114905   2.978   0.767   3.210  1.1832  0.8889  0.4526
 4611SOL    HW214906   3.061   0.859   3.123 -0.4338  0.0558 -2.0934
 4612SOL     OW14907   7.915   1.376   5.280  0.3535 -0.1717  0.5571
 4612SOL    HW114908   7.955   1.290   5.271  0.3909 -0.0158 -1.1028
 4612SOL    HW214909   7.865   1.388   5.199 -0.0620  1.1597  0.9828
 4613SOL     OW14910   3.667   1.801   3.049  0.1809 -0.3969  0.2028
 4613SOL    HW114911   3.674   1.745   3.126  0.9877  0.0470  0.4669
 4613SOL    HW214912   3.744   1.779   2.996 -0.6719 -1.1235 -0.7817
 4614SOL     OW14913   6.841   3.830   4.019 -0.3299 -0.1905  0.0767
 4614SOL    HW114914   6.768   3.890   4.004  0.6861  0.8093 -1.0129
 4614SOL    HW214915   6.822   3.790   4.104 -0.9244  1.8157  0.9365
 4615SOL     OW14916   2.545   4.756   6.117  0.3290 -0.0365 -0.5489
 4615SOL    HW114917   2.621   4.699   6.115  0.5365 -0.0948  2.7463
 4615SOL    HW214918   2.558   4.811   6.195 -2.7738  0.1989 -0.0581
 4616SOL     OW14919   3.072   7.745   3.330 -0.1395 -0.1552 -0.4098
 4616SOL    HW114920   3.061   7.657   3.365  0.9568  0.9813  3.2560
 4616SOL    HW214921   3.161   7.746   3.295  0.0679 -0.3714  0.0967
 4617SOL     OW14922   2.982   6.858   3.546 -0.2331 -0.8189  0.3833
 4617SOL    HW114923   3.019   6.877   3.460 -0.5668 -0.3868  0.3320
 4617SOL    HW214924   2.988   6.763   3.555 -1.2305 -0.9886 -0.5937
 4618SOL     OW14925   3.219   1.085   2.016 -0.0021 -0.3373 -0.7426
 4618SOL    HW114926   3.246   1.055   1.929  1.9223 -0.0170 -0.3077
 4618SOL    HW214927   3.274   1.162   2.032  1.1177 -1.5374  1.5545
 4619SOL     OW14928   2.376   4.173   4.790  0.5908 -0.2672 -0.1909
 4619SOL    HW114929   2.454   4.203   4.742 -0.4784  0.6521 -1.4200
 4619SOL    HW214930   2.349   4.248   4.841  1.7524 -1.2590  2.0272
 4620SOL     OW14931   2.094   5.253   4.772  0.0759 -0.6048  1.0060
 4620SOL    HW114932   2.170   5.291   4.816 -0.1499  0.4012  0.5544
 4620SOL    HW214933   2.078   5.171   4.818  1.8249 -1.1470  0.6877
 4621SOL     OW14934   2.489   3.474   1.581  0.5093 -0.8863  0.5741
 4621SOL    HW114935   2.576   3.507   1.557  1.4802 -4.7002 -2.0809
 4621SOL    HW214936   2.429   3.544   1.557  2.5924  0.4593 -1.0484
 4622SOL     OW14937   4.647   5.030   7.368 -0.0110  0.6134  0.7670
 4622SOL    HW114938   4.704   5.023   7.444 -1.1905 -0.4899  1.5895
 4622SOL    HW214939   4.669   4.953   7.315  0.6369  1.2503  0.0889
 4623SOL     OW14940   0.265   1.317   1.841 -0.5462 -0.0579 -0.1682
 4623SOL    HW114941   0.309   1.395   1.806  1.5995 -2.1676 -2.5382
 4623SOL    HW214942   0.177   1.321   1.805 -0.1069  0.6983 -1.2090
 4624SOL     OW14943   3.610   4.956   7.402 -0.0537  0.0314 -0.4794
 4624SOL    HW114944   3.621   4.865   7.431 -1.5473  0.1248  0.5204
 4624SOL    HW214945   3.590   4.949   7.309 -0.2992 -0.6930 -0.3811
 4625SOL     OW14946   2.703   2.628   7.358  0.3535 -0.3132 -0.1300
 4625SOL    HW114947   2.716   2.668   7.444 -1.6865  0.6672 -0.2100
 4625SOL    HW214948   2.773   2.663   7.303  0.3693  0.7985  0.5884
 4626SOL     OW14949   3.666   1.711   2.175 -0.0228 -0.8149  0.5477
 4626SOL    HW114950   3.663   1.621   2.207  1.5051 -1.3774 -0.7280
 4626SOL    HW214951   3.634   1.705   2.085  0.5708 -0.1969  0.2814
 4627SOL     OW14952   7.778   4.975   8.054 -0.1764 -0.4588 -0.1635
 4627SOL    HW114953   7.828   4.941   8.128 -0.1229 -0.3280 -0.1412
 4627SOL    HW214954   7.703   4.916   8.047  0.8751 -1.7749 -1.3004
 4628SOL     OW14955   3.627   1.941   0.141  0.7290 -0.5684  0.4235
 4628SOL    HW114956   3.586   1.918   0.224 -0.0593  0.7238  0.4222
 4628SOL    HW214957   3.690   1.872   0.125  0.3023 -1.2738  1.6871
 4629SOL     OW14958   3.212   2.122   0.872  0.5436 -0.2596  0.0333
 4629SOL    HW114959   3.262   2.045   0.899  1.3458  0.6911  1.4064
 4629SOL    HW214960   3.122   2.102   0.897  0.7443 -0.7555  0.3766
 4630SOL     OW14961   7.058   0.997   1.261  0.6329 -0.5033 -0.5271
 4630SOL    HW114962   7.108   1.073   1.231  0.2458  0.9905  2.3305
 4630SOL    HW214963   7.113   0.922   1.237  3.0843  0.9081  0.2583
 4631SOL     OW14964   3.526   8.039   2.489  0.0698 -0.0424  0.3959
 4631SOL    HW114965   3.525   8.038   2.393  0.2880 -1.0003  0.3931
 4631SOL    HW214966   3.433   8.042   2.514  0.0151  0.3468  0.1663
 4632SOL     OW14967   7.738   3.234   3.660 -0.5402  0.7000 -0.0733
 4632SOL    HW114968   7.824   3.231   3.618  0.2447  0.1069  1.4730
 4632SOL    HW214969   7.710   3.325   3.653  0.7990  1.1813  0.4771
 4633SOL     OW14970   4.886   5.757   1.527 -0.0864 -0.6686 -0.3261
 4633SOL    HW114971   4.972   5.765   1.568 -0.0583 -0.7432 -0.3702
 4633SOL    HW214972   4.849   5.677   1.565 -0.6270  0.0007  0.5873
 4634SOL     OW14973   1.641   3.598   7.855  0.2817  0.3518 -0.1678
 4634SOL    HW114974   1.572   3.653   7.818 -1.4134 -0.6832  1.2850
 4634SOL    HW214975   1.690   3.567   7.778 -0.5975  1.4496 -1.2152
 4635SOL     OW14976   0.318   0.114   1.947  0.0888  0.0941  0.9214
 4635SOL    HW114977   0.273   0.164   1.880 -2.5836 -1.0403  1.7189
 4635SOL    HW214978   0.406   0.101   1.912 -0.3625  1.8348 -1.0871
 4636SOL     OW14979   1.384   1.159   0.646 -0.4383  0.4003 -0.3381
 4636SOL    HW114980   1.318   1.125   0.707  0.2767 -0.7077 -0.1655
 4636SOL    HW214981   1.347   1.142   0.559  0.2203 -1.5663 -0.2846
 4637SOL     OW14982   7.423   5.558   7.121  0.0070 -0.4523 -0.7756
 4637SOL    HW114983   7.419   5.522   7.032 -0.4356  0.4392 -1.1416
 4637SOL    HW214984   7.474   5.495   7.171  2.3156  0.1361 -2.2279
 4638SOL     OW14985   3.570   1.399   5.408  0.3927 -0.3311 -0.2325
 4638SOL    HW114986   3.508   1.459   5.448  2.2275  0.8762  0.9985
 4638SOL    HW214987   3.550   1.403   5.315  0.2284  2.0124 -0.1669
 4639SOL     OW14988   3.362   0.241   1.276  0.4094  0.0698  0.8138
 4639SOL    HW114989   3.403   0.327   1.272 -0.2657  0.3594 -0.5530
 4639SOL    HW214990   3.417   0.186   1.221  1.4271 -0.6705  2.4954
 4640SOL     OW14991   7.957   0.066   5.283  0.5467  0.0178  1.0302
 4640SOL    HW114992   8.002   0.026   5.357  1.5633  1.8452  1.4587
 4640SOL    HW214993   8.006   0.146   5.265 -0.1793  0.0728 -1.0831
 4641SOL     OW14994   1.705   4.416   7.198 -0.2910 -0.2535  1.2106
 4641SOL    HW114995   1.618   4.435   7.164 -0.9899 -0.1387  2.9382
 4641SOL    HW214996   1.764   4.469   7.144 -1.6703  2.6946  2.3660
 4642SOL     OW14997   6.862   7.852   2.357  0.4064 -0.8690 -0.2573
 4642SOL    HW114998   6.954   7.824   2.353  0.5843 -0.1333 -1.6753
 4642SOL    HW214999   6.853   7.889   2.445  1.7649 -0.0088 -0.4438
 4643SOL     OW15000   1.671   5.951   2.066  0.1901 -0.1183 -0.1546
 4643SOL    HW115001   1.652   5.864   2.030 -0.1935  0.4490 -1.3612
 4643SOL    HW215002   1.760   5.944   2.100  0.5614 -0.7047 -1.1923
 4644SOL     OW15003   6.182   0.246   6.555  0.3624  0.1481  0.2370
 4644SOL    HW115004   6.200   0.181   6.624 -0.1731  1.0242  1.2222
 4644SOL    HW215005   6.094   0.226   6.526 -0.3524  1.2527  1.5166
 4645SOL     OW15006   7.582   6.806   3.303 -0.0080 -0.2903 -0.2537
 4645SOL    HW115007   7.593   6.715   3.331  1.4615  0.2176  1.0264
 4645SOL    HW215008   7.656   6.852   3.345 -0.9544  1.5538 -0.5256
 4646SOL     OW15009   2.881   3.157   3.153  0.4313  0.1430 -0.3216
 4646SOL    HW115010   2.933   3.153   3.233 -3.3688  0.2525  2.4194
 4646SOL    HW215011   2.852   3.248   3.148 -1.8083 -0.5070 -0.0346
 4647SOL     OW15012   7.525   3.150   3.946  0.0995 -0.0674  0.0709
 4647SOL    HW115013   7.515   3.230   3.998 -2.6217  0.1223 -0.6449
 4647SOL    HW215014   7.436   3.124   3.924  0.8014 -3.8209  0.9884
 4648SOL     OW15015   7.343   8.158   2.773 -0.5776  0.1817 -0.5294
 4648SOL    HW115016   7.402   8.083   2.760 -0.9198  0.0821 -1.5246
 4648SOL    HW215017   7.290   8.134   2.849  0.3548  0.0819  0.1065
 4649SOL     OW15018   0.022   2.482   0.495 -1.1852  0.5778  0.1837
 4649SOL    HW115019   0.037   2.439   0.579 -0.7484  1.2059  0.4339
 4649SOL    HW215020  -0.048   2.431   0.454 -0.3715 -0.6403  0.2660
 4650SOL     OW15021   4.924   2.759   1.797  0.1757 -0.2931  0.0114
 4650SOL    HW115022   4.914   2.669   1.828  1.5979 -1.3851 -2.4409
 4650SOL    HW215023   4.987   2.799   1.857 -0.3155 -0.9386  0.9967
 4651SOL     OW15024   5.803   7.664   3.015  0.4822  0.3616 -0.2528
 4651SOL    HW115025   5.894   7.638   2.998  0.4307  0.0241 -0.0279
 4651SOL    HW215026   5.769   7.595   3.072 -0.1381  0.1080 -0.9255
 4652SOL     OW15027   1.665   8.145   7.830 -0.0927  0.3644  0.4534
 4652SOL    HW115028   1.696   8.224   7.875 -0.1855  0.6400  0.0426
 4652SOL    HW215029   1.742   8.110   7.785 -0.3500  1.0167 -0.5195
 4653SOL     OW15030   4.070   7.869   3.732 -0.7763 -0.2025 -0.2211
 4653SOL    HW115031   3.992   7.890   3.784  0.7327  1.1264  1.6354
 4653SOL    HW215032   4.072   7.773   3.731 -0.4339 -0.3260  2.9887
 4654SOL     OW15033   2.133   4.815   0.286  0.1345  0.0400  0.6172
 4654SOL    HW115034   2.174   4.729   0.289  1.9328  0.8657  2.3031
 4654SOL    HW215035   2.039   4.798   0.290  0.4443 -1.8369  0.6798
 4655SOL     OW15036   3.936   7.370   3.723  0.1015 -0.3249  0.0818
 4655SOL    HW115037   3.912   7.307   3.655 -1.6214  1.1251 -0.7595
 4655SOL    HW215038   3.966   7.317   3.796 -0.3031 -2.0559 -0.9528
 4656SOL     OW15039   5.972   5.854   3.421  0.5309 -0.0617  0.0391
 4656SOL    HW115040   5.937   5.869   3.508  0.6480 -0.3762  0.1406
 4656SOL    HW215041   5.909   5.795   3.380  0.3954  0.2066 -0.1453
 4657SOL     OW15042   0.807   4.433   2.449 -0.1027 -0.1575 -0.0125
 4657SOL    HW115043   0.734   4.445   2.510  1.2383  2.1242  1.2570
 4657SOL    HW215044   0.885   4.446   2.502  1.2005 -0.5956 -1.7390
 4658SOL     OW15045   4.149   7.582   4.966 -0.2782 -0.7386  0.4664
 4658SOL    HW115046   4.108   7.655   5.013  3.5023  1.2159  1.0914
 4658SOL    HW215047   4.183   7.621   4.885 -0.5567 -2.5091 -0.5666
 4659SOL     OW15048   1.694   2.055   3.478  0.4148 -0.1872  0.2533
 4659SOL    HW115049   1.662   2.134   3.432  1.3928  0.4806  0.6818
 4659SOL    HW215050   1.622   1.993   3.470 -0.5152  0.8521  0.1634
 4660SOL     OW15051   4.198   3.654   6.503 -0.1747 -0.4545 -0.4051
 4660SOL    HW115052   4.119   3.702   6.528 -0.1890 -0.9635  0.5987
 4660SOL    HW215053   4.240   3.633   6.587  2.0023  1.3993 -0.9395
 4661SOL     OW15054   1.177   4.897   3.963  0.6014  0.5889 -0.1632
 4661SOL    HW115055   1.245   4.870   3.902  0.4481  0.4738 -0.2847
 4661SOL    HW215056   1.212   4.876   4.050 -1.1969 -4.2393 -0.2923
 4662SOL     OW15057   1.372   3.557   3.943  0.2060 -0.5430  0.3711
 4662SOL    HW115058   1.390   3.647   3.970  1.7019 -0.7570  0.1573
 4662SOL    HW215059   1.312   3.524   4.010  1.4098 -0.0933  1.7153
 4663SOL     OW15060   3.003   6.838   0.228 -0.1866  0.2758  0.4007
 4663SOL    HW115061   3.001   6.931   0.249  0.2110 -0.0845  2.1534
 4663SOL    HW215062   3.085   6.827   0.179 -1.5647  1.2806 -2.3590
 4664SOL     OW15063   2.891   4.808   7.349 -0.0868  0.1558  0.4453
 4664SOL    HW115064   2.876   4.901   7.334 -1.0666 -0.1745 -0.8512
 4664SOL    HW215065   2.920   4.775   7.264 -2.5494 -1.2215  0.0366
 4665SOL     OW15066   8.143   4.842   0.653  0.0564  0.1369  0.3877
 4665SOL    HW115067   8.169   4.864   0.564  1.7226 -1.7052  0.3780
 4665SOL    HW215068   8.052   4.813   0.645  1.3318 -3.9867 -1.4953
 4666SOL     OW15069   3.098   5.958   4.497 -0.5177 -0.1305 -0.0648
 4666SOL    HW115070   3.112   5.871   4.533  0.3177 -0.2347 -0.6351
 4666SOL    HW215071   3.169   5.971   4.435 -1.6163  0.2755 -1.2788
 4667SOL     OW15072   5.977   0.077   5.048 -0.3415  0.3685 -0.4840
 4667SOL    HW115073   5.899   0.132   5.041 -0.2363  0.5735 -0.0339
 4667SOL    HW215074   6.044   0.134   5.085 -0.6004 -0.3967  1.2779
 4668SOL     OW15075   0.501   7.685   3.332  0.2912 -0.3961  0.5160
 4668SOL    HW115076   0.495   7.686   3.237  1.0190  0.7065  0.4722
 4668SOL    HW215077   0.420   7.725   3.362 -0.2963 -1.4491  0.4057
 4669SOL     OW15078   0.220   4.624   6.939  0.1315  0.6568 -0.0180
 4669SOL    HW115079   0.180   4.550   6.985  2.8381  0.0526  1.5780
 4669SOL    HW215080   0.305   4.591   6.909  1.4031  3.0504  0.6706
 4670SOL     OW15081   0.374   7.659   7.498 -0.2538  0.2445  0.1188
 4670SOL    HW115082   0.364   7.677   7.404 -2.2483 -1.2025 -0.0247
 4670SOL    HW215083   0.438   7.589   7.502 -0.2618  0.2160 -0.1836
 4671SOL     OW15084   5.092   6.634   0.109  0.4978  0.4570  0.2108
 4671SOL    HW115085   5.147   6.616   0.185 -0.7049 -0.9690  0.7997
 4671SOL    HW215086   5.017   6.683   0.145  0.1290  0.1488 -0.1256
 4672SOL     OW15087   4.699   3.818   6.789 -0.0147 -0.1231 -0.4788
 4672SOL    HW115088   4.711   3.740   6.735 -2.8663  0.5029 -2.2477
 4672SOL    HW215089   4.622   3.800   6.843  1.4530  0.1505  1.8592
 4673SOL     OW15090   7.671   6.734   4.163  0.1681  0.4335  0.4380
 4673SOL    HW115091   7.715   6.729   4.248 -2.2899  2.2273  1.9606
 4673SOL    HW215092   7.741   6.754   4.101  2.2852 -2.4344  1.6782
 4674SOL     OW15093   0.688   0.243   4.544 -0.2386  0.3326  0.0714
 4674SOL    HW115094   0.597   0.251   4.516 -0.3514 -0.8619  0.0778
 4674SOL    HW215095   0.683   0.223   4.638 -0.0961 -2.5986 -0.4751
 4675SOL     OW15096   5.068   4.855   3.828  0.0335 -0.4254 -0.2920
 4675SOL    HW115097   5.044   4.764   3.811  2.7287 -1.7568  2.1562
 4675SOL    HW215098   5.152   4.867   3.785  0.2479  0.5578  0.3571
 4676SOL     OW15099   6.889   0.301   6.797 -0.3648 -0.0717 -0.3929
 4676SOL    HW115100   6.821   0.324   6.861 -1.5438 -1.2243 -1.1806
 4676SOL    HW215101   6.942   0.380   6.789 -1.4747  0.7929  0.4176
 4677SOL     OW15102   7.768   2.813   6.278 -0.1268  0.1742  0.1816
 4677SOL    HW115103   7.802   2.726   6.300 -1.5616 -0.0377  1.7434
 4677SOL    HW215104   7.789   2.868   6.353 -0.0091  0.9761 -0.4186
 4678SOL     OW15105   2.150   1.926   4.540  0.3024  0.2095 -0.5210
 4678SOL    HW115106   2.182   1.884   4.460 -0.4211  1.2140 -1.3791
 4678SOL    HW215107   2.214   1.996   4.556  3.3407 -2.8794  2.6854
 4679SOL     OW15108   2.477   1.242   7.340  0.1112  0.0060  0.2258
 4679SOL    HW115109   2.395   1.290   7.348 -0.7038 -1.5747  2.0230
 4679SOL    HW215110   2.543   1.301   7.378 -0.8504 -0.1548  2.2787
 4680SOL     OW15111   0.575   7.225   7.959 -0.1718 -0.5161  0.1179
 4680SOL    HW115112   0.659   7.199   7.922 -1.5847 -0.4664 -3.4817
 4680SOL    HW215113   0.588   7.315   7.990  0.6646  0.2166 -2.1959
 4681SOL     OW15114   0.941   1.571   4.799 -0.4370 -0.2056 -0.0062
 4681SOL    HW115115   1.007   1.571   4.730  0.6059  1.3139  0.9333
 4681SOL    HW215116   0.866   1.616   4.761 -0.0595  0.1690 -0.3096
 4682SOL     OW15117   1.117   4.885   0.222 -0.4039  0.3292  0.0962
 4682SOL    HW115118   1.062   4.938   0.164  0.1101  0.6746 -0.0883
 4682SOL    HW215119   1.148   4.813   0.166 -0.9961 -0.0952  0.3112
 4683SOL     OW15120   3.080   4.668   6.419  0.8140 -0.2070  0.6968
 4683SOL    HW115121   3.122   4.721   6.351  1.6892 -2.1175 -0.3289
 4683SOL    HW215122   3.053   4.731   6.486  0.1542  1.7251 -1.2784
 4684SOL     OW15123   4.876   7.970   7.715  0.0985 -0.1626  0.3225
 4684SOL    HW115124   4.836   7.907   7.654 -0.0244 -0.2315  0.4752
 4684SOL    HW215125   4.895   8.047   7.661 -1.5376  0.4307  0.5403
 4685SOL     OW15126   5.257   3.158   2.546  0.4860  0.1673  0.0778
 4685SOL    HW115127   5.340   3.116   2.522 -0.0786 -1.0489  0.2216
 4685SOL    HW215128   5.241   3.131   2.636  0.1322  0.7350  0.1891
 4686SOL     OW15129   4.134   2.273   1.514 -0.5020  0.1279  0.0099
 4686SOL    HW115130   4.088   2.189   1.503  0.5408 -0.3651 -0.7170
 4686SOL    HW215131   4.072   2.327   1.563 -1.7938 -0.5671 -0.7824
 4687SOL     OW15132   4.964   7.755   5.550  0.5377 -0.0288 -0.2551
 4687SOL    HW115133   4.934   7.784   5.464 -0.0035 -0.6618 -0.2852
 4687SOL    HW215134   4.924   7.669   5.562  1.3020 -0.3205  0.2684
 4688SOL     OW15135   5.110   1.269   5.866  0.2687 -0.5700 -0.5880
 4688SOL    HW115136   5.133   1.258   5.774  1.4465 -1.3092 -0.2338
 4688SOL    HW215137   5.079   1.183   5.894  0.5463 -0.5313 -0.1398
 4689SOL     OW15138   1.554   7.079   5.000  0.3675 -0.1356 -0.0210
 4689SOL    HW115139   1.570   6.991   4.964 -0.1572  0.8963 -3.0602
 4689SOL    HW215140   1.463   7.098   4.977  0.6992  1.4887 -0.1134
 4690SOL     OW15141   6.487   2.261   6.174 -0.0774 -0.8065 -0.1427
 4690SOL    HW115142   6.406   2.220   6.142 -1.8148  2.2942 -0.1877
 4690SOL    HW215143   6.540   2.188   6.206 -1.7743 -3.2730 -2.4168
 4691SOL     OW15144   6.456   4.088   6.393 -0.4504  0.2915 -0.4914
 4691SOL    HW115145   6.497   4.003   6.411 -1.8043 -0.9297 -2.6238
 4691SOL    HW215146   6.516   4.130   6.331  0.1993  0.8863  0.5326
 4692SOL     OW15147   7.873   0.015   3.247  0.2321  0.3422 -0.2105
 4692SOL    HW115148   7.918  -0.055   3.199  1.3449  1.6058 -1.0867
 4692SOL    HW215149   7.886   0.093   3.194 -0.6593  1.3066  0.9257
 4693SOL     OW15150   3.750   4.289   7.614 -0.1791 -0.0662 -0.1974
 4693SOL    HW115151   3.763   4.356   7.548  1.3488  0.5355  0.6505
 4693SOL    HW215152   3.779   4.208   7.572 -2.0646 -0.2667 -1.2344
 4694SOL     OW15153   7.181   2.005   1.626  0.5092  0.8120 -0.0875
 4694SOL    HW115154   7.119   2.034   1.560  0.1123 -0.9543 -0.5507
 4694SOL    HW215155   7.247   1.956   1.577  0.0488 -0.7852  0.8260
 4695SOL     OW15156   3.178   7.705   5.716 -0.2551 -0.8632 -0.1461
 4695SOL    HW115157   3.272   7.706   5.736 -0.3740 -2.3617  0.6659
 4695SOL    HW215158   3.166   7.775   5.652  1.4639 -0.7858 -0.4314
 4696SOL     OW15159   6.243   0.333   2.572  0.1196 -0.4088  0.2026
 4696SOL    HW115160   6.294   0.325   2.492  0.1787 -0.3419  0.2336
 4696SOL    HW215161   6.286   0.402   2.621  0.9079 -1.3799  0.9147
 4697SOL     OW15162   6.555   5.382   5.644 -0.0856 -0.5878  0.0268
 4697SOL    HW115163   6.478   5.430   5.613  0.6320 -0.4548 -1.6212
 4697SOL    HW215164   6.592   5.342   5.566  0.9995 -1.4325  0.9380
 4698SOL     OW15165   3.738   5.316   2.834 -0.0060  0.1352  0.4012
 4698SOL    HW115166   3.777   5.341   2.918  1.0862 -0.6260  0.1453
 4698SOL    HW215167   3.656   5.366   2.830  0.7678  1.5275  1.1127
 4699SOL     OW15168   4.181   5.082   3.866  0.6026 -0.0582 -0.2790
 4699SOL    HW115169   4.253   5.133   3.904 -0.2344 -0.6277  2.2695
 4699SOL    HW215170   4.216   5.051   3.782  3.7393 -1.1251  1.2565
 4700SOL     OW15171   2.592   3.666   3.424 -0.0867  0.1414  0.5386
 4700SOL    HW115172   2.647   3.599   3.465  1.3772  0.7402 -0.3869
 4700SOL    HW215173   2.505   3.653   3.464  0.4986 -1.3770  1.4024
 4701SOL     OW15174   6.507   0.123   4.520 -0.0527 -0.0672  0.2082
 4701SOL    HW115175   6.419   0.092   4.501  0.0491 -1.2437  1.5378
 4701SOL    HW215176   6.547   0.053   4.570  0.5976  1.7009  2.3142
 4702SOL     OW15177   1.364   1.682   6.252 -0.2244  0.5189 -0.6465
 4702SOL    HW115178   1.392   1.602   6.208 -2.1733 -0.5708 -0.0174
 4702SOL    HW215179   1.269   1.679   6.250 -0.4460  3.5927 -1.9350
 4703SOL     OW15180   5.156   7.091   7.732  0.5282 -0.1360  0.3260
 4703SOL    HW115181   5.153   7.067   7.825  0.9589  1.2703  0.7326
 4703SOL    HW215182   5.065   7.113   7.710  0.1865 -1.7185  0.0325
 4704SOL     OW15183   4.818   0.287   0.968  0.0779  0.4590 -0.0828
 4704SOL    HW115184   4.842   0.195   0.981 -0.6317  0.2798  0.0225
 4704SOL    HW215185   4.852   0.332   1.045  2.8173  0.7862 -1.3697
 4705SOL     OW15186   5.593   8.013   6.380 -0.1280 -0.2659 -0.4686
 4705SOL    HW115187   5.561   8.021   6.290  2.3351 -0.1359 -1.4176
 4705SOL    HW215188   5.547   8.081   6.428 -0.6132  0.4585 -1.9065
 4706SOL     OW15189   2.736   6.819   6.632 -0.4448  0.2980 -0.0610
 4706SOL    HW115190   2.660   6.875   6.651 -0.8965 -0.4017  0.2541
 4706SOL    HW215191   2.795   6.834   6.706 -1.3889 -1.0212  1.0173
 4707SOL     OW15192   3.268   4.907   3.003  0.0145 -0.2178  0.0836
 4707SOL    HW115193   3.350   4.858   3.007  0.1120 -0.3064 -2.0434
 4707SOL    HW215194   3.211   4.853   2.948 -0.2551  1.4882 -1.4038
 4708SOL     OW15195   6.762   3.438   3.330 -0.0014 -0.3136 -0.2228
 4708SOL    HW115196   6.723   3.514   3.288  2.2686 -0.0265 -2.0301
 4708SOL    HW215197   6.721   3.433   3.416 -0.4342  2.7464 -0.1727
 4709SOL     OW15198   6.595   0.095   3.429 -0.0539 -0.4418  0.2220
 4709SOL    HW115199   6.524   0.131   3.376 -0.9652  0.9250  2.2231
 4709SOL    HW215200   6.662   0.163   3.429  0.8531 -1.2997 -0.8089
 4710SOL     OW15201   8.057   7.490   4.182  0.0379 -0.3110 -0.1325
 4710SOL    HW115202   8.137   7.449   4.216 -0.4175 -0.5879  0.6297
 4710SOL    HW215203   8.062   7.477   4.088  0.4708 -1.1061 -0.0131
 4711SOL     OW15204   5.632   2.453   4.772  0.4249  0.1219  0.1501
 4711SOL    HW115205   5.677   2.530   4.807 -1.0929  0.6200  1.1103
 4711SOL    HW215206   5.596   2.483   4.689  0.9457  0.0414 -0.1092
 4712SOL     OW15207   5.255   4.154   1.564 -0.1760  0.5550 -0.2019
 4712SOL    HW115208   5.282   4.106   1.642 -1.5108 -0.8435 -0.5466
 4712SOL    HW215209   5.201   4.225   1.597 -1.3528 -0.4670  0.1425
 4713SOL     OW15210   4.593   6.896   0.799  0.5860  0.2085 -0.6285
 4713SOL    HW115211   4.665   6.915   0.859 -0.2703  2.1184 -0.1321
 4713SOL    HW215212   4.636   6.876   0.716  1.7312 -0.8478  0.1832
 4714SOL     OW15213   7.604   3.685   1.307  0.1272  0.1927 -0.1557
 4714SOL    HW115214   7.510   3.670   1.293 -0.1755  2.6667 -1.2531
 4714SOL    HW215215   7.612   3.697   1.402 -0.7236  0.2592 -0.0836
 4715SOL     OW15216   0.191   3.946   6.258 -0.1831 -0.7648 -0.0805
 4715SOL    HW115217   0.105   3.982   6.239 -0.1522 -0.3651  0.5162
 4715SOL    HW215218   0.241   3.960   6.177  0.1137  1.4008  0.4275
 4716SOL     OW15219   5.514   6.493   3.469 -0.3555  0.9162 -0.0649
 4716SOL    HW115220   5.563   6.515   3.548  0.4883 -0.3583 -0.1978
 4716SOL    HW215221   5.571   6.431   3.423 -1.9427 -0.3389 -0.4076
 4717SOL     OW15222   1.472   3.965   7.438 -0.4017 -0.4790  0.0583
 4717SOL    HW115223   1.450   3.975   7.346  0.1765 -1.6196 -0.2279
 4717SOL    HW215224   1.512   3.878   7.444  1.4073  0.3498  1.0069
 4718SOL     OW15225   6.385   0.776   2.024  0.2663  0.4742  0.1298
 4718SOL    HW115226   6.345   0.736   1.947  1.8710 -0.5590 -0.2092
 4718SOL    HW215227   6.447   0.840   1.988 -0.1974  1.2106  0.6131
 4719SOL     OW15228   3.669   2.167   7.390 -0.7900  0.3112  0.4165
 4719SOL    HW115229   3.605   2.130   7.451 -0.7175  0.0217  0.3179
 4719SOL    HW215230   3.651   2.125   7.306 -0.7905  0.5964  0.2708
 4720SOL     OW15231   0.760   2.459   3.859  0.3951  0.0073 -0.2220
 4720SOL    HW115232   0.823   2.452   3.787  0.4702  1.0411 -0.2684
 4720SOL    HW215233   0.751   2.553   3.873  0.3773 -0.1852  1.1200
 4721SOL     OW15234   2.254   4.566   2.769 -0.2201 -0.2023  0.3706
 4721SOL    HW115235   2.319   4.636   2.782 -0.0686  0.0320 -1.3932
 4721SOL    HW215236   2.181   4.610   2.726 -0.4290 -0.9867 -0.0777
 4722SOL     OW15237   3.330   6.384   3.796 -0.1100  0.2325  0.0282
 4722SOL    HW115238   3.402   6.335   3.835 -0.0050 -0.5348 -1.0959
 4722SOL    HW215239   3.337   6.368   3.702 -1.8987 -0.0860 -0.0873
 4723SOL     OW15240   1.690   5.170   1.330 -0.3104 -0.2009  0.2647
 4723SOL    HW115241   1.618   5.113   1.357 -0.7638  0.6782  0.9520
 4723SOL    HW215242   1.696   5.157   1.235 -1.3059 -0.3656  0.2095
 4724SOL     OW15243   3.818   1.375   5.582  0.1428 -0.4035  0.6502
 4724SOL    HW115244   3.725   1.376   5.558  0.0120 -1.7844  1.0016
 4724SOL    HW215245   3.846   1.286   5.561  1.0127 -0.4487  1.9280
 4725SOL     OW15246   0.599   4.339   5.661  0.0432 -0.5512  0.2643
 4725SOL    HW115247   0.506   4.321   5.670 -0.1668 -0.1618 -1.0283
 4725SOL    HW215248   0.639   4.254   5.643 -0.0955 -0.6652  0.4930
 4726SOL     OW15249   4.825   2.945   5.734 -0.0306  0.1171 -0.2181
 4726SOL    HW115250   4.871   2.870   5.772 -0.2202 -0.3316 -0.8652
 4726SOL    HW215251   4.881   2.973   5.661 -0.8468 -0.5319 -1.1138
 4727SOL     OW15252   0.087   8.060   6.551  0.3013 -0.5146  0.1671
 4727SOL    HW115253   0.092   7.965   6.560  0.0440 -0.5770 -0.2983
 4727SOL    HW215254   0.013   8.086   6.605 -0.3150 -0.7115 -0.5592
 4728SOL     OW15255   6.590   1.934   5.287 -0.4845  0.3631 -0.0442
 4728SOL    HW115256   6.584   1.844   5.256  1.5553  0.3108 -0.4783
 4728SOL    HW215257   6.682   1.944   5.312 -0.2989  2.7410 -1.3473
 4729SOL     OW15258   3.601   8.079   0.892 -0.1099 -0.0444 -0.3259
 4729SOL    HW115259   3.632   8.000   0.937 -1.5532 -0.2804  0.2848
 4729SOL    HW215260   3.676   8.107   0.839  1.0355 -0.7652  0.8594
 4730SOL     OW15261   3.007   4.715   2.368 -0.2544 -0.0999  0.0244
 4730SOL    HW115262   2.977   4.774   2.438  0.4985  0.5952 -0.2204
 4730SOL    HW215263   2.939   4.648   2.362 -0.3172 -0.1751  1.4277
 4731SOL     OW15264   6.209   7.501   3.489 -0.0200 -0.1112 -0.0799
 4731SOL    HW115265   6.175   7.425   3.536  1.2527 -0.3917  0.4451
 4731SOL    HW215266   6.238   7.466   3.405 -0.1164 -0.0666 -0.1315
 4732SOL     OW15267   3.383   1.789   7.515  0.3638 -0.0084  0.2340
 4732SOL    HW115268   3.302   1.826   7.551  0.4974  0.3995  0.1273
 4732SOL    HW215269   3.356   1.745   7.434  0.2456  0.1156  0.2050
 4733SOL     OW15270   2.803   0.136   1.963  0.0110 -0.0806 -0.4887
 4733SOL    HW115271   2.741   0.082   2.010 -0.7986  0.1112 -1.3118
 4733SOL    HW215272   2.835   0.079   1.892 -0.2018  0.2310 -0.8398
 4734SOL     OW15273   3.551   1.007   4.565 -0.5449 -0.2656 -0.4193
 4734SOL    HW115274   3.644   1.029   4.557 -0.3877 -0.3425  0.9241
 4734SOL    HW215275   3.515   1.020   4.477  0.7756 -0.4350 -0.9993
 4735SOL     OW15276   2.360   5.654   1.420  0.5558 -0.1770 -0.0492
 4735SOL    HW115277   2.309   5.599   1.480  0.8800 -0.4985 -0.0633
 4735SOL    HW215278   2.296   5.715   1.383  0.3185 -0.1115  0.4698
 4736SOL     OW15279   1.110   0.563   1.360  0.1193 -0.0993  0.0712
 4736SOL    HW115280   1.167   0.517   1.420  0.9150 -0.5402 -0.9897
 4736SOL    HW215281   1.111   0.510   1.280 -2.4285 -0.5569  0.2743
 4737SOL     OW15282   0.694   3.423   0.238 -0.7277 -0.3028 -0.1765
 4737SOL    HW115283   0.695   3.378   0.322  0.4414 -1.0405 -0.5720
 4737SOL    HW215284   0.601   3.428   0.215 -1.0512 -0.2381  1.0650
 4738SOL     OW15285   5.733   7.620   1.577  0.6368  0.0177 -0.1123
 4738SOL    HW115286   5.734   7.643   1.670  3.3835  2.0138 -0.5046
 4738SOL    HW215287   5.763   7.530   1.574  1.0583  0.1134  0.9419
 4739SOL     OW15288   6.884   0.462   7.534  0.0395 -0.0227 -0.3454
 4739SOL    HW115289   6.910   0.440   7.623 -1.1553  1.1218  0.3207
 4739SOL    HW215290   6.856   0.553   7.539 -1.0198 -0.2436 -1.6715
 4740SOL     OW15291   7.062   5.843   6.052 -0.2950  0.0595 -0.1314
 4740SOL    HW115292   6.982   5.791   6.042 -0.5408  0.6385 -1.3774
 4740SOL    HW215293   7.061   5.871   6.143 -0.5983 -1.3880  0.3419
 4741SOL     OW15294   2.264   3.827   3.178 -0.3911 -0.5593 -0.6381
 4741SOL    HW115295   2.320   3.751   3.189 -1.5745 -1.3234  0.4528
 4741SOL    HW215296   2.324   3.900   3.163  0.7592 -1.6847 -1.6943
 4742SOL     OW15297   1.781   2.626   7.309 -0.7238 -0.5728 -0.2089
 4742SOL    HW115298   1.713   2.620   7.376 -0.7022 -0.6801 -0.1957
 4742SOL    HW215299   1.734   2.649   7.229 -0.5003  1.7308  0.2687
 4743SOL     OW15300   7.490   4.282   4.234  0.1031  0.4939  0.1831
 4743SOL    HW115301   7.510   4.287   4.327  0.1374  1.4578  0.1365
 4743SOL    HW215302   7.473   4.190   4.218  0.9440  0.1807  0.9698
 4744SOL     OW15303   6.652   1.905   3.169 -0.0593  0.5180 -0.0787
 4744SOL    HW115304   6.740   1.925   3.138  0.2822  1.0429  1.1689
 4744SOL    HW215305   6.618   1.841   3.107  0.9175  0.8708 -1.0016
 4745SOL     OW15306   0.234   1.802   3.573 -0.4489  0.5461  0.1787
 4745SOL    HW115307   0.161   1.778   3.517 -0.7990  0.4947  0.6514
 4745SOL    HW215308   0.243   1.897   3.561  0.3302  0.3502 -0.9627
 4746SOL     OW15309   2.266   2.318   5.690  0.0596 -0.4011  0.0007
 4746SOL    HW115310   2.225   2.311   5.604  1.4842  0.6830 -0.8139
 4746SOL    HW215311   2.290   2.228   5.713  1.5410 -0.5089 -1.7362
 4747SOL     OW15312   3.865   5.736   7.534  0.2878 -0.5204  0.2712
 4747SOL    HW115313   3.795   5.798   7.552  0.5783 -0.3904  0.9861
 4747SOL    HW215314   3.820   5.657   7.504 -0.1233 -0.2336  0.1244
 4748SOL     OW15315   1.586   2.598   5.835 -0.3833 -0.5466 -0.3737
 4748SOL    HW115316   1.657   2.639   5.884 -0.3465 -0.8572 -0.1653
 4748SOL    HW215317   1.532   2.672   5.805 -1.3127 -0.4112  1.4999
 4749SOL     OW15318   6.206   0.349   0.050  0.1228  0.0830 -0.3576
 4749SOL    HW115319   6.276   0.285   0.036 -0.2744  0.0023 -2.1366
 4749SOL    HW215320   6.251   0.433   0.054  0.4745 -0.1237  0.2599
 4750SOL     OW15321   2.637   7.875   4.363  0.4396 -0.0048  0.3001
 4750SOL    HW115322   2.713   7.918   4.401 -1.2053 -0.7359  5.1230
 4750SOL    HW215323   2.643   7.784   4.391 -1.3980 -0.4594 -0.5887
 4751SOL     OW15324   1.517   0.907   2.347  0.3584  0.0903  0.0974
 4751SOL    HW115325   1.554   0.991   2.377  1.3079  0.4186 -1.8523
 4751SOL    HW215326   1.443   0.932   2.292  0.7081 -0.3261 -0.5755
 4752SOL     OW15327   3.161   3.412   3.108  0.1652  0.0058 -0.3166
 4752SOL    HW115328   3.106   3.474   3.061 -1.9418 -1.1039  0.5241
 4752SOL    HW215329   3.114   3.396   3.190  0.5416 -2.7040 -0.5370
 4753SOL     OW15330   1.222   4.224   6.692  0.1301  0.4890 -0.1518
 4753SOL    HW115331   1.187   4.165   6.758  1.1661  0.0768  0.0424
 4753SOL    HW215332   1.147   4.278   6.667 -0.6159 -0.2992  0.3152
 4754SOL     OW15333   6.031   3.284   5.806  0.0114 -0.3458  0.3046
 4754SOL    HW115334   6.057   3.321   5.891  2.7120  0.6871 -0.8435
 4754SOL    HW215335   6.057   3.192   5.811  0.8075 -0.1281  0.3910
 4755SOL     OW15336   6.749   4.632   7.999 -0.6974  0.1513  0.2120
 4755SOL    HW115337   6.700   4.550   8.010 -0.8835  0.0132 -1.3796
 4755SOL    HW215338   6.800   4.640   8.079 -1.0623 -1.2652  0.6232
 4756SOL     OW15339   7.602   2.353   3.305 -0.3343  0.3749  0.3309
 4756SOL    HW115340   7.608   2.291   3.378  1.1311  0.3871  0.2498
 4756SOL    HW215341   7.656   2.313   3.236 -0.8435  0.8789 -0.3750
 4757SOL     OW15342   7.708   2.100   4.017 -0.1614 -0.3164 -0.0964
 4757SOL    HW115343   7.722   2.022   4.070 -1.1876  0.3218  1.1581
 4757SOL    HW215344   7.617   2.095   3.989  0.2075 -0.3558 -1.3742
 4758SOL     OW15345   4.293   3.429   6.244  0.5371  0.5731 -0.0668
 4758SOL    HW115346   4.365   3.488   6.222  1.0907 -0.5010 -1.2625
 4758SOL    HW215347   4.276   3.380   6.164 -1.0309  0.2610  0.4120
 4759SOL     OW15348   2.750   4.656   3.337  0.3927 -0.1336 -0.2554
 4759SOL    HW115349   2.777   4.745   3.358 -0.1598  0.1568 -0.7369
 4759SOL    HW215350   2.831   4.606   3.335  0.6398  0.2113  0.6971
 4760SOL     OW15351   3.160   5.402   5.024  0.0410 -0.0767  0.2821
 4760SOL    HW115352   3.243   5.368   4.993  0.1689  1.4629 -1.1769
 4760SOL    HW215353   3.173   5.416   5.118  2.0142  1.6486 -0.1766
 4761SOL     OW15354   4.036   1.415   3.521 -0.0795  0.2637 -0.4044
 4761SOL    HW115355   4.058   1.506   3.541 -1.3533  0.2403  1.4136
 4761SOL    HW215356   4.031   1.372   3.607 -4.0185 -0.3651 -0.7436
 4762SOL     OW15357   6.650   0.040   7.371  0.1635  0.7837 -0.5980
 4762SOL    HW115358   6.715   0.090   7.321  0.4009  1.3254  0.2250
 4762SOL    HW215359   6.696  -0.040   7.396 -0.2438  0.0839 -1.9933
 4763SOL     OW15360   3.713   6.232   6.158  0.2229  0.6215 -0.4795
 4763SOL    HW115361   3.744   6.294   6.092  0.0439  1.1199 -0.0998
 4763SOL    HW215362   3.786   6.171   6.170  1.1969  1.9448  0.6122
 4764SOL     OW15363   5.131   2.960   2.290  0.0726  0.0362 -0.5479
 4764SOL    HW115364   5.223   2.951   2.315 -0.3625 -1.9106  0.5840
 4764SOL    HW215365   5.131   3.026   2.221  2.3195  0.0795 -0.5765
 4765SOL     OW15366   2.570   5.906   3.329 -0.3808 -0.5440 -0.0553
 4765SOL    HW115367   2.530   5.992   3.338 -0.6993 -0.7285  0.3717
 4765SOL    HW215368   2.523   5.864   3.257  1.0547  0.3283 -1.5811
 4766SOL     OW15369   2.757   1.249   4.513  0.1262 -0.2109  0.0961
 4766SOL    HW115370   2.821   1.300   4.464 -0.3568  1.2497  0.9138
 4766SOL    HW215371   2.684   1.310   4.527  0.0967 -0.6882  2.2848
 4767SOL     OW15372   2.818   5.954   6.164 -0.3143  0.0606  0.7368
 4767SOL    HW115373   2.908   5.978   6.185  0.6346 -0.5442 -2.1011
 4767SOL    HW215374   2.768   6.035   6.172  0.2346  0.2169  3.2204
 4768SOL     OW15375   5.667   3.413   2.931 -0.5332  0.1537  0.1071
 4768SOL    HW115376   5.603   3.402   2.860 -0.2864 -3.7956  0.3279
 4768SOL    HW215377   5.748   3.437   2.886 -0.7457 -0.7502 -0.7902
 4769SOL     OW15378   0.313   6.283   5.277 -0.2255 -0.5615  0.0703
 4769SOL    HW115379   0.275   6.248   5.358  0.1505  0.5638  0.7461
 4769SOL    HW215380   0.242   6.331   5.235  0.4061  1.6652  1.4047
 4770SOL     OW15381   7.248   0.798   4.156 -0.3936 -0.3356  0.1541
 4770SOL    HW115382   7.208   0.761   4.078  1.4781 -0.1662 -0.9302
 4770SOL    HW215383   7.259   0.891   4.136 -0.8508 -0.0732  1.0502
 4771SOL     OW15384   0.723   3.197   6.784  0.6645 -0.5247 -0.2699
 4771SOL    HW115385   0.739   3.284   6.821 -1.5935 -0.6597  1.2210
 4771SOL    HW215386   0.763   3.137   6.847 -1.4477 -0.6722  1.0197
 4772SOL     OW15387   0.908   2.545   2.681  0.2342  0.2985 -0.7501
 4772SOL    HW115388   0.990   2.551   2.729  0.0304  1.2209 -0.5000
 4772SOL    HW215389   0.901   2.453   2.656  0.6113 -0.0907  0.5245
 4773SOL     OW15390   7.112   1.053   0.025  0.4262 -0.0858  0.0247
 4773SOL    HW115391   7.200   1.087   0.012  1.8204 -1.9707  3.2643
 4773SOL    HW215392   7.054   1.125   0.001  2.9735  2.5877  1.2845
 4774SOL     OW15393   2.756   5.160   5.654 -0.3570 -0.4227 -0.1993
 4774SOL    HW115394   2.693   5.092   5.675 -0.0029 -0.6438  0.1756
 4774SOL    HW215395   2.793   5.185   5.739 -0.6629  0.4095 -0.3037
 4775SOL     OW15396   0.766   4.676   7.684 -0.2585 -0.0096  0.4589
 4775SOL    HW115397   0.740   4.587   7.661 -0.9871  1.0223 -3.5486
 4775SOL    HW215398   0.683   4.724   7.689  0.2270  0.8246  0.6840
 4776SOL     OW15399   7.150   3.135   1.064 -0.0991 -0.5940  0.5603
 4776SOL    HW115400   7.080   3.104   1.006 -1.6193  1.9680  0.8725
 4776SOL    HW215401   7.174   3.057   1.114 -3.0157 -1.5678  0.6839
 4777SOL     OW15402   6.351   7.109   1.027  0.1592  0.3044 -0.0288
 4777SOL    HW115403   6.303   7.030   1.050  0.0938  0.5703  0.7520
 4777SOL    HW215404   6.396   7.135   1.107  1.0825  0.4355 -0.5745
 4778SOL     OW15405   1.801   4.294   0.978 -0.4682 -0.4722 -0.0991
 4778SOL    HW115406   1.770   4.266   0.892  0.7547  1.0962 -1.1057
 4778SOL    HW215407   1.726   4.341   1.016 -0.8606 -0.7710 -0.4954
 4779SOL     OW15408   2.326   5.135   4.586 -0.7632 -0.2142 -1.0733
 4779SOL    HW115409   2.232   5.128   4.602 -0.6300  2.2585  1.6203
 4779SOL    HW215410   2.333   5.194   4.512 -1.3019 -0.6781 -1.5090
 4780SOL     OW15411   5.137   5.604   4.542  0.4652  0.7565 -0.1783
 4780SOL    HW115412   5.095   5.671   4.488 -0.6445 -0.5712 -1.0209
 4780SOL    HW215413   5.068   5.542   4.562  0.9879  0.8444  2.2903
 4781SOL     OW15414   4.236   1.037   3.316 -0.2580 -0.3901  0.0243
 4781SOL    HW115415   4.201   1.027   3.405  0.6502  0.1351  0.4581
 4781SOL    HW215416   4.219   1.128   3.293  0.9657 -0.0658  0.3263
 4782SOL     OW15417   5.989   6.960   5.406 -0.1615  0.0687  0.1222
 4782SOL    HW115418   5.918   6.979   5.468 -1.3439 -1.4806 -0.6840
 4782SOL    HW215419   5.987   7.033   5.345 -0.5418  0.4471  0.5785
 4783SOL     OW15420   3.372   7.911   8.056 -0.0865 -0.0961  0.2850
 4783SOL    HW115421   3.315   7.988   8.063 -2.9028 -2.0359  0.4005
 4783SOL    HW215422   3.382   7.897   7.962  0.4580  0.3858  0.2621
 4784SOL     OW15423   6.132   7.639   2.505 -0.0027  0.1905  0.0330
 4784SOL    HW115424   6.098   7.585   2.433 -0.5598  1.2336 -0.5051
 4784SOL    HW215425   6.111   7.729   2.479  0.6778  0.6481  1.0393
 4785SOL     OW15426   3.418   6.541   4.029 -0.6403 -0.7215  0.1930
 4785SOL    HW115427   3.382   6.462   4.070  0.7997 -1.2919  0.4428
 4785SOL    HW215428   3.468   6.584   4.099  0.6710 -0.9518 -0.5628
 4786SOL     OW15429   5.078   1.884   6.434 -0.3698 -0.4199 -0.0167
 4786SOL    HW115430   4.987   1.912   6.438 -1.5040 -3.5783 -0.8397
 4786SOL    HW215431   5.101   1.887   6.341  0.0241 -0.6426  0.0677
 4787SOL     OW15432   7.462   3.644   3.539 -0.4944 -0.0269  0.5550
 4787SOL    HW115433   7.463   3.554   3.573  0.9610 -0.1735  0.1885
 4787SOL    HW215434   7.383   3.648   3.485 -0.4517 -1.1693  0.3818
 4788SOL     OW15435   5.426   5.960   2.449 -0.6895 -0.1513 -0.2019
 4788SOL    HW115436   5.386   5.935   2.532  0.0786  1.1994  0.6136
 4788SOL    HW215437   5.461   6.048   2.464  2.8370 -1.3169 -0.7459
 4789SOL     OW15438   5.155   5.792   3.952 -0.7322 -0.6338  0.0075
 4789SOL    HW115439   5.131   5.715   4.004 -0.6432  0.2114  1.3389
 4789SOL    HW215440   5.216   5.840   4.007 -1.7794  1.0655 -0.2412
 4790SOL     OW15441   1.654   6.933   5.474  0.2773  0.2550  0.1573
 4790SOL    HW115442   1.704   6.870   5.423 -1.6510 -1.0139 -0.2874
 4790SOL    HW215443   1.613   6.881   5.544 -0.1940  1.2769  0.6696
 4791SOL     OW15444   0.105   7.261   4.656  0.2221  0.1926  0.1475
 4791SOL    HW115445   0.140   7.310   4.731  0.0108  0.4500  0.0779
 4791SOL    HW215446   0.092   7.327   4.588 -0.3574  0.0927  0.1579
 4792SOL     OW15447   1.929   3.674   2.797  0.3532 -0.1299  0.5987
 4792SOL    HW115448   1.885   3.591   2.780  1.1442 -0.5297  0.4471
 4792SOL    HW215449   1.985   3.687   2.720 -0.3378  0.9362  0.2616
 4793SOL     OW15450   6.468   4.714   8.010  0.1134  0.1409  0.1563
 4793SOL    HW115451   6.375   4.697   7.993  0.2924  0.8726 -1.8893
 4793SOL    HW215452   6.512   4.631   7.990 -0.1169 -0.3351  1.5462
 4794SOL     OW15453   3.128   0.073   7.257 -0.1349 -0.3232 -1.3835
 4794SOL    HW115454   3.157   0.060   7.348 -0.6527  2.0854 -0.7931
 4794SOL    HW215455   3.202   0.116   7.215 -1.1821  1.9340 -1.0395
 4795SOL     OW15456   3.064   3.670   5.381  0.0876  0.5584 -0.6911
 4795SOL    HW115457   3.095   3.720   5.456  1.6022  0.6130 -1.3258
 4795SOL    HW215458   2.972   3.654   5.400  0.5755 -0.0111  1.5175
 4796SOL     OW15459   1.055   0.543   1.019  0.0917  0.0473 -0.2003
 4796SOL    HW115460   0.973   0.593   1.023 -0.8420 -0.8823 -3.6504
 4796SOL    HW215461   1.101   0.579   0.944  1.7710 -0.9749  0.2952
 4797SOL     OW15462   2.238   6.622   7.041 -0.3874 -0.1249 -0.0339
 4797SOL    HW115463   2.223   6.594   7.131 -0.9389  0.1980 -0.0156
 4797SOL    HW215464   2.308   6.687   7.047 -0.9101  0.4253  0.2640
 4798SOL     OW15465   3.662   2.786   3.044  0.3877 -0.0112 -0.6475
 4798SOL    HW115466   3.572   2.807   3.066  0.0917 -1.3670 -0.4590
 4798SOL    HW215467   3.711   2.799   3.125  0.1153 -0.5604 -0.3908
 4799SOL     OW15468   1.769   2.828   5.903 -0.0570  0.1656 -0.2431
 4799SOL    HW115469   1.749   2.903   5.847 -1.0438  1.3299  1.5839
 4799SOL    HW215470   1.828   2.863   5.969 -1.7204 -0.2499  1.5284
 4800SOL     OW15471   0.110   3.287   3.499 -0.3876 -0.4314 -0.0902
 4800SOL    HW115472   0.154   3.203   3.512 -0.1609 -0.7097 -2.2734
 4800SOL    HW215473   0.173   3.352   3.530  0.1789 -0.9882 -0.0574
 4801SOL     OW15474   6.408   2.936   1.876 -0.1511 -0.1134  0.4005
 4801SOL    HW115475   6.400   3.031   1.872 -2.0994 -0.2857 -2.0670
 4801SOL    HW215476   6.324   2.906   1.910 -0.2040 -1.0167 -0.4956
 4802SOL     OW15477   4.377   3.211   5.634 -0.6033 -0.2073  0.0664
 4802SOL    HW115478   4.452   3.154   5.617  0.0545  0.2790  1.1516
 4802SOL    HW215479   4.300   3.158   5.614 -0.0063 -1.3358  0.6807
 4803SOL     OW15480   0.565   1.479   5.808  0.1971 -0.1437 -0.2017
 4803SOL    HW115481   0.621   1.405   5.786  0.9960  0.2361  0.5067
 4803SOL    HW215482   0.618   1.556   5.787  0.1234  0.2205  0.8874
 4804SOL     OW15483   2.994   8.052   3.663  0.2244 -0.1706 -0.2108
 4804SOL    HW115484   3.084   8.062   3.696  0.2676  0.1195 -0.4158
 4804SOL    HW215485   2.943   8.030   3.741  0.1548  1.4485  0.2345
 4805SOL     OW15486   6.218   5.200   1.858  0.0818  0.1562  0.5142
 4805SOL    HW115487   6.126   5.203   1.882  0.6141 -2.3846  3.6305
 4805SOL    HW215488   6.219   5.167   1.768 -2.0333  0.6660  0.2682
 4806SOL     OW15489   2.737   5.219   6.786  0.0204  0.0267 -0.0884
 4806SOL    HW115490   2.727   5.273   6.865  1.4189  0.7823 -0.3945
 4806SOL    HW215491   2.671   5.254   6.726 -1.4090 -0.8899  0.8832
 4807SOL     OW15492   2.752   0.774   6.000 -0.4740 -0.2178  0.0719
 4807SOL    HW115493   2.742   0.680   5.986  1.8167 -0.6189  0.8153
 4807SOL    HW215494   2.762   0.784   6.094 -0.4931  0.7592 -0.0188
 4808SOL     OW15495   0.510   0.503   5.114 -0.1839  0.5287 -0.2411
 4808SOL    HW115496   0.510   0.566   5.042 -2.9355  0.8637 -0.0654
 4808SOL    HW215497   0.505   0.557   5.193  0.5431  0.1183  0.0946
 4809SOL     OW15498   1.525   2.872   1.995 -0.1155 -0.0490 -0.7097
 4809SOL    HW115499   1.545   2.962   2.021 -0.9030  0.1934 -0.9212
 4809SOL    HW215500   1.610   2.834   1.975  0.4213  0.1084  1.0449
 4810SOL     OW15501   7.072   5.451   3.744 -0.1519 -0.2374  0.3516
 4810SOL    HW115502   7.057   5.522   3.808 -1.1965  0.4559 -0.6194
 4810SOL    HW215503   7.044   5.372   3.790 -3.6504  0.5563 -0.0841
 4811SOL     OW15504   1.655   4.521   6.902  0.3209 -0.1210  0.0245
 4811SOL    HW115505   1.563   4.510   6.877  0.0556  0.2739  0.7792
 4811SOL    HW215506   1.705   4.492   6.826 -0.4469  1.9616 -1.3715
 4812SOL     OW15507   2.174   3.925   0.331 -0.3279 -0.0177  0.1160
 4812SOL    HW115508   2.215   3.839   0.331  1.4182  0.7564  1.3508
 4812SOL    HW215509   2.218   3.973   0.261  0.2378  0.5259  0.8280
 4813SOL     OW15510   5.017   2.090   0.321  0.4447  0.2619 -0.1347
 4813SOL    HW115511   5.096   2.063   0.274 -0.0389 -0.7232 -0.4196
 4813SOL    HW215512   4.946   2.075   0.258 -0.3051 -1.8188  1.1208
 4814SOL     OW15513   4.679   6.386   0.321  0.0835 -0.0720 -0.0730
 4814SOL    HW115514   4.608   6.410   0.381  0.9666 -0.2792  1.0963
 4814SOL    HW215515   4.638   6.385   0.235 -0.9933  1.2605  0.3789
 4815SOL     OW15516   1.658   5.219   0.561 -0.2058 -0.5193  0.0034
 4815SOL    HW115517   1.686   5.297   0.513  2.0492 -0.2014  1.7141
 4815SOL    HW215518   1.563   5.218   0.550 -0.0154  0.7255 -2.5876
 4816SOL     OW15519   2.081   0.204   1.884 -0.5823 -0.1215  0.0217
 4816SOL    HW115520   2.123   0.279   1.926 -0.8699  0.3087 -0.4588
 4816SOL    HW215521   1.989   0.210   1.911 -0.6940 -0.0512 -0.3822
 4817SOL     OW15522   3.969   2.625   0.167 -0.8325 -0.3453 -0.7748
 4817SOL    HW115523   3.981   2.579   0.084 -1.0116 -0.0651 -0.9601
 4817SOL    HW215524   4.024   2.578   0.229 -1.1848 -0.9332 -0.9091
 4818SOL     OW15525   5.817   5.050   7.115 -0.7466 -0.2993 -0.5254
 4818SOL    HW115526   5.849   5.112   7.049  0.7362 -0.8442 -0.3517
 4818SOL    HW215527   5.872   5.065   7.191 -0.2199 -1.9624 -0.5541
 4819SOL     OW15528   6.232   6.833   0.738 -0.6854  0.0584 -0.1078
 4819SOL    HW115529   6.198   6.833   0.828  1.6347  0.0045  0.8400
 4819SOL    HW215530   6.192   6.756   0.698 -0.1936 -1.1097  1.5465
 4820SOL     OW15531   0.911   1.845   1.417  0.1327 -0.4840  0.3566
 4820SOL    HW115532   1.006   1.847   1.402 -0.1095  0.2834 -1.3319
 4820SOL    HW215533   0.876   1.798   1.342 -1.1180  2.9103 -1.4157
 4821SOL     OW15534   0.428   0.108   0.219 -0.5738  0.2799  0.5967
 4821SOL    HW115535   0.457   0.136   0.132 -1.1121  1.2488  0.7171
 4821SOL    HW215536   0.478   0.028   0.236  0.7009  0.9346  0.0574
 4822SOL     OW15537   1.346   6.858   5.033  0.3903 -0.4040 -0.2107
 4822SOL    HW115538   1.278   6.838   4.969  0.1003  2.5402 -0.9828
 4822SOL    HW215539   1.297   6.892   5.109  0.8923  0.2280 -0.1592
 4823SOL     OW15540   7.247   6.944   6.814 -0.4063  0.8285 -0.1224
 4823SOL    HW115541   7.286   6.940   6.727 -2.4857  1.3629 -1.1264
 4823SOL    HW215542   7.312   6.903   6.871  0.6447 -0.2802 -2.0327
 4824SOL     OW15543   8.105   4.360   4.983 -0.5663  0.2309  0.1467
 4824SOL    HW115544   8.144   4.303   5.049  1.3124  0.0982 -1.0054
 4824SOL    HW215545   8.016   4.377   5.016  0.2541  0.1269  2.6386
 4825SOL     OW15546   0.061   5.856   6.712 -0.0974  0.3932 -0.6282
 4825SOL    HW115547   0.138   5.810   6.676  1.9465 -0.0395  3.6530
 4825SOL    HW215548   0.005   5.786   6.746 -1.5637  0.8196 -2.0240
 4826SOL     OW15549   4.334   3.156   3.558 -0.0729 -0.6814 -0.8548
 4826SOL    HW115550   4.390   3.178   3.632  0.8102 -1.2395 -1.3495
 4826SOL    HW215551   4.389   3.102   3.501 -0.5453  0.2530 -2.2217
 4827SOL     OW15552   1.810   0.166   3.433  0.1719  0.2250  0.1386
 4827SOL    HW115553   1.858   0.141   3.512 -0.9298 -0.5378  0.5990
 4827SOL    HW215554   1.839   0.255   3.414  2.6697 -0.6154 -0.3330
 4828SOL     OW15555   2.334   5.755   5.344 -0.4020  0.3146 -0.6204
 4828SOL    HW115556   2.349   5.786   5.254  0.1965  1.0948 -0.2630
 4828SOL    HW215557   2.413   5.705   5.365 -0.9905 -0.7449 -0.8863
 4829SOL     OW15558   6.137   0.368   3.017 -0.7090  0.2448 -0.4266
 4829SOL    HW115559   6.133   0.445   2.961 -0.3758  0.3722 -0.2788
 4829SOL    HW215560   6.154   0.296   2.957  0.1602  0.4512 -0.4443
 4830SOL     OW15561   4.234   7.061   0.567  0.1975 -0.0936 -0.1574
 4830SOL    HW115562   4.298   7.099   0.629 -0.7930  0.0331  0.8139
 4830SOL    HW215563   4.252   7.107   0.485  1.0763  0.2479  0.2016
 4831SOL     OW15564   2.095   1.278   0.593 -0.3720 -0.0571  0.7016
 4831SOL    HW115565   2.047   1.351   0.555 -0.7963 -0.3895  0.5906
 4831SOL    HW215566   2.187   1.302   0.585 -0.4693  0.0494 -0.1852
 4832SOL     OW15567   5.157   8.088   7.428  0.1593 -0.2208 -0.3165
 4832SOL    HW115568   5.210   8.142   7.369 -1.7271  0.6529 -1.2844
 4832SOL    HW215569   5.069   8.125   7.422 -0.4734 -1.2462  1.6951
 4833SOL     OW15570   3.560   5.944   0.924  0.0978 -0.2295 -0.1626
 4833SOL    HW115571   3.645   5.929   0.965 -0.0303 -0.4726  0.0135
 4833SOL    HW215572   3.542   5.865   0.873 -0.1580 -0.3062  0.0411
 4834SOL     OW15573   1.413   5.688   0.905 -0.2749  0.1481  0.3326
 4834SOL    HW115574   1.474   5.692   0.978 -0.4210 -1.0681  0.5518
 4834SOL    HW215575   1.397   5.594   0.893 -1.1740  0.3901 -0.4876
 4835SOL     OW15576   2.838   2.689   2.708 -0.1848  0.1610  0.4622
 4835SOL    HW115577   2.769   2.668   2.769 -0.9156 -0.7928 -0.6409
 4835SOL    HW215578   2.905   2.622   2.723 -0.1853  0.1672  0.4918
 4836SOL     OW15579   7.089   3.781   8.122  0.1553  0.8151  0.7991
 4836SOL    HW115580   7.164   3.722   8.134 -0.5334 -0.5664 -1.1686
 4836SOL    HW215581   7.122   3.849   8.063 -0.2205 -0.0743 -0.4839
 4837SOL     OW15582   7.663   0.454   0.278 -0.5858 -0.0778  0.6900
 4837SOL    HW115583   7.750   0.435   0.313 -0.6524 -1.8119 -0.0115
 4837SOL    HW215584   7.644   0.542   0.309  0.9026 -0.1374  1.8893
 4838SOL     OW15585   4.567   7.816   0.364  0.1231  0.3442  0.3129
 4838SOL    HW115586   4.484   7.819   0.316  1.6707  0.7325 -2.5580
 4838SOL    HW215587   4.595   7.724   0.358  0.5881  0.5054 -0.0295
 4839SOL     OW15588   5.300   1.393   4.277 -0.4108  0.0488  0.3871
 4839SOL    HW115589   5.252   1.342   4.212 -0.8248  0.3479  0.4507
 4839SOL    HW215590   5.386   1.352   4.281 -0.6954 -0.5708  0.3524
 4840SOL     OW15591   0.635   7.691   4.904  1.2772  0.3052  0.0690
 4840SOL    HW115592   0.698   7.674   4.834  2.3979  0.8565  0.9090
 4840SOL    HW215593   0.685   7.678   4.985  0.2281  0.4803  0.7653
 4841SOL     OW15594   4.243   3.812   0.723 -0.2652  0.0057  0.1839
 4841SOL    HW115595   4.184   3.887   0.734  1.0124  1.1003 -0.1978
 4841SOL    HW215596   4.302   3.838   0.653  0.0100 -1.5098 -0.1750
 4842SOL     OW15597   3.940   3.504   2.714 -0.1827  0.5005  0.4981
 4842SOL    HW115598   3.931   3.417   2.753  0.7672  1.1311  2.2624
 4842SOL    HW215599   3.983   3.488   2.630 -0.3876 -0.7592  0.6039
 4843SOL     OW15600   2.338   7.028   6.409 -0.3982 -0.4013 -0.1246
 4843SOL    HW115601   2.408   7.016   6.344 -0.3316 -1.4935  0.1262
 4843SOL    HW215602   2.265   7.064   6.358 -0.1474 -0.6676 -0.6921
 4844SOL     OW15603   2.026   2.427   4.142 -0.0553 -1.0084 -0.2346
 4844SOL    HW115604   2.017   2.484   4.219 -1.9126 -1.2139 -0.2522
 4844SOL    HW215605   2.114   2.445   4.109  0.4492 -0.2494  1.4039
 4845SOL     OW15606   4.469   2.550   7.148  0.4954  0.6245  0.0063
 4845SOL    HW115607   4.516   2.483   7.199 -0.4082 -0.6602 -0.7813
 4845SOL    HW215608   4.389   2.566   7.199 -0.4172 -0.6739 -0.9559
 4846SOL     OW15609   1.597   2.082   5.860  0.9467 -0.5280  0.0210
 4846SOL    HW115610   1.535   2.076   5.788  0.0127 -2.2626  0.9172
 4846SOL    HW215611   1.672   2.129   5.823 -0.5680  0.9904 -1.2979
 4847SOL     OW15612   7.427   7.567   1.656 -0.0413 -0.7295 -0.1905
 4847SOL    HW115613   7.353   7.511   1.635 -0.7161 -0.0009  0.1819
 4847SOL    HW215614   7.435   7.562   1.752 -0.8622  0.6920 -0.0130
 4848SOL     OW15615   6.029   7.712   1.302  0.0317 -0.2953  0.0325
 4848SOL    HW115616   6.091   7.785   1.306 -0.4090  0.1894 -1.2646
 4848SOL    HW215617   5.962   7.734   1.367  0.9798 -0.6169  1.1519
 4849SOL     OW15618   6.036   1.471   6.989 -0.1164 -0.2751 -0.2199
 4849SOL    HW115619   6.108   1.489   6.928  0.3823 -1.0157  0.1345
 4849SOL    HW215620   6.059   1.387   7.029 -1.2837 -0.6213 -0.2398
 4850SOL     OW15621   2.086   6.712   1.354 -0.4338  0.0999 -0.2743
 4850SOL    HW115622   2.162   6.728   1.298  0.3282  0.6292  0.8616
 4850SOL    HW215623   2.060   6.799   1.384 -0.6480 -0.1925  0.4091
 4851SOL     OW15624   3.360   6.081   0.579 -0.0132 -0.4408 -0.6754
 4851SOL    HW115625   3.452   6.108   0.585 -0.2419  0.7310 -1.9970
 4851SOL    HW215626   3.364   5.994   0.538  0.5880 -1.4094  1.3081
 4852SOL     OW15627   0.368   1.452   7.645  0.1656 -0.8410 -0.7953
 4852SOL    HW115628   0.383   1.409   7.729  0.0350  0.5261 -0.0479
 4852SOL    HW215629   0.300   1.399   7.603 -1.8586  0.0040  1.1872
 4853SOL     OW15630   3.589   4.471   6.952 -0.5471  0.9316 -0.0592
 4853SOL    HW115631   3.678   4.505   6.939  0.1376 -1.3583 -2.2964
 4853SOL    HW215632   3.594   4.421   7.033  0.1877  0.9339 -0.0913
 4854SOL     OW15633   6.536   0.191   2.892 -0.3816 -0.0371 -0.1812
 4854SOL    HW115634   6.522   0.280   2.927  0.8922  0.3185 -0.5206
 4854SOL    HW215635   6.546   0.204   2.798  0.5558 -0.4421 -0.1429
 4855SOL     OW15636   1.897   0.542   4.421  0.4656 -0.6262  0.0943
 4855SOL    HW115637   1.860   0.603   4.357  2.5003  0.3787 -0.2447
 4855SOL    HW215638   1.956   0.597   4.474 -0.6614 -1.5558  2.4608
 4856SOL     OW15639   2.113   4.415   6.441  0.4996 -0.6557  0.0860
 4856SOL    HW115640   2.127   4.468   6.362  0.3075  0.5892  0.8498
 4856SOL    HW215641   2.018   4.409   6.449  0.5196 -0.8323  0.1929
 4857SOL     OW15642   2.391   7.644   6.234 -0.3823  0.3922 -0.1594
 4857SOL    HW115643   2.386   7.685   6.148 -0.9823 -1.1735 -0.8971
 4857SOL    HW215644   2.465   7.688   6.277 -0.0197  1.1377 -1.4855
 4858SOL     OW15645   6.473   7.855   3.217  0.2288 -0.3548 -0.4553
 4858SOL    HW115646   6.533   7.927   3.201  1.1211 -0.8667  0.4983
 4858SOL    HW215647   6.525   7.789   3.263 -1.0851 -0.7592  0.5189
 4859SOL     OW15648   1.671   0.943   7.885 -0.3678  0.0385 -0.2975
 4859SOL    HW115649   1.722   0.976   7.959 -0.3813 -0.6367  0.0308
 4859SOL    HW215650   1.707   0.987   7.808 -1.7257  2.3773  0.3034
 4860SOL     OW15651   3.076   0.590   1.310 -0.3686  0.5300  0.6511
 4860SOL    HW115652   3.155   0.608   1.259  0.1669 -0.6421  1.0331
 4860SOL    HW215653   3.106   0.591   1.401 -0.5416 -1.0205  0.7513
 4861SOL     OW15654   4.163   2.443   5.757  0.6923  0.5225 -0.2787
 4861SOL    HW115655   4.106   2.506   5.714  1.7860  1.6164 -0.1942
 4861SOL    HW215656   4.129   2.357   5.731  0.9949  1.1218 -2.9172
 4862SOL     OW15657   1.997   7.990   7.114  0.4379 -0.2050  0.1067
 4862SOL    HW115658   1.987   8.085   7.112  1.2837 -0.0985 -2.3650
 4862SOL    HW215659   1.908   7.957   7.129 -0.8574  0.9705 -3.6847
 4863SOL     OW15660   3.508   2.916   7.684  0.8738 -0.1067 -0.0024
 4863SOL    HW115661   3.443   2.846   7.683 -1.3709  1.7690  1.7812
 4863SOL    HW215662   3.490   2.967   7.605  1.9067 -0.9849 -0.8267
 4864SOL     OW15663   3.987   2.028   2.694  0.3654 -0.0300  0.2822
 4864SOL    HW115664   3.896   2.014   2.668  0.5699 -0.3494 -0.2607
 4864SOL    HW215665   3.983   2.102   2.755 -0.0608  1.0581 -1.0306
 4865SOL     OW15666   2.380   6.337   0.355  0.0735 -0.1699 -0.7308
 4865SOL    HW115667   2.431   6.416   0.337  1.5728 -0.4989  1.5414
 4865SOL    HW215668   2.331   6.358   0.434 -0.5539 -1.0615 -0.8743
 4866SOL     OW15669   6.342   2.119   7.248 -0.7213  0.3139 -0.3687
 4866SOL    HW115670   6.383   2.201   7.220 -1.7136  0.8122 -0.4083
 4866SOL    HW215671   6.261   2.147   7.292 -0.7788 -0.6180  0.1331
 4867SOL     OW15672   1.571   1.104   6.619 -0.7230 -0.6535  0.5839
 4867SOL    HW115673   1.563   1.091   6.524 -0.2858  1.2150  0.2448
 4867SOL    HW215674   1.642   1.045   6.645 -0.6672 -0.9927 -0.2951
 4868SOL     OW15675   1.761   7.319   4.045  0.1450  0.6310  0.7419
 4868SOL    HW115676   1.733   7.242   3.997 -0.4971  0.4157  1.4354
 4868SOL    HW215677   1.712   7.315   4.127  1.6192  0.6732  1.6753
 4869SOL     OW15678   2.479   2.141   1.228 -0.1228  0.0366  0.0981
 4869SOL    HW115679   2.471   2.093   1.310  0.1068  0.7969  0.5645
 4869SOL    HW215680   2.455   2.231   1.249  0.5070  0.3638 -0.5257
 4870SOL     OW15681   3.847   4.006   5.024 -0.0842 -0.5580 -0.5033
 4870SOL    HW115682   3.772   4.002   4.964 -0.2251  0.1725 -0.3962
 4870SOL    HW215683   3.911   3.946   4.987 -0.5209 -0.7949 -0.8892
 4871SOL     OW15684   0.170   1.023   4.378 -0.2527 -0.5746 -0.0745
 4871SOL    HW115685   0.143   0.969   4.305  0.0043  0.0348 -0.6304
 4871SOL    HW215686   0.255   1.059   4.352  0.8580 -1.9780  1.3856
 4872SOL     OW15687   4.229   2.992   0.977  0.2280  0.4989 -0.5040
 4872SOL    HW115688   4.189   2.940   1.047 -1.2025  2.7760  0.5202
 4872SOL    HW215689   4.320   3.002   1.005  0.1729 -0.2795 -0.0025
 4873SOL     OW15690   5.024   7.160   1.942  0.8293  0.2092  0.2573
 4873SOL    HW115691   4.994   7.078   1.902 -1.9867  0.2557  2.0300
 4873SOL    HW215692   5.004   7.227   1.877 -0.5196 -0.1076  0.3062
 4874SOL     OW15693   8.160   0.159   6.811 -0.5404 -0.1082 -0.0512
 4874SOL    HW115694   8.107   0.223   6.763  0.2927 -0.4332 -1.4527
 4874SOL    HW215695   8.232   0.211   6.848 -0.5635 -0.0405 -0.1013
 4875SOL     OW15696   1.719   3.848   4.132 -0.0270 -0.1750 -0.4611
 4875SOL    HW115697   1.656   3.881   4.196 -0.6223  0.7813 -1.5101
 4875SOL    HW215698   1.800   3.836   4.183 -0.2041  1.5035  0.3006
 4876SOL     OW15699   0.905   7.414   4.411 -0.1187 -0.0961  0.1872
 4876SOL    HW115700   0.979   7.373   4.367 -0.4542  0.1327 -0.6196
 4876SOL    HW215701   0.912   7.507   4.388 -0.8438 -0.1279 -0.2015
 4877SOL     OW15702   7.878   1.744   7.902  0.2461 -0.4667  0.6887
 4877SOL    HW115703   7.954   1.796   7.877  1.1055 -2.1993 -0.4631
 4877SOL    HW215704   7.881   1.741   7.998  0.7537  0.7046  0.7199
 4878SOL     OW15705   5.484   1.861   2.779 -0.2679 -0.3090 -0.2620
 4878SOL    HW115706   5.430   1.925   2.827  0.8439 -0.3681  1.1436
 4878SOL    HW215707   5.482   1.783   2.834  0.4227 -0.6407 -0.6990
 4879SOL     OW15708   7.214   6.460   6.068  0.1229  0.0827  0.1504
 4879SOL    HW115709   7.277   6.523   6.105  1.0449 -1.7222  1.8743
 4879SOL    HW215710   7.143   6.458   6.131 -0.9664  0.9368 -1.0016
 4880SOL     OW15711   0.423   4.142   0.438 -0.1684 -0.3784  0.0043
 4880SOL    HW115712   0.342   4.155   0.487 -0.4784  1.0986 -0.8671
 4880SOL    HW215713   0.444   4.227   0.401  1.5592 -0.8265 -0.1666
 4881SOL     OW15714   0.868   0.685   4.416 -0.5877 -0.0558  0.4481
 4881SOL    HW115715   0.858   0.594   4.389 -1.4611  0.0396  0.4183
 4881SOL    HW215716   0.937   0.720   4.360 -0.9733 -0.4154 -0.2584
 4882SOL     OW15717   4.968   7.892   3.061  0.0954  0.3520 -0.1282
 4882SOL    HW115718   4.970   7.831   3.134  1.1903 -0.1740 -0.5740
 4882SOL    HW215719   4.917   7.967   3.093  0.4535  0.0781  1.1197
 4883SOL     OW15720   4.509   7.161   0.283  0.4870  0.2084  0.2921
 4883SOL    HW115721   4.481   7.210   0.206  1.6071 -0.4787 -0.5933
 4883SOL    HW215722   4.478   7.212   0.358  1.4935  2.1884 -0.5842
 4884SOL     OW15723   5.146   6.335   7.357 -0.7922  0.0142  0.1313
 4884SOL    HW115724   5.122   6.278   7.430  0.0808 -1.0887 -0.4126
 4884SOL    HW215725   5.194   6.278   7.296  2.1439  1.7767  0.6088
 4885SOL     OW15726   5.940   2.605   3.861 -0.1899 -0.8088  0.0095
 4885SOL    HW115727   5.881   2.615   3.936  0.2713  1.1763  0.1826
 4885SOL    HW215728   5.883   2.584   3.788 -0.8489 -1.1531  0.6096
 4886SOL     OW15729   1.430   5.982   2.573 -0.8113 -0.2388  0.0385
 4886SOL    HW115730   1.345   6.010   2.605 -0.0335 -0.1038  2.1024
 4886SOL    HW215731   1.445   6.036   2.495 -1.3697  1.8173  1.2790
 4887SOL     OW15732   0.393   7.943   4.833  0.3695 -0.1569  0.1564
 4887SOL    HW115733   0.384   7.922   4.740 -0.2702 -2.2576  0.6581
 4887SOL    HW215734   0.328   7.889   4.877  0.6313  0.8308  1.8417
 4888SOL     OW15735   4.840   3.229   4.779 -0.4277 -0.1795  0.0955
 4888SOL    HW115736   4.903   3.297   4.804 -1.1158  0.7504 -0.6370
 4888SOL    HW215737   4.888   3.147   4.790  1.4531  0.5509 -1.9273
 4889SOL     OW15738   6.042   7.590   6.209 -0.2047  0.1108 -0.0484
 4889SOL    HW115739   6.058   7.500   6.179 -0.4304  0.1774 -0.3777
 4889SOL    HW215740   5.955   7.586   6.249 -1.0876  0.5879 -1.8109
 4890SOL     OW15741   2.097   1.448   1.607  0.0903  0.2628  0.4671
 4890SOL    HW115742   2.117   1.530   1.564  0.7980 -0.1512 -0.0150
 4890SOL    HW215743   2.002   1.448   1.618 -0.3729 -0.3720 -2.6754
 4891SOL     OW15744   1.350   1.295   6.264  0.5372 -0.2759  0.6101
 4891SOL    HW115745   1.443   1.286   6.242  0.6543  0.0008  0.9798
 4891SOL    HW215746   1.324   1.377   6.223  0.0407 -1.1240 -0.8539
 4892SOL     OW15747   3.584   4.679   1.931  0.2063 -0.0241 -0.0849
 4892SOL    HW115748   3.650   4.611   1.920  0.3983  0.3885 -1.6310
 4892SOL    HW215749   3.514   4.654   1.871 -1.1137 -0.4762  1.5465
 4893SOL     OW15750   8.117   1.344   7.764  0.2621  0.7179  0.2630
 4893SOL    HW115751   8.185   1.410   7.753  1.1157 -0.0239  0.9720
 4893SOL    HW215752   8.086   1.355   7.853  1.4874 -0.7988  0.9229
 4894SOL     OW15753   7.422   2.191   7.343  0.3026 -0.7412  0.2878
 4894SOL    HW115754   7.452   2.226   7.427 -1.5701  1.2460  0.2251
 4894SOL    HW215755   7.388   2.104   7.364  1.4156 -0.9665  1.2527
 4895SOL     OW15756   6.127   6.617   3.149 -1.2603  0.1152 -0.4437
 4895SOL    HW115757   6.141   6.621   3.244 -0.6028  0.8202 -0.5637
 4895SOL    HW215758   6.192   6.677   3.112 -0.9475 -0.7799 -1.4029
 4896SOL     OW15759   4.058   5.920   4.965 -0.0803  0.1383  0.0845
 4896SOL    HW115760   4.069   6.012   4.938  0.2540 -0.3141 -1.4567
 4896SOL    HW215761   3.980   5.891   4.917  0.0960 -0.5095  0.1875
 4897SOL     OW15762   1.062   5.439   6.254  0.5711  0.0779 -0.0167
 4897SOL    HW115763   0.971   5.426   6.281  0.8372 -1.1119  0.3812
 4897SOL    HW215764   1.078   5.532   6.266 -1.1296  0.6898 -1.8184
 4898SOL     OW15765   6.677   0.163   1.410 -0.7562 -0.6786 -0.2214
 4898SOL    HW115766   6.664   0.164   1.315  0.2493 -1.0680 -0.3759
 4898SOL    HW215767   6.692   0.070   1.431 -0.5357 -0.5381  0.2551
 4899SOL     OW15768   5.818   2.614   8.004 -0.1579 -0.1684  0.4667
 4899SOL    HW115769   5.889   2.658   8.051  0.7022 -0.8369 -0.1738
 4899SOL    HW215770   5.860   2.576   7.927 -1.7711  2.0596 -1.6753
 4900SOL     OW15771   7.584   6.491   6.288  0.1697 -0.0763 -0.0048
 4900SOL    HW115772   7.585   6.444   6.371  0.1180  1.6092  1.0078
 4900SOL    HW215773   7.670   6.534   6.285  0.2215 -0.2368 -0.9049
 4901SOL     OW15774   1.929   4.903   1.216  0.0982 -0.1044 -0.7722
 4901SOL    HW115775   1.945   4.836   1.150  2.7936  0.4549 -0.8064
 4901SOL    HW215776   1.939   4.858   1.300  2.8469  0.3296 -0.7857
 4902SOL     OW15777   3.053   6.142   2.503  0.5852  0.2318  0.1876
 4902SOL    HW115778   3.119   6.092   2.551  0.7920  0.5888  0.2831
 4902SOL    HW215779   2.970   6.113   2.539  0.7797  1.7161  2.0041
 4903SOL     OW15780   3.620   3.923   0.355  0.1215  0.0746  0.3024
 4903SOL    HW115781   3.680   3.997   0.354 -0.4123  0.5099 -0.3855
 4903SOL    HW215782   3.675   3.847   0.337  0.8862  0.1083  2.2804
 4904SOL     OW15783   4.580   7.514   0.330 -0.1288  0.5068  0.1417
 4904SOL    HW115784   4.486   7.494   0.325 -0.4870  2.2922 -0.8046
 4904SOL    HW215785   4.614   7.495   0.243  0.6176 -1.0369  0.7351
 4905SOL     OW15786   5.842   3.750   2.696 -0.7363 -0.2551  0.6184
 4905SOL    HW115787   5.873   3.799   2.771 -0.9658 -0.9538  1.1784
 4905SOL    HW215788   5.819   3.817   2.631  1.5777  0.3235  0.2809
 4906SOL     OW15789   1.683   4.312   0.718  0.0077 -0.0768  0.1226
 4906SOL    HW115790   1.738   4.339   0.644 -0.2948  0.9576  0.2574
 4906SOL    HW215791   1.625   4.246   0.681 -0.7316  1.0533 -0.8107
 4907SOL     OW15792   7.146   1.811   4.137  0.6309  0.3344  0.4549
 4907SOL    HW115793   7.159   1.906   4.132  0.6030  0.3855  1.2616
 4907SOL    HW215794   7.133   1.793   4.230 -0.9272 -0.2629  0.1489
 4908SOL     OW15795   4.638   2.906   4.639 -0.4793  0.1971  0.4161
 4908SOL    HW115796   4.554   2.952   4.643 -0.6930 -0.1945  0.4247
 4908SOL    HW215797   4.700   2.973   4.609 -0.9033  0.3231 -0.1862
 4909SOL     OW15798   0.397   6.804   8.115  0.4996  0.1970 -0.1584
 4909SOL    HW115799   0.411   6.711   8.098  1.7965  0.2503  0.4969
 4909SOL    HW215800   0.309   6.822   8.080  0.4272 -1.1492 -0.7256
 4910SOL     OW15801   5.281   2.474   2.292 -0.2030  0.3555  0.3337
 4910SOL    HW115802   5.319   2.543   2.238  0.2363 -0.6222 -0.6581
 4910SOL    HW215803   5.337   2.471   2.370  0.3975  0.4358 -0.0876
 4911SOL     OW15804   4.095   7.647   0.623  0.1527  0.2215  0.0188
 4911SOL    HW115805   4.093   7.587   0.548 -0.9733 -0.6451  0.7160
 4911SOL    HW215806   4.084   7.590   0.699  2.0052  0.9926  0.9287
 4912SOL     OW15807   4.198   5.089   1.633  0.3241 -0.4825 -0.2738
 4912SOL    HW115808   4.239   5.007   1.659 -0.9893 -0.2895  2.9680
 4912SOL    HW215809   4.252   5.157   1.674  0.3257  0.1535 -1.3083
 4913SOL     OW15810   1.787   6.314   8.048  0.2023  0.1355  0.4202
 4913SOL    HW115811   1.720   6.299   7.982  0.4347 -0.8224  0.3806
 4913SOL    HW215812   1.754   6.388   8.100  0.0791  0.9842 -0.8237
 4914SOL     OW15813   2.913   1.609   6.175  0.1817  0.0884 -0.1189
 4914SOL    HW115814   2.836   1.559   6.202  0.8186 -1.3132 -0.8159
 4914SOL    HW215815   2.900   1.624   6.081  0.4253  0.4751 -0.0943
 4915SOL     OW15816   2.006   3.224   0.776  0.1791 -0.0199  0.3066
 4915SOL    HW115817   1.923   3.217   0.730  0.4791 -1.6088 -0.0487
 4915SOL    HW215818   1.982   3.233   0.869 -0.3953 -0.2601  0.1837
 4916SOL     OW15819   6.915   6.641   2.499 -0.3823  0.0289 -0.8212
 4916SOL    HW115820   6.895   6.551   2.522  0.1971 -0.0992 -0.7962
 4916SOL    HW215821   6.961   6.636   2.415  3.0275 -0.0800  0.8880
 4917SOL     OW15822   6.648   3.251   1.570  0.2838 -0.0095 -0.3035
 4917SOL    HW115823   6.683   3.249   1.481 -1.4402 -1.5243 -1.0112
 4917SOL    HW215824   6.704   3.192   1.620  0.7543  0.1949 -0.5900
 4918SOL     OW15825   4.312   0.285   2.702  0.0918  0.6628 -0.1612
 4918SOL    HW115826   4.234   0.312   2.751 -0.4232 -0.8707 -0.0866
 4918SOL    HW215827   4.375   0.260   2.770 -0.7720 -1.8747 -0.2197
 4919SOL     OW15828   1.052   4.993   5.305  0.4671 -0.2207 -0.4700
 4919SOL    HW115829   1.010   4.970   5.388 -0.4100  0.8961 -0.5777
 4919SOL    HW215830   1.138   4.953   5.310 -0.7488 -3.0900 -0.4639
 4920SOL     OW15831   2.075   3.780   1.766 -0.4179  0.1321 -0.0926
 4920SOL    HW115832   2.022   3.761   1.844 -0.2848 -0.2211 -0.0874
 4920SOL    HW215833   2.165   3.762   1.794 -0.2814  0.8093 -0.0762
 4921SOL     OW15834   5.256   6.378   1.088 -0.0020 -0.3640  0.4904
 4921SOL    HW115835   5.275   6.470   1.071 -0.3014  0.0653  2.2635
 4921SOL    HW215836   5.204   6.350   1.013  0.7486  0.6873 -0.4472
 4922SOL     OW15837   2.006   4.395   4.313 -0.1288 -1.0826 -0.0212
 4922SOL    HW115838   2.078   4.336   4.335  0.6696 -0.1547 -0.0902
 4922SOL    HW215839   2.029   4.430   4.227 -0.5061 -0.5479  0.0916
 4923SOL     OW15840   6.842   2.117   4.694 -0.3204  0.3647 -0.5374
 4923SOL    HW115841   6.824   2.117   4.600 -0.3121 -2.1808 -0.6041
 4923SOL    HW215842   6.784   2.050   4.730  1.9729 -1.0531  0.7425
 4924SOL     OW15843   0.894   1.811   7.516 -0.0641 -0.5526 -0.0666
 4924SOL    HW115844   0.937   1.731   7.485  1.2480 -0.1901  0.7286
 4924SOL    HW215845   0.927   1.822   7.605 -0.1289  0.9641 -0.2171
 4925SOL     OW15846   6.293   2.581   7.966  0.0996  0.1063 -0.5778
 4925SOL    HW115847   6.366   2.590   7.904  2.3362  1.0988  2.0214
 4925SOL    HW215848   6.279   2.670   7.999  0.6893 -0.7304  2.1243
 4926SOL     OW15849   2.650   0.501   3.942 -0.1138  0.1555 -0.8416
 4926SOL    HW115850   2.576   0.526   3.997  0.6059  2.7872 -0.9458
 4926SOL    HW215851   2.618   0.426   3.892 -1.5614 -0.8742  1.4274
 4927SOL     OW15852   5.245   7.033   0.162  0.7536  0.4619  0.0413
 4927SOL    HW115853   5.238   7.118   0.206 -0.5710  0.2669  0.2525
 4927SOL    HW215854   5.218   6.969   0.229 -2.2213  0.2330 -1.2260
 4928SOL     OW15855   3.347   6.163   6.813  0.3109 -0.7416  0.1753
 4928SOL    HW115856   3.293   6.092   6.779  1.0147 -0.7749 -0.9408
 4928SOL    HW215857   3.337   6.157   6.909 -1.2244 -1.0495  0.0200
 4929SOL     OW15858   2.241   6.535   2.316 -0.3894  0.1422 -0.0474
 4929SOL    HW115859   2.268   6.622   2.344 -0.1067 -0.1194  0.5064
 4929SOL    HW215860   2.310   6.506   2.256 -0.1674  0.0525  0.2494
 4930SOL     OW15861   0.284   1.266   4.599  0.3247 -0.8140 -0.4662
 4930SOL    HW115862   0.318   1.345   4.558 -0.2415 -1.0400 -1.3897
 4930SOL    HW215863   0.197   1.254   4.561  0.7892 -2.4322 -1.1032
 4931SOL     OW15864   7.925   7.199   1.407  0.1097  0.3748 -0.3914
 4931SOL    HW115865   7.934   7.199   1.312  0.5859 -0.5261 -0.3609
 4931SOL    HW215866   7.919   7.291   1.431  3.0382  0.8280 -1.0379
 4932SOL     OW15867   5.944   4.091   6.152 -0.4757  0.1211  0.3975
 4932SOL    HW115868   5.924   4.016   6.210 -1.7104  0.0060 -0.1438
 4932SOL    HW215869   5.945   4.053   6.064 -1.3806  0.7696  0.0923
 4933SOL     OW15870   2.755   1.159   7.799 -0.5487 -0.3884 -0.1779
 4933SOL    HW115871   2.722   1.119   7.880  1.9139 -1.0963  0.5563
 4933SOL    HW215872   2.764   1.085   7.738 -0.6157 -0.1592 -0.4675
 4934SOL     OW15873   2.554   1.822   5.799 -0.3724  0.0611 -0.5706
 4934SOL    HW115874   2.465   1.802   5.773 -1.1546  0.1434  1.7684
 4934SOL    HW215875   2.549   1.908   5.841  0.7310 -0.0911 -0.0728
 4935SOL     OW15876   5.004   2.585   7.198 -0.0470  0.1511  0.0913
 4935SOL    HW115877   5.007   2.550   7.109  1.8879  0.0717  0.1373
 4935SOL    HW215878   4.983   2.677   7.187  1.3657  0.4239 -0.5829
 4936SOL     OW15879   6.691   1.109   7.902 -0.3145 -0.0457  0.1717
 4936SOL    HW115880   6.754   1.130   7.971 -1.3387 -0.6817  1.3542
 4936SOL    HW215881   6.734   1.134   7.821  1.3611 -0.2426  0.9579
 4937SOL     OW15882   2.193   3.683   6.344 -0.3270 -0.3293  0.0808
 4937SOL    HW115883   2.165   3.772   6.323 -0.1925 -0.5006 -0.8727
 4937SOL    HW215884   2.174   3.633   6.264 -1.4996 -1.4168  0.9910
 4938SOL     OW15885   7.776   4.300   0.499 -0.5210  0.6134  0.4464
 4938SOL    HW115886   7.794   4.367   0.565  0.2012  0.2726  0.6123
 4938SOL    HW215887   7.818   4.333   0.420  0.2155  0.1731  0.6379
 4939SOL     OW15888   0.377   2.052   8.016 -0.2099 -0.2969  0.2855
 4939SOL    HW115889   0.362   1.963   7.983  2.1254 -0.5040 -0.3848
 4939SOL    HW215890   0.472   2.060   8.021 -0.3679  1.0955  3.3370
 4940SOL     OW15891   5.086   1.657   2.297 -0.9295  0.0078  0.4177
 4940SOL    HW115892   5.055   1.566   2.288  0.3192 -0.3671 -0.3672
 4940SOL    HW215893   5.078   1.676   2.390  1.9776 -2.1370  1.2504
 4941SOL     OW15894   7.931   3.677   5.354 -0.0629 -0.2305  0.2706
 4941SOL    HW115895   7.953   3.665   5.447 -2.8487 -0.6545  0.9847
 4941SOL    HW215896   7.944   3.591   5.315 -0.0405 -0.3599  0.5591
 4942SOL     OW15897   2.915   6.090   0.783 -0.3132 -0.2736  0.7301
 4942SOL    HW115898   2.973   6.165   0.790 -2.5252  1.8290 -1.3740
 4942SOL    HW215899   2.925   6.060   0.693 -1.1619 -1.0055  0.8617
 4943SOL     OW15900   1.994   1.177   0.130 -0.1333 -0.3143 -0.8609
 4943SOL    HW115901   2.039   1.196   0.212  1.0265 -1.2040 -1.2564
 4943SOL    HW215902   1.945   1.256   0.110  0.5219  0.3443  0.0787
 4944SOL     OW15903   7.518   0.766   4.884  0.7341 -0.4794 -0.5708
 4944SOL    HW115904   7.562   0.828   4.942 -0.4441  0.0166 -0.1873
 4944SOL    HW215905   7.570   0.686   4.891  1.8632  0.2300 -0.5210
 4945SOL     OW15906   1.550   7.753   3.147 -0.1289 -0.0491  0.0097
 4945SOL    HW115907   1.609   7.761   3.073 -0.5852  0.1007 -0.3368
 4945SOL    HW215908   1.462   7.752   3.109 -0.3150 -2.0147  0.3574
 4946SOL     OW15909   1.848   7.570   3.972 -0.1350  0.4265 -0.2060
 4946SOL    HW115910   1.932   7.564   4.018 -0.3028  1.3154  0.2406
 4946SOL    HW215911   1.807   7.485   3.984  0.3610  0.2475  0.2453
 4947SOL     OW15912   5.389   5.782   4.322  0.1211 -0.7330 -0.2147
 4947SOL    HW115913   5.443   5.818   4.392 -2.1308  3.6635 -0.4075
 4947SOL    HW215914   5.447   5.782   4.245  0.8841  0.5682  0.3216
 4948SOL     OW15915   4.649   1.913   2.153 -0.0360 -0.5278 -0.3901
 4948SOL    HW115916   4.616   1.872   2.073 -1.3285 -0.0320 -0.1444
 4948SOL    HW215917   4.685   1.997   2.124  2.4156 -1.6749 -0.8624
 4949SOL     OW15918   0.558   2.845   3.657  0.5777  0.2194 -0.4580
 4949SOL    HW115919   0.614   2.816   3.729  0.0945 -0.3732 -0.3062
 4949SOL    HW215920   0.600   2.810   3.579  1.7187  1.8173 -0.5955
 4950SOL     OW15921   6.455   3.771   7.303  0.2131  0.0805  0.8050
 4950SOL    HW115922   6.523   3.832   7.277 -0.8935  0.8648 -0.3732
 4950SOL    HW215923   6.451   3.707   7.232 -0.3500  0.1094  0.8042
 4951SOL     OW15924   7.039   6.734   1.750  0.2676  0.2199  0.3245
 4951SOL    HW115925   7.016   6.687   1.830  1.3182  0.9098  1.0653
 4951SOL    HW215926   7.007   6.823   1.764  0.9099  0.4759  0.2061
 4952SOL     OW15927   6.627   3.641   6.281 -0.1755 -0.1689 -0.2660
 4952SOL    HW115928   6.650   3.610   6.194 -0.8473 -0.5894 -0.3035
 4952SOL    HW215929   6.636   3.564   6.338 -0.7622 -0.1596 -0.1565
 4953SOL     OW15930   3.997   5.321   7.354 -0.4815  0.2226  0.3864
 4953SOL    HW115931   4.054   5.343   7.281  2.2360 -1.7806  1.7009
 4953SOL    HW215932   3.928   5.266   7.315  0.1799  0.2264 -0.8396
 4954SOL     OW15933   3.961   1.184   7.863  0.1277  0.0172 -0.4328
 4954SOL    HW115934   3.997   1.262   7.820 -1.5575  0.5633 -0.9268
 4954SOL    HW215935   4.015   1.173   7.942 -1.8890  4.0666  1.8449
 4955SOL     OW15936   8.139   7.163   1.565 -0.3751  0.0150  0.1777
 4955SOL    HW115937   8.136   7.239   1.623  0.3772  0.2521 -0.0818
 4955SOL    HW215938   8.054   7.163   1.521 -1.6842 -1.1728  2.5101
 4956SOL     OW15939   6.370   3.038   5.931  0.1582 -0.2503  0.0851
 4956SOL    HW115940   6.336   2.965   5.983  0.2728  0.6093  1.4177
 4956SOL    HW215941   6.297   3.065   5.876 -0.9677  0.7468  1.9912
 4957SOL     OW15942   5.631   3.585   5.168 -0.5681  0.6247  0.1552
 4957SOL    HW115943   5.616   3.648   5.239 -0.7799 -0.8890  1.5420
 4957SOL    HW215944   5.656   3.504   5.214 -1.4894 -0.6337 -1.4559
 4958SOL     OW15945   6.873   0.214   0.942  0.2091 -0.2961  0.2213
 4958SOL    HW115946   6.853   0.285   1.003 -0.4056  0.9166 -1.3240
 4958SOL    HW215947   6.820   0.233   0.864 -0.2392 -2.6427 -0.1459
 4959SOL     OW15948   3.280   3.678   2.385 -0.3869 -0.2213  0.2798
 4959SOL    HW115949   3.364   3.633   2.377 -0.4860 -0.3959  0.2036
 4959SOL    HW215950   3.280   3.713   2.474  0.1642  0.6004 -0.0366
 4960SOL     OW15951   2.451   4.077   3.375 -0.2657  0.1996 -0.0982
 4960SOL    HW115952   2.358   4.096   3.382 -0.5031 -1.1444  0.8386
 4960SOL    HW215953   2.465   4.002   3.432  1.2369 -0.1736 -0.8790
 4961SOL     OW15954   1.699   4.320   5.334  0.1351 -0.0520  0.1196
 4961SOL    HW115955   1.656   4.234   5.330  0.9783 -0.4632 -0.2025
 4961SOL    HW215956   1.627   4.382   5.345 -0.4085 -0.9019  1.6690
 4962SOL     OW15957   4.510   2.548   1.538  0.2616  0.5344 -0.1174
 4962SOL    HW115958   4.458   2.472   1.562 -0.1912  0.5354 -1.0508
 4962SOL    HW215959   4.549   2.578   1.620 -0.1780 -0.2360  0.3785
 4963SOL     OW15960   5.955   7.069   1.940  0.1201  0.0337 -0.1528
 4963SOL    HW115961   6.038   7.074   1.987  1.0585  0.6517 -1.7989
 4963SOL    HW215962   5.935   6.975   1.938  1.1016 -0.1867 -0.2502
 4964SOL     OW15963   1.163   0.701   7.100 -0.0729  0.5182  0.3686
 4964SOL    HW115964   1.191   0.774   7.155  0.6531 -0.0713  0.7947
 4964SOL    HW215965   1.244   0.668   7.061 -0.2793 -0.5972  0.8544
 4965SOL     OW15966   3.747   4.014   4.263  0.4647  0.6515  0.0507
 4965SOL    HW115967   3.651   4.013   4.256  0.3204 -0.0521  1.8563
 4965SOL    HW215968   3.774   4.081   4.200 -1.1445  0.2882 -1.0873
 4966SOL     OW15969   0.543   0.085   1.055  0.5302  0.2978  0.2425
 4966SOL    HW115970   0.567   0.061   0.966  1.3429 -2.6298  1.1322
 4966SOL    HW215971   0.610   0.148   1.081  0.9733  0.2981 -0.8355
 4967SOL     OW15972   0.757   3.643   1.320 -0.0245 -0.0460 -0.2211
 4967SOL    HW115973   0.814   3.694   1.377 -2.2880  2.1329  0.3156
 4967SOL    HW215974   0.814   3.579   1.278  2.4004  0.7715  1.6181
 4968SOL     OW15975   3.797   2.832   7.383 -0.4331 -0.1093  0.6025
 4968SOL    HW115976   3.802   2.813   7.477  1.3399 -0.9285  0.3790
 4968SOL    HW215977   3.853   2.910   7.372  0.8849 -1.1052 -0.0086
 4969SOL     OW15978   0.077   1.953   0.366  0.1959  0.5789 -0.4778
 4969SOL    HW115979  -0.014   1.953   0.337 -0.2317 -0.1037  0.7821
 4969SOL    HW215980   0.088   1.869   0.410  1.5481  0.4977 -0.9108
 4970SOL     OW15981   5.694   2.780   5.241  0.2131 -0.2635 -0.6203
 4970SOL    HW115982   5.750   2.856   5.256  0.4261 -0.4454 -0.4993
 4970SOL    HW215983   5.614   2.817   5.202 -1.0610  0.4650  2.3605
 4971SOL     OW15984   3.730   5.615   4.957 -0.2078 -0.4574 -0.0977
 4971SOL    HW115985   3.644   5.581   4.933 -0.6455 -0.4069  1.3237
 4971SOL    HW215986   3.787   5.538   4.956 -0.3560 -0.5670 -0.6153
 4972SOL     OW15987   3.794   7.006   6.010 -0.4148  0.0011 -0.2686
 4972SOL    HW115988   3.746   6.953   6.074  2.9520 -2.1060  0.8141
 4972SOL    HW215989   3.821   7.084   6.059 -2.0532  0.8863 -0.7037
 4973SOL     OW15990   5.894   2.213   0.169 -0.3604 -0.2639  0.0714
 4973SOL    HW115991   5.967   2.246   0.221  0.3351 -0.1187 -0.9481
 4973SOL    HW215992   5.816   2.234   0.220  0.2409  0.5723  0.6760
 4974SOL     OW15993   6.579   4.230   6.806  0.1024  0.4998 -0.1483
 4974SOL    HW115994   6.605   4.192   6.722  1.4466  2.2189 -0.5714
 4974SOL    HW215995   6.637   4.189   6.870 -0.1250  0.0463 -0.2306
 4975SOL     OW15996   6.859   1.783   6.844  0.1182  0.2543 -0.1024
 4975SOL    HW115997   6.809   1.800   6.924 -0.9834  1.3381 -0.9869
 4975SOL    HW215998   6.950   1.787   6.871 -0.2452 -0.0220  1.2191
 4976SOL     OW15999   4.897   1.443   4.300 -0.0244 -0.1499 -0.2911
 4976SOL    HW116000   4.976   1.497   4.305  0.0331 -0.2535 -0.0972
 4976SOL    HW216001   4.832   1.500   4.258 -0.5037  0.6907  1.5169
 4977SOL     OW16002   7.470   4.770   0.904 -0.0875  0.4360 -0.3833
 4977SOL    HW116003   7.503   4.859   0.892 -2.5870  1.3697 -1.0614
 4977SOL    HW216004   7.384   4.771   0.862 -0.4201 -2.1629  0.0762
 4978SOL     OW16005   5.503   3.199   2.750 -0.5449  0.4041  0.2704
 4978SOL    HW116006   5.429   3.156   2.792 -0.1423 -0.4867  0.0781
 4978SOL    HW216007   5.483   3.293   2.757 -0.6386  0.2896  2.1962
 4979SOL     OW16008   0.904   5.328   1.208 -0.3243 -0.4218  0.0998
 4979SOL    HW116009   0.852   5.408   1.214 -0.1065 -0.3026  0.4618
 4979SOL    HW216010   0.879   5.277   1.285  0.3635 -0.1923  0.4856
 4980SOL     OW16011   1.539   5.342   3.199 -0.3567  0.4195  0.2995
 4980SOL    HW116012   1.553   5.286   3.122  0.8109 -0.3338  1.0298
 4980SOL    HW216013   1.579   5.426   3.176 -0.7643  0.4747 -0.2251
 4981SOL     OW16014   4.646   3.372   2.371 -0.4471  0.4355 -0.0434
 4981SOL    HW116015   4.620   3.411   2.454 -1.2096  3.4712 -1.5584
 4981SOL    HW216016   4.683   3.286   2.395  2.2274  2.3478  3.7267
 4982SOL     OW16017   1.182   5.773   2.593  0.0096  0.7400  0.0744
 4982SOL    HW116018   1.132   5.820   2.527  3.4241  2.6255 -1.4350
 4982SOL    HW216019   1.201   5.688   2.553 -2.5097 -0.3898  1.0412
 4983SOL     OW16020   7.942   7.378   2.600 -0.3393 -0.1065  0.1712
 4983SOL    HW116021   7.929   7.453   2.541  0.6768  0.0379  0.1154
 4983SOL    HW216022   7.884   7.396   2.674 -1.7233 -0.3458 -0.8211
 4984SOL     OW16023   3.682   6.649   6.089 -0.2937  0.7179  0.2147
 4984SOL    HW116024   3.610   6.635   6.028 -0.5739 -0.1791  0.7366
 4984SOL    HW216025   3.760   6.656   6.034 -0.7793  1.7976 -0.3611
 4985SOL     OW16026   7.019   5.807   1.487 -0.2533 -0.3216 -0.2330
 4985SOL    HW116027   6.997   5.852   1.568  1.1880 -0.2813  0.1577
 4985SOL    HW216028   6.972   5.723   1.492 -1.2848  0.2464 -0.0271
 4986SOL     OW16029   6.759   7.636   2.206 -0.2763 -0.2671  0.1171
 4986SOL    HW116030   6.800   7.699   2.266 -0.3198 -0.2800  0.1596
 4986SOL    HW216031   6.682   7.682   2.172  0.1158 -0.0074 -0.4385
 4987SOL     OW16032   5.961   6.798   2.025 -0.2392 -0.0808  0.2888
 4987SOL    HW116033   5.889   6.745   1.990 -0.9986  1.2677 -0.2832
 4987SOL    HW216034   5.996   6.746   2.097 -0.8116 -1.4334 -0.3722
 4988SOL     OW16035   6.394   6.080   3.688 -0.3861 -0.0575  0.2180
 4988SOL    HW116036   6.462   6.030   3.732  1.5218  1.8509 -0.3854
 4988SOL    HW216037   6.393   6.046   3.599  1.3498  1.2748 -0.3698
 4989SOL     OW16038   4.022   5.592   1.193  0.0494  0.4336  0.2058
 4989SOL    HW116039   3.985   5.581   1.105 -0.4819  1.4368  0.2860
 4989SOL    HW216040   4.091   5.526   1.198  2.5530  2.5717 -2.3206
 4990SOL     OW16041   7.260   5.541   3.041 -0.2082 -0.4001 -0.1092
 4990SOL    HW116042   7.302   5.549   2.956  0.7567 -0.1822  0.3742
 4990SOL    HW216043   7.185   5.484   3.026  0.3677 -0.9421 -0.9595
 4991SOL     OW16044   3.605   3.273   0.263 -0.5037  0.2029 -0.3252
 4991SOL    HW116045   3.525   3.304   0.219 -0.5571  1.7572  0.7987
 4991SOL    HW216046   3.574   3.239   0.347 -0.0304  0.4320 -0.0553
 4992SOL     OW16047   2.870   3.698   4.353 -0.1269  0.0051 -0.6407
 4992SOL    HW116048   2.779   3.708   4.326 -0.0350  2.8482 -0.1933
 4992SOL    HW216049   2.921   3.740   4.284  0.5360  1.7737  0.8551
 4993SOL     OW16050   1.022   7.180   7.964 -0.1122 -0.8876  0.1764
 4993SOL    HW116051   0.960   7.110   7.986 -0.2539 -0.8463 -0.0920
 4993SOL    HW216052   0.967   7.251   7.932  0.0920 -0.9526 -0.3278
 4994SOL     OW16053   0.267   0.233   3.366  0.2413 -0.9805 -0.7185
 4994SOL    HW116054   0.248   0.224   3.272 -0.8188 -1.0590 -0.5104
 4994SOL    HW216055   0.262   0.144   3.400 -0.8680 -0.7807 -0.3306
 4995SOL     OW16056   1.677   1.339   6.659  0.0690 -0.2790  0.3003
 4995SOL    HW116057   1.750   1.304   6.710 -2.2684 -0.2488  3.9645
 4995SOL    HW216058   1.621   1.263   6.642 -1.0817  0.3402  1.2360
 4996SOL     OW16059   6.921   1.619   4.287 -0.1088 -0.2310  0.1912
 4996SOL    HW116060   6.930   1.691   4.349  0.0702  0.1536 -0.2767
 4996SOL    HW216061   6.970   1.547   4.327 -0.2793 -0.0877  0.6548
 4997SOL     OW16062   6.620   7.693   4.365 -0.2120  0.0234 -0.1712
 4997SOL    HW116063   6.683   7.663   4.430  0.0791 -0.1855 -0.5499
 4997SOL    HW216064   6.649   7.781   4.341  0.2544 -0.2735 -0.7374
 4998SOL     OW16065   2.432   5.030   6.226 -0.2397 -0.2452  0.2596
 4998SOL    HW116066   2.340   5.043   6.251  0.3318  1.3357  1.6842
 4998SOL    HW216067   2.461   4.955   6.277 -0.2200  0.4666  1.3219
 4999SOL     OW16068   4.132   3.590   7.777 -0.6680 -0.1209 -0.4149
 4999SOL    HW116069   4.102   3.550   7.696 -1.8269 -1.6210  0.7027
 4999SOL    HW216070   4.069   3.659   7.795  0.5250  1.3678 -1.5888
 5000SOL     OW16071   6.196   5.878   5.215 -0.8402 -0.0432  0.3085
 5000SOL    HW116072   6.138   5.930   5.271  0.7319 -0.6986  2.6716
 5000SOL    HW216073   6.163   5.789   5.224  0.4894 -0.4345  1.7369
 5001SOL     OW16074   4.575   0.442   1.702  0.0898 -0.1655 -0.1169
 5001SOL    HW116075   4.501   0.402   1.656  0.3696  0.1119 -0.8258
 5001SOL    HW216076   4.577   0.532   1.669  0.5897 -0.0998  0.0918
 5002SOL     OW16077   5.986   5.968   4.550 -0.3194  0.3567 -0.0947
 5002SOL    HW116078   6.073   5.979   4.588 -0.6227  2.0009  0.1782
 5002SOL    HW216079   5.960   6.055   4.521 -0.8766 -0.5118 -2.4584
 5003SOL     OW16080   7.524   2.782   3.183 -0.1345  0.0921 -0.5807
 5003SOL    HW116081   7.497   2.862   3.228  0.9602  0.2579 -0.1954
 5003SOL    HW216082   7.507   2.799   3.090  0.1170  0.7749 -0.5054
 5004SOL     OW16083   5.509   4.944   6.326  0.2525  0.3818  0.2796
 5004SOL    HW116084   5.528   4.985   6.242  1.9074 -0.9941 -0.0827
 5004SOL    HW216085   5.594   4.940   6.370 -0.4501  0.3926  1.7051
 5005SOL     OW16086   4.583   7.448   0.069 -0.4503  0.1238 -0.8136
 5005SOL    HW116087   4.509   7.457   0.009  1.7614  0.2643 -3.7433
 5005SOL    HW216088   4.640   7.522   0.049  1.2156 -0.7947  0.2529
 5006SOL     OW16089   2.056   1.517   6.001 -0.1638 -0.1359  0.4999
 5006SOL    HW116090   2.034   1.438   6.049 -0.8567  0.3193  0.9503
 5006SOL    HW216091   2.082   1.487   5.915  0.1076 -0.8914  0.8406
 5007SOL     OW16092   4.249   2.535   7.345 -0.8922  0.1653  0.2860
 5007SOL    HW116093   4.184   2.475   7.308 -0.0879 -0.0765 -0.8080
 5007SOL    HW216094   4.280   2.490   7.424  1.2094 -2.0136 -1.5750
 5008SOL     OW16095   6.452   0.594   4.229 -0.5283 -0.1128 -0.1557
 5008SOL    HW116096   6.461   0.597   4.324  0.7935  1.7765 -0.2799
 5008SOL    HW216097   6.502   0.517   4.202  0.4377  0.2424  0.5793
 5009SOL     OW16098   1.070   2.696   1.884  0.1229 -0.2686  0.3763
 5009SOL    HW116099   1.028   2.778   1.859 -0.3040 -0.3399  0.8286
 5009SOL    HW216100   1.150   2.723   1.929 -0.5526 -0.0450  1.5004
 5010SOL     OW16101   5.139   4.671   3.356  0.3505  0.1307  0.3647
 5010SOL    HW116102   5.228   4.642   3.376 -0.5376 -2.8865  0.3774
 5010SOL    HW216103   5.132   4.663   3.261 -0.2165 -0.7005  0.4674
 5011SOL     OW16104   3.297   0.270   5.666 -0.2293 -0.2891 -0.2829
 5011SOL    HW116105   3.233   0.208   5.701 -0.8092  0.0285 -0.7552
 5011SOL    HW216106   3.254   0.308   5.589  0.0891  0.7360  0.0287
 5012SOL     OW16107   7.737   6.574   3.406  0.2198 -0.6526  0.2662
 5012SOL    HW116108   7.758   6.506   3.341  1.0139 -0.6615  0.5169
 5012SOL    HW216109   7.821   6.616   3.423 -0.2636  0.3813  0.1410
 5013SOL     OW16110   7.582   1.185   1.063 -0.1369  0.1811 -0.3005
 5013SOL    HW116111   7.572   1.275   1.032 -2.3158 -0.4787 -1.7945
 5013SOL    HW216112   7.621   1.139   0.989  3.1015  0.2291  1.2231
 5014SOL     OW16113   4.980   1.807   4.698  0.4087  0.1864  0.0639
 5014SOL    HW116114   4.971   1.736   4.761 -0.7852  1.1009  0.9645
 5014SOL    HW216115   4.951   1.885   4.745  0.2545  1.0281 -1.3655
 5015SOL     OW16116   4.856   6.993   0.049 -0.1867  0.1508  0.1432
 5015SOL    HW116117   4.790   7.056   0.019 -1.2885 -0.3400  1.4740
 5015SOL    HW216118   4.912   7.044   0.108 -0.5872  0.0899  0.5797
 5016SOL     OW16119   4.853   0.769   2.735 -0.3287 -0.3764  0.3448
 5016SOL    HW116120   4.911   0.828   2.781  0.3288 -0.3881 -0.4487
 5016SOL    HW216121   4.899   0.747   2.654 -1.0249 -1.1261  0.1295
 5017SOL     OW16122   6.924   0.899   7.896 -0.4193 -0.1584 -0.2451
 5017SOL    HW116123   6.934   0.974   7.955 -0.7662  0.1015 -0.5053
 5017SOL    HW216124   6.916   0.823   7.953 -3.0713  0.3355  0.1714
 5018SOL     OW16125   6.268   4.890   1.822 -0.1070  0.4882  0.4870
 5018SOL    HW116126   6.231   4.950   1.887  1.1163  2.2900 -0.3912
 5018SOL    HW216127   6.237   4.925   1.738 -0.8634 -1.2238  0.0018
 5019SOL     OW16128   4.259   4.718   3.578 -0.3454 -0.1211  0.2745
 5019SOL    HW116129   4.279   4.806   3.611 -3.4030  0.6611  0.3863
 5019SOL    HW216130   4.263   4.727   3.483  0.5569 -0.2027  0.3014
 5020SOL     OW16131   7.608   5.557   3.983 -0.0752  0.1339 -0.0167
 5020SOL    HW116132   7.551   5.529   3.911  0.5563 -0.1570 -0.4086
 5020SOL    HW216133   7.681   5.601   3.940 -0.3952  1.2520  0.5204
 5021SOL     OW16134   7.080   6.206   0.135  0.2794  0.3298  0.4012
 5021SOL    HW116135   7.087   6.157   0.053  1.3762 -0.2776  0.8285
 5021SOL    HW216136   7.160   6.258   0.139  0.5041 -0.0578  1.3346
 5022SOL     OW16137   7.381   5.616   2.808  0.4744  0.5349  0.1642
 5022SOL    HW116138   7.337   5.699   2.789  0.2780  0.5299  0.5711
 5022SOL    HW216139   7.436   5.599   2.732 -0.0115  0.6879 -0.2183
 5023SOL     OW16140   6.210   1.685   1.506  0.2977  0.1064 -0.0488
 5023SOL    HW116141   6.251   1.615   1.557 -1.0470 -0.1366  0.7427
 5023SOL    HW216142   6.137   1.715   1.560  1.1141  2.4885 -0.1216
 5024SOL     OW16143   5.482   7.417   2.627  0.0936 -0.1990  0.1425
 5024SOL    HW116144   5.481   7.486   2.561  1.8678 -1.4692 -1.3173
 5024SOL    HW216145   5.574   7.389   2.631 -0.2135 -1.0970  2.1753
 5025SOL     OW16146   8.101   0.425   7.388  0.0494  0.6340  1.1141
 5025SOL    HW116147   8.043   0.351   7.374 -1.1875  1.8407 -0.6655
 5025SOL    HW216148   8.057   0.478   7.454  0.1590  0.5398  1.2628
 5026SOL     OW16149   3.980   6.814   3.112 -0.1667 -0.0276 -0.5654
 5026SOL    HW116150   3.936   6.750   3.056  0.1298 -0.4594 -0.3105
 5026SOL    HW216151   4.059   6.838   3.065  0.8935 -1.5699  0.3440
 5027SOL     OW16152   5.519   4.687   6.038 -0.0801  0.0452 -0.1880
 5027SOL    HW116153   5.495   4.739   5.962  0.4270 -0.9863 -1.0749
 5027SOL    HW216154   5.592   4.632   6.009 -1.4644 -2.1813  0.2508
 5028SOL     OW16155   7.203   5.707   7.827  0.1422  0.0863  0.1660
 5028SOL    HW116156   7.280   5.685   7.879  0.4447 -1.3935 -0.8621
 5028SOL    HW216157   7.214   5.800   7.806  0.6800  0.3749  1.5766
 5029SOL     OW16158   8.047   6.385   8.005 -0.5153 -0.3230  0.1430
 5029SOL    HW116159   8.059   6.457   7.943  1.1176 -0.5642  0.1302
 5029SOL    HW216160   7.959   6.353   7.987 -1.5735  2.0722  0.5975
 5030SOL     OW16161   5.354   3.595   7.329 -0.6980 -0.1252 -0.7319
 5030SOL    HW116162   5.340   3.649   7.251  0.4920 -1.5252 -2.0036
 5030SOL    HW216163   5.381   3.510   7.293  1.3001 -0.4120  1.2275
 5031SOL     OW16164   1.774   3.383   4.494  0.0533  0.2848 -0.5122
 5031SOL    HW116165   1.863   3.372   4.460  0.7183  0.5238  1.0455
 5031SOL    HW216166   1.732   3.298   4.480  1.2894 -0.5875  0.7543
 5032SOL     OW16167   0.842   0.734   1.771  0.2571  0.3819  0.6616
 5032SOL    HW116168   0.883   0.648   1.787 -0.8153 -0.2361  0.1690
 5032SOL    HW216169   0.763   0.714   1.722 -0.1078  1.6552  0.7064
 5033SOL     OW16170   7.715   1.158   1.556 -0.4601 -0.1860  0.1689
 5033SOL    HW116171   7.681   1.069   1.552 -0.1535 -0.2932 -0.1385
 5033SOL    HW216172   7.787   1.159   1.492 -0.7504  0.4076 -0.1561
 5034SOL     OW16173   3.988   6.297   5.321  0.0025  0.0079  0.2558
 5034SOL    HW116174   4.060   6.258   5.272 -0.6441 -1.4937  0.4342
 5034SOL    HW216175   3.917   6.306   5.257 -0.8228 -1.9032  0.8168
 5035SOL     OW16176   2.433   5.315   7.197  0.2441 -0.1534  0.3453
 5035SOL    HW116177   2.365   5.277   7.141  0.6698  0.1444 -0.4007
 5035SOL    HW216178   2.406   5.406   7.208 -0.1673 -0.3673  1.1600
 5036SOL     OW16179   4.316   4.382   7.651  0.1924 -0.0530  0.1374
 5036SOL    HW116180   4.402   4.386   7.691 -0.0477  0.0058  0.6538
 5036SOL    HW216181   4.324   4.315   7.583  0.6914  0.0866  0.0584
 5037SOL     OW16182   4.919   3.496   3.584 -0.4491 -0.2045  0.2525
 5037SOL    HW116183   4.962   3.483   3.499  0.5332 -2.3354  1.0014
 5037SOL    HW216184   4.972   3.563   3.628  0.8006 -1.1643  0.2649
 5038SOL     OW16185   7.191   5.686   1.777  0.4092 -0.4999 -0.2569
 5038SOL    HW116186   7.164   5.643   1.696  1.4483 -2.2335  0.2692
 5038SOL    HW216187   7.284   5.663   1.787  0.1603 -0.8396  1.7132
 5039SOL     OW16188   1.271   6.379   0.045  0.4568 -0.0788 -0.7878
 5039SOL    HW116189   1.214   6.387  -0.031  0.8135 -0.1671 -1.0665
 5039SOL    HW216190   1.217   6.408   0.118  0.4655  1.0819 -1.2282
 5040SOL     OW16191   0.633   3.506   7.537 -0.0045  0.1322  0.0254
 5040SOL    HW116192   0.617   3.436   7.474 -0.8661  1.4645 -1.3195
 5040SOL    HW216193   0.576   3.485   7.612  1.3072 -1.6632  0.5661
 5041SOL     OW16194   6.182   0.577   4.327  0.3344  0.0559 -0.3989
 5041SOL    HW116195   6.167   0.633   4.403  2.0711 -0.8586  0.6746
 5041SOL    HW216196   6.262   0.611   4.286 -0.8323  0.8462 -2.1785
 5042SOL     OW16197   3.095   3.080   0.666 -0.0422 -0.2016 -0.0690
 5042SOL    HW116198   3.064   3.100   0.754  0.5667 -3.0357  0.8867
 5042SOL    HW216199   3.016   3.081   0.612 -0.4057  1.7019  0.4275
 5043SOL     OW16200   7.897   4.262   4.580  0.3992  0.3190 -0.5548
 5043SOL    HW116201   7.914   4.188   4.522 -2.3050 -0.0662 -0.9554
 5043SOL    HW216202   7.984   4.284   4.616  1.9646 -0.2502 -3.6630
 5044SOL     OW16203   6.082   0.152   6.816 -0.3867 -0.3384  0.5336
 5044SOL    HW116204   6.035   0.230   6.789  0.2924 -0.4078 -0.9867
 5044SOL    HW216205   6.017   0.082   6.813 -0.3072 -0.4073 -1.4090
 5045SOL     OW16206   4.672   5.506   1.894 -0.1759 -0.1141  0.2163
 5045SOL    HW116207   4.715   5.587   1.919  0.2367 -0.2302 -0.1051
 5045SOL    HW216208   4.732   5.464   1.832 -0.5294 -0.5088  0.1287
 5046SOL     OW16209   3.528   7.559   1.192 -0.6118 -0.1531  0.2831
 5046SOL    HW116210   3.528   7.551   1.097 -1.6377 -0.0987  0.2594
 5046SOL    HW216211   3.510   7.471   1.225 -0.6151 -0.1073  0.4083
 5047SOL     OW16212   0.405   3.496   6.485  0.2504  0.7897  0.1547
 5047SOL    HW116213   0.496   3.468   6.488 -0.1118 -0.4811 -0.2520
 5047SOL    HW216214   0.398   3.544   6.402 -0.1363 -1.7382 -1.3644
 5048SOL     OW16215   0.555   3.134   1.483 -0.5911  0.1877  0.7498
 5048SOL    HW116216   0.483   3.094   1.435 -0.2443 -0.3246  0.6476
 5048SOL    HW216217   0.628   3.074   1.471 -0.4304  0.1766  1.7152
 5049SOL     OW16218   6.132   2.148   2.978  0.2026  0.4485  0.0342
 5049SOL    HW116219   6.183   2.150   2.897  0.7339 -0.1794  0.3419
 5049SOL    HW216220   6.067   2.217   2.968 -0.2139 -0.0960 -1.2422
 5050SOL     OW16221   0.985   1.380   2.294  0.3221  0.0765  0.1484
 5050SOL    HW116222   1.012   1.305   2.242 -1.1325  0.0735 -0.6465
 5050SOL    HW216223   1.056   1.392   2.358  1.3119 -0.9878 -0.7120
 5051SOL     OW16224   2.823   1.397   5.047  0.5611  0.1538 -0.3307
 5051SOL    HW116225   2.894   1.406   4.984  1.5834  0.0005  0.7780
 5051SOL    HW216226   2.812   1.303   5.059  0.3485  0.1816 -0.2877
 5052SOL     OW16227   1.167   6.867   3.826 -0.1491 -0.3387  0.4950
 5052SOL    HW116228   1.179   6.937   3.763  0.7424 -1.1237 -0.2373
 5052SOL    HW216229   1.083   6.828   3.803 -0.3331  0.0608  0.4854
 5053SOL     OW16230   2.193   4.482   3.621 -0.3013  0.0559 -0.0705
 5053SOL    HW116231   2.134   4.467   3.694 -2.0626  1.3103 -1.1658
 5053SOL    HW216232   2.145   4.453   3.544 -0.0891  2.3269 -1.1537
 5054SOL     OW16233   4.243   2.672   0.566  0.4478 -0.4540 -0.4402
 5054SOL    HW116234   4.242   2.766   0.584 -1.7256 -0.0908 -2.1563
 5054SOL    HW216235   4.322   2.659   0.514  1.5581  0.1145  1.0190
 5055SOL     OW16236   3.200   7.186   5.365  0.0366 -0.0468 -0.1796
 5055SOL    HW116237   3.177   7.236   5.287 -1.3388 -1.7458 -0.9309
 5055SOL    HW216238   3.286   7.149   5.344 -0.5856 -0.9846 -1.1829
 5056SOL     OW16239   5.342   5.748   1.613  0.0138  0.0732  0.8007
 5056SOL    HW116240   5.378   5.676   1.561  1.1986  1.8379 -0.9545
 5056SOL    HW216241   5.420   5.793   1.647 -0.5669  2.0669 -0.3648
 5057SOL     OW16242   6.351   3.858   5.248  0.5219 -0.1564 -0.5316
 5057SOL    HW116243   6.434   3.904   5.246  0.9188 -0.6860  1.5535
 5057SOL    HW216244   6.286   3.924   5.225  1.3345  0.7030 -0.3984
 5058SOL     OW16245   5.538   0.741   1.163  0.5190 -0.5453  1.0485
 5058SOL    HW116246   5.561   0.792   1.085 -2.2055  0.2295  0.6391
 5058SOL    HW216247   5.573   0.792   1.236  1.8795 -0.5528  0.4370
 5059SOL     OW16248   4.428   6.213   3.162 -0.0685  0.1317  0.3259
 5059SOL    HW116249   4.471   6.201   3.078  0.1132 -0.8741  0.5563
 5059SOL    HW216250   4.497   6.197   3.227 -0.4906 -0.2781  0.6772
 5060SOL     OW16251   5.442   0.138   4.644 -0.3310 -0.3716  0.5649
 5060SOL    HW116252   5.390   0.216   4.624 -0.0993 -0.0669  1.1229
 5060SOL    HW216253   5.380   0.076   4.681 -1.3422 -1.9289 -3.2195
 5061SOL     OW16254   6.771   2.553   7.045 -0.7980  0.1572  0.0519
 5061SOL    HW116255   6.740   2.496   7.116  2.6708  0.6582  2.1982
 5061SOL    HW216256   6.829   2.497   6.994  2.5739  1.4543  2.1272
 5062SOL     OW16257   2.495   1.282   5.571 -0.3315 -1.0535  0.2933
 5062SOL    HW116258   2.541   1.366   5.571 -1.7327 -0.2366 -0.9275
 5062SOL    HW216259   2.562   1.218   5.545 -0.0697  0.2368 -2.5251
 5063SOL     OW16260   2.463   4.981   5.483  0.2898 -0.7111  0.1359
 5063SOL    HW116261   2.392   5.038   5.515  0.9705  1.2953 -1.6882
 5063SOL    HW216262   2.517   5.038   5.429  3.1569 -2.2539  1.1550
 5064SOL     OW16263   0.849   4.630   0.350 -0.3096 -0.5647 -0.2786
 5064SOL    HW116264   0.849   4.627   0.254  0.6407 -0.5630 -0.2904
 5064SOL    HW216265   0.838   4.723   0.370  1.3761 -0.3024 -0.4352
 5065SOL     OW16266   1.814   3.011   5.053  0.3243  0.0605  0.7132
 5065SOL    HW116267   1.749   3.063   5.005  0.3561 -0.1778  0.4074
 5065SOL    HW216268   1.829   3.060   5.134  0.4476  0.5949  0.3748
 5066SOL     OW16269   7.646   0.897   6.207  0.3671 -0.2578 -0.1679
 5066SOL    HW116270   7.646   0.820   6.263 -0.8706 -0.1278  0.0403
 5066SOL    HW216271   7.671   0.864   6.120 -0.8066 -1.0236 -0.2304
 5067SOL     OW16272   4.018   3.907   1.606 -0.3360 -0.4848  0.1143
 5067SOL    HW116273   3.978   3.830   1.567 -1.5181  0.9733 -1.7094
 5067SOL    HW216274   3.948   3.973   1.607  0.5953  0.5550  1.7274
 5068SOL     OW16275   6.005   1.256   5.823  0.1915  0.3903  0.8281
 5068SOL    HW116276   5.948   1.288   5.753 -1.7584 -1.1996  1.5858
 5068SOL    HW216277   5.970   1.170   5.844  1.7274  0.1667  2.6890
 5069SOL     OW16278   1.550   6.476   0.674 -0.1587  0.3507 -0.0630
 5069SOL    HW116279   1.486   6.545   0.657  1.3991  1.6814 -0.7796
 5069SOL    HW216280   1.498   6.403   0.708 -2.0628  1.3116 -0.7605
 5070SOL     OW16281   4.810   2.449   0.486 -0.1192 -0.2668 -0.1087
 5070SOL    HW116282   4.822   2.538   0.451 -0.8438  0.0851  0.4910
 5070SOL    HW216283   4.898   2.414   0.493  0.0963 -0.1333 -1.6906
 5071SOL     OW16284   7.666   1.852   5.248  0.3664  0.0914  0.4292
 5071SOL    HW116285   7.743   1.840   5.192  2.1552  0.8170  2.5902
 5071SOL    HW216286   7.627   1.764   5.252  1.3854 -0.4249 -0.2892
 5072SOL     OW16287   6.899   7.866   5.295  0.5555 -0.3315  0.0847
 5072SOL    HW116288   6.949   7.821   5.227  0.0176  0.3694 -0.8000
 5072SOL    HW216289   6.952   7.942   5.318  1.3093 -1.1945  1.3462
 5073SOL     OW16290   0.508   7.505   7.824  0.0165  0.3532  0.5974
 5073SOL    HW116291   0.480   7.579   7.770  0.1837  0.2645  0.3868
 5073SOL    HW216292   0.574   7.460   7.771 -1.8146 -1.3882 -0.3594
 5074SOL     OW16293   2.820   5.433   6.205  0.7747  0.0947  0.2078
 5074SOL    HW116294   2.790   5.365   6.145 -1.4405  0.5103  0.7681
 5074SOL    HW216295   2.888   5.480   6.156 -1.3490  0.8160 -2.2493
 5075SOL     OW16296   3.995   3.747   3.463 -0.4681 -0.1566 -0.3784
 5075SOL    HW116297   3.989   3.670   3.407 -1.9140  0.2545 -0.8350
 5075SOL    HW216298   4.089   3.758   3.478 -0.2237 -1.9181 -0.3982
 5076SOL     OW16299   5.870   0.309   7.095 -0.2539  0.0467  0.4570
 5076SOL    HW116300   5.897   0.312   7.004 -1.0993  0.5575  0.2126
 5076SOL    HW216301   5.936   0.361   7.142 -0.2933  0.4982  0.0135
 5077SOL     OW16302   7.466   3.168   4.848 -0.0943  0.5747 -0.4350
 5077SOL    HW116303   7.440   3.139   4.935  0.1830  0.2198 -0.4657
 5077SOL    HW216304   7.522   3.245   4.863 -0.9070  1.1596 -0.3563
 5078SOL     OW16305   1.405   0.058   4.952  0.2880 -0.3495 -0.6679
 5078SOL    HW116306   1.400   0.000   5.028 -1.8903  0.7272  0.0747
 5078SOL    HW216307   1.418   0.145   4.988 -1.4912  0.2818 -1.4528
 5079SOL     OW16308   7.602   5.009   4.709 -0.0046  0.0572 -0.1002
 5079SOL    HW116309   7.590   5.030   4.616  1.8591  0.3763 -0.3051
 5079SOL    HW216310   7.668   4.939   4.709 -1.0604 -0.9827  0.9362
 5080SOL     OW16311   5.461   2.038   7.140 -0.7858  0.4311 -0.0686
 5080SOL    HW116312   5.390   2.002   7.087  0.6739 -2.8841 -0.0366
 5080SOL    HW216313   5.540   2.000   7.102  0.4671 -0.9013  3.4909
 5081SOL     OW16314   2.706   5.104   2.619  0.2780 -0.0904  0.1616
 5081SOL    HW116315   2.703   5.199   2.603  0.9072  0.1032  1.0815
 5081SOL    HW216316   2.761   5.095   2.697  0.4069 -1.2363 -0.0439
 5082SOL     OW16317   4.938   4.245   3.348  0.3151 -0.1396  0.3056
 5082SOL    HW116318   4.929   4.330   3.391  0.2073 -0.2421  0.4851
 5082SOL    HW216319   4.968   4.186   3.416 -0.4685 -0.4436  0.3974
 5083SOL     OW16320   2.127   6.047   5.031  0.0263  0.3113  0.1673
 5083SOL    HW116321   2.059   6.087   4.977 -0.0479  0.9525  0.7213
 5083SOL    HW216322   2.114   6.085   5.118 -0.2693 -1.1876  0.8111
 5084SOL     OW16323   2.659   0.212   4.978  0.9201  0.0468  0.1958
 5084SOL    HW116324   2.703   0.147   5.034 -0.0139 -0.5356  0.2769
 5084SOL    HW216325   2.605   0.159   4.918  0.9385  0.7145 -0.4240
 5085SOL     OW16326   5.531   4.700   1.802  0.0131 -0.1811 -0.2431
 5085SOL    HW116327   5.584   4.736   1.731  2.1049  0.9122  1.7213
 5085SOL    HW216328   5.461   4.764   1.814  0.8297  0.6937 -0.0196
 5086SOL     OW16329   4.248   7.183   2.385 -0.5730  0.7465  0.4985
 5086SOL    HW116330   4.154   7.185   2.371 -0.2062  0.4211 -2.7560
 5086SOL    HW216331   4.260   7.120   2.456 -2.7370 -0.5188 -0.1588
 5087SOL     OW16332   1.742   0.907   3.250  0.0416  0.2713  0.6091
 5087SOL    HW116333   1.703   0.982   3.294 -2.3129  0.9804 -2.3212
 5087SOL    HW216334   1.673   0.840   3.250  0.0814  0.1553 -1.4622
 5088SOL     OW16335   6.601   3.749   3.812 -0.2405 -0.4857 -0.2129
 5088SOL    HW116336   6.689   3.713   3.802  0.0688  0.0672  0.4488
 5088SOL    HW216337   6.560   3.695   3.880 -0.0314 -0.0587  0.2556
 5089SOL     OW16338   2.672   1.461   1.909  0.7347 -0.6961  0.0637
 5089SOL    HW116339   2.760   1.497   1.900 -0.0072  1.7371  1.7994
 5089SOL    HW216340   2.653   1.424   1.822  2.9525 -0.1793 -0.7140
 5090SOL     OW16341   3.524   6.059   7.681 -0.0901  0.3772 -0.8213
 5090SOL    HW116342   3.442   6.108   7.671 -0.2965  0.3014  0.3425
 5090SOL    HW216343   3.529   6.039   7.774  0.5715 -0.8114 -1.0825
 5091SOL     OW16344   5.393   1.638   6.431  0.3575  0.1003 -0.0032
 5091SOL    HW116345   5.429   1.553   6.456  2.1358  1.0392  0.9100
 5091SOL    HW216346   5.441   1.663   6.352 -0.8444 -0.1479 -0.8295
 5092SOL     OW16347   4.685   0.543   4.735  0.0536 -0.8590 -0.3301
 5092SOL    HW116348   4.612   0.568   4.792 -2.1227 -1.2972 -2.7285
 5092SOL    HW216349   4.664   0.454   4.707  1.5148 -0.9994 -1.0879
 5093SOL     OW16350   5.218   6.243   5.244 -0.0684 -0.0646 -0.4270
 5093SOL    HW116351   5.123   6.252   5.239 -0.1130 -0.4583 -0.3313
 5093SOL    HW216352   5.251   6.333   5.242 -0.4636  0.0929  0.0510
 5094SOL     OW16353   4.441   0.423   1.942  0.4225 -0.1767  0.0674
 5094SOL    HW116354   4.407   0.508   1.971 -1.2408 -0.9691  0.5898
 5094SOL    HW216355   4.486   0.442   1.860  0.8369  1.3298  0.5962
 5095SOL     OW16356   1.779   5.106   5.248  0.3992 -0.1688 -0.7817
 5095SOL    HW116357   1.786   5.176   5.182  1.7457  1.5111  1.0084
 5095SOL    HW216358   1.870   5.081   5.266  0.1656  0.2383  1.2016
 5096SOL     OW16359   7.482   0.904   6.812 -0.6402 -0.7247 -0.0826
 5096SOL    HW116360   7.490   0.814   6.780 -1.5750 -0.5449 -0.8540
 5096SOL    HW216361   7.571   0.939   6.807  0.1271 -2.1541  1.9685
 5097SOL     OW16362   4.275   0.871   2.542 -0.3923  0.4137  0.2849
 5097SOL    HW116363   4.279   0.906   2.631  0.1291 -0.5453  0.6597
 5097SOL    HW216364   4.365   0.844   2.523 -0.6292 -0.0099 -0.2675
 5098SOL     OW16365   6.374   5.997   4.585  0.1115 -0.7606 -0.3619
 5098SOL    HW116366   6.386   6.019   4.678 -0.4648 -0.4185 -0.3648
 5098SOL    HW216367   6.301   6.052   4.557  1.0938  0.0685 -1.3503
 5099SOL     OW16368   4.748   2.501   3.079 -0.5022 -0.1198 -0.6001
 5099SOL    HW116369   4.826   2.515   3.133 -0.9189  0.0852 -0.0348
 5099SOL    HW216370   4.715   2.415   3.107  0.6757 -1.1803 -2.3207
 5100SOL     OW16371   4.817   8.112   1.561  0.2671  0.4020 -0.6700
 5100SOL    HW116372   4.895   8.152   1.600  1.2570 -0.9070 -1.2102
 5100SOL    HW216373   4.756   8.184   1.548  0.4199  1.1073  1.9811
 5101SOL     OW16374   2.610   2.976   7.631 -0.1854  0.1419 -0.6316
 5101SOL    HW116375   2.650   3.055   7.668 -0.1530 -0.7448  1.3273
 5101SOL    HW216376   2.681   2.912   7.630 -0.4475 -0.1453 -1.3386
 5102SOL     OW16377   3.574   3.785   2.508  0.3215 -0.0580  0.1242
 5102SOL    HW116378   3.624   3.738   2.441  0.7322  0.9831 -0.3217
 5102SOL    HW216379   3.595   3.877   2.493 -1.3647  0.3702  0.2386
 5103SOL     OW16380   2.284   2.995   3.453 -0.0563 -0.2014 -0.0356
 5103SOL    HW116381   2.350   3.064   3.462 -0.4383  0.1703 -0.1053
 5103SOL    HW216382   2.335   2.918   3.428 -0.0026  1.0264 -4.5882
 5104SOL     OW16383   3.895   4.030   3.368 -0.7210 -0.3875 -0.6431
 5104SOL    HW116384   3.888   3.999   3.278  0.0225 -1.2160 -0.4338
 5104SOL    HW216385   3.973   4.086   3.367 -0.6600 -0.4692 -0.5077
 5105SOL     OW16386   5.671   0.776   0.874 -0.4448  0.1770 -0.2349
 5105SOL    HW116387   5.737   0.745   0.811  0.8865  1.5602  0.3941
 5105SOL    HW216388   5.587   0.757   0.833  0.3743  0.9669 -2.4192
 5106SOL     OW16389   4.768   4.395   4.941  0.2216  0.3117 -0.0889
 5106SOL    HW116390   4.800   4.349   5.018 -0.3992  0.9004  0.5260
 5106SOL    HW216391   4.689   4.348   4.915  0.2296  0.3363 -0.1599
 5107SOL     OW16392   1.330   6.365   0.425  0.2681 -0.5679 -0.0297
 5107SOL    HW116393   1.410   6.414   0.405 -1.4331  1.1793 -3.3709
 5107SOL    HW216394   1.341   6.281   0.380  0.8019 -1.0108  0.8800
 5108SOL     OW16395   7.735   4.425   5.770  0.2414 -0.0615 -0.2061
 5108SOL    HW116396   7.824   4.454   5.753  0.4340 -0.9499 -0.7416
 5108SOL    HW216397   7.740   4.330   5.771 -0.7664 -0.1329 -0.6172
 5109SOL     OW16398   7.047   3.196   4.806 -0.3414  0.4107  0.0882
 5109SOL    HW116399   6.964   3.220   4.765 -0.9611 -0.5313  0.7512
 5109SOL    HW216400   7.025   3.124   4.865  1.0000 -0.0558  0.0607
 5110SOL     OW16401   5.573   5.890   4.108 -0.0532  0.1278  0.3626
 5110SOL    HW116402   5.576   5.815   4.050  0.5709 -0.4175  1.0775
 5110SOL    HW216403   5.485   5.925   4.097 -0.3777 -0.7484  0.0701
 5111SOL     OW16404   4.706   5.632   0.887  0.5996 -0.5228  0.0357
 5111SOL    HW116405   4.731   5.600   0.974  0.9675  0.5314  0.3253
 5111SOL    HW216406   4.662   5.557   0.846 -0.4417 -0.7396  1.4779
 5112SOL     OW16407   5.342   1.717   5.977  0.1451  0.1093  0.3185
 5112SOL    HW116408   5.334   1.752   5.888  0.4515  1.3236  0.7547
 5112SOL    HW216409   5.291   1.635   5.975 -0.1975  0.3298 -0.8509
 5113SOL     OW16410   5.155   3.459   3.422 -0.9054 -0.0273 -0.0470
 5113SOL    HW116411   5.200   3.416   3.349 -0.0203 -1.3850  1.2415
 5113SOL    HW216412   5.225   3.503   3.471 -1.3157 -0.0713  0.5986
 5114SOL     OW16413   5.327   5.939   7.569  0.5446 -0.6659  0.0380
 5114SOL    HW116414   5.376   5.964   7.647 -1.0913  0.5635  0.7404
 5114SOL    HW216415   5.367   5.989   7.498  0.4046  0.2362  0.5773
 5115SOL     OW16416   4.104   7.368   2.169 -0.2513  0.8329 -0.2524
 5115SOL    HW116417   4.019   7.405   2.193 -0.7888  0.8861 -2.0612
 5115SOL    HW216418   4.145   7.435   2.114  1.3395  1.1406  1.2405
 5116SOL     OW16419   1.827   6.850   3.914 -0.0837 -0.8548  0.3625
 5116SOL    HW116420   1.790   6.762   3.906 -0.4480 -0.6424 -0.4314
 5116SOL    HW216421   1.912   6.845   3.869 -0.1446 -0.7853  0.2369
 5117SOL     OW16422   3.558   6.030   1.785 -0.2484 -0.5531 -0.1917
 5117SOL    HW116423   3.618   6.101   1.804  0.0169 -0.7333 -0.3459
 5117SOL    HW216424   3.485   6.071   1.739 -1.5907  0.1338  2.3642
 5118SOL     OW16425   4.423   0.677   2.035  0.1297  0.3934 -0.4051
 5118SOL    HW116426   4.360   0.669   2.107 -0.0224 -0.5271 -0.6298
 5118SOL    HW216427   4.442   0.770   2.031 -0.2121  0.5193  0.5323
 5119SOL     OW16428   1.885   1.975   0.273 -0.1103  0.0969  0.3254
 5119SOL    HW116429   1.954   1.923   0.314  1.4311  1.6290 -0.2178
 5119SOL    HW216430   1.892   1.956   0.180  0.1862  0.9152  0.1697
 5120SOL     OW16431   4.725   0.082   7.393  0.1235 -0.4641 -0.2003
 5120SOL    HW116432   4.764   0.016   7.336  1.6815  0.2710 -0.0387
 5120SOL    HW216433   4.721   0.161   7.340  1.7319  0.2686  0.6990
 5121SOL     OW16434   0.120   2.935   4.434 -0.4197 -0.0008 -0.1763
 5121SOL    HW116435   0.156   2.902   4.352  0.9021 -0.6995  0.6536
 5121SOL    HW216436   0.171   3.013   4.454  2.6114 -2.3155  2.2539
 5122SOL     OW16437   2.188   2.116   6.869  0.2537 -0.6191 -0.7008
 5122SOL    HW116438   2.135   2.195   6.880 -0.7119 -1.0718 -1.8745
 5122SOL    HW216439   2.271   2.137   6.911 -0.2901  0.7071 -0.2397
 5123SOL     OW16440   3.376   5.937   3.255  0.4040  0.0693 -0.9051
 5123SOL    HW116441   3.372   6.006   3.322  1.9044 -3.0633  2.8086
 5123SOL    HW216442   3.307   5.876   3.279  1.4131 -1.4942 -1.7946
 5124SOL     OW16443   7.051   2.303   0.090  0.0781 -0.8928 -0.2454
 5124SOL    HW116444   7.055   2.394   0.121  1.1258 -0.5435 -1.3246
 5124SOL    HW216445   6.964   2.273   0.117  0.3182 -0.1108  1.5555
 5125SOL     OW16446   4.461   3.747   6.892 -0.7975  0.6468 -0.0823
 5125SOL    HW116447   4.395   3.815   6.908 -0.0347  0.9036  2.4689
 5125SOL    HW216448   4.470   3.702   6.976 -0.9293 -2.3748 -1.5439
 5126SOL     OW16449   0.402   4.654   4.183 -0.3190  0.4630 -0.5809
 5126SOL    HW116450   0.422   4.740   4.219 -1.3465  0.9180 -1.0497
 5126SOL    HW216451   0.485   4.606   4.186  0.2763  1.4880 -0.3741
 5127SOL     OW16452   6.152   7.120   7.167  0.4647 -0.4457  0.1072
 5127SOL    HW116453   6.196   7.066   7.233  0.0281 -1.6136 -0.5112
 5127SOL    HW216454   6.223   7.161   7.118  0.8450 -1.2325 -0.0220
 5128SOL     OW16455   2.871   7.383   6.419 -0.2971 -0.3683 -0.1867
 5128SOL    HW116456   2.893   7.343   6.504  0.3157  0.4930  0.0665
 5128SOL    HW216457   2.818   7.459   6.442  0.4877  0.2870 -0.5392
 5129SOL     OW16458   7.274   7.500   2.747  0.3458  0.1652  0.2609
 5129SOL    HW116459   7.359   7.538   2.727  0.3057 -0.0473 -0.3202
 5129SOL    HW216460   7.234   7.562   2.809  1.5574 -0.5344  1.8043
 5130SOL     OW16461   4.024   2.967   5.288 -0.0162 -0.4655  0.4440
 5130SOL    HW116462   3.938   2.945   5.323  0.2738 -2.9141 -0.1588
 5130SOL    HW216463   4.069   2.882   5.281  0.8799  0.1457 -3.3205
 5131SOL     OW16464   4.107   3.968   6.520 -0.8478 -0.3300  0.1190
 5131SOL    HW116465   4.094   3.953   6.614 -0.0144 -1.7527  0.0421
 5131SOL    HW216466   4.140   4.058   6.514 -0.1443 -0.4883  1.2719
 5132SOL     OW16467   6.908   3.136   0.288  0.0318  0.6654  0.5590
 5132SOL    HW116468   6.834   3.196   0.285  0.8514  1.6724 -0.5361
 5132SOL    HW216469   6.882   3.069   0.351 -1.7612  1.0415  0.2806
 5133SOL     OW16470   2.671   7.203   2.422  0.0668 -0.0147 -0.2157
 5133SOL    HW116471   2.720   7.199   2.504  0.8911  1.4729 -0.6127
 5133SOL    HW216472   2.738   7.210   2.354 -0.6534  1.0463 -0.8447
 5134SOL     OW16473   7.136   7.234   7.383 -0.2682 -0.1183 -0.1279
 5134SOL    HW116474   7.043   7.240   7.365 -0.4987  2.2694  1.4153
 5134SOL    HW216475   7.165   7.324   7.393  1.5874 -0.8436  2.2044
 5135SOL     OW16476   1.649   4.790   7.640  0.5854 -0.0786  0.0160
 5135SOL    HW116477   1.736   4.823   7.664 -0.2018  0.9010  1.7268
 5135SOL    HW216478   1.640   4.709   7.689  0.6743 -0.3722 -0.4532
 5136SOL     OW16479   3.981   1.319   6.851 -0.0127 -0.0413  0.5863
 5136SOL    HW116480   4.061   1.338   6.802 -0.3232 -1.2327 -0.4354
 5136SOL    HW216481   3.954   1.404   6.886  0.4396  0.7963 -0.9843
 5137SOL     OW16482   5.897   0.571   7.572  0.4039 -0.2413  0.1969
 5137SOL    HW116483   5.872   0.621   7.495 -0.0044 -0.3426  0.2618
 5137SOL    HW216484   5.815   0.550   7.616  0.7053  1.3162  1.6195
 5138SOL     OW16485   7.568   1.044   5.511 -0.4226 -0.3227 -1.0235
 5138SOL    HW116486   7.520   0.980   5.563 -0.3686 -1.3851 -2.2432
 5138SOL    HW216487   7.503   1.081   5.452 -0.0306 -0.8408 -1.7985
 5139SOL     OW16488   1.372   3.297   2.759  0.3416 -0.3038  0.3983
 5139SOL    HW116489   1.355   3.343   2.677  0.1666  0.8132  1.0322
 5139SOL    HW216490   1.287   3.261   2.785  0.0674  0.6416  0.8424
 5140SOL     OW16491   6.665   5.909   3.493 -0.0140 -0.0333 -0.5956
 5140SOL    HW116492   6.693   5.992   3.455  0.8269  0.0460  0.1711
 5140SOL    HW216493   6.569   5.913   3.490 -0.0308 -0.2909 -3.2279
 5141SOL     OW16494   0.280   0.234   7.240  0.2060 -0.2977  0.0676
 5141SOL    HW116495   0.336   0.200   7.310 -0.0284  0.0109  0.4077
 5141SOL    HW216496   0.309   0.325   7.229  1.0159 -0.6605 -1.0213
 5142SOL     OW16497   4.801   6.044   2.684  0.0462 -0.2797 -0.0113
 5142SOL    HW116498   4.785   6.124   2.733 -0.9419 -0.5525  0.1491
 5142SOL    HW216499   4.870   6.066   2.622 -1.1447  1.1008 -0.9101
 5143SOL     OW16500   7.732   1.259   4.161 -0.0663  0.1293  0.0080
 5143SOL    HW116501   7.704   1.285   4.249 -1.7922  1.3565 -0.8507
 5143SOL    HW216502   7.775   1.337   4.126  0.7135 -0.3902 -0.2077
 5144SOL     OW16503   6.951   0.280   3.070  0.2632 -0.2839 -0.5164
 5144SOL    HW116504   6.937   0.204   3.014 -3.4135  0.0445 -0.2484
 5144SOL    HW216505   6.952   0.245   3.159 -2.2101 -0.0845 -0.3334
 5145SOL     OW16506   6.022   8.147   6.000 -0.5653  0.1742 -0.0238
 5145SOL    HW116507   6.011   8.135   6.094  0.2168  2.0332  0.3559
 5145SOL    HW216508   5.945   8.106   5.961  0.1168 -2.4743  1.2339
 5146SOL     OW16509   5.053   4.209   3.836  0.5803  0.1248 -0.1528
 5146SOL    HW116510   5.068   4.182   3.926 -1.7810  1.2252  0.6395
 5146SOL    HW216511   5.120   4.276   3.820  2.6277 -1.8167 -0.1406
 5147SOL     OW16512   6.467   7.526   4.189 -0.4850 -0.4116  0.5732
 5147SOL    HW116513   6.422   7.563   4.113  0.3817 -0.4443  0.0344
 5147SOL    HW216514   6.520   7.598   4.223  0.6725 -0.9453 -0.0592
 5148SOL     OW16515   5.031   3.250   5.001  0.0126  0.1292 -0.4393
 5148SOL    HW116516   5.088   3.202   4.940  1.8807  1.1040  0.4398
 5148SOL    HW216517   5.067   3.230   5.088 -3.5298 -2.5339  0.6684
 5149SOL     OW16518   8.132   1.815   6.123  0.8620 -0.0741  0.1412
 5149SOL    HW116519   8.204   1.763   6.158  0.4387 -1.7742 -1.3740
 5149SOL    HW216520   8.163   1.845   6.037  0.7030  1.3781  0.5570
 5150SOL     OW16521   3.715   2.869   8.148 -0.0650  0.0820  0.3697
 5150SOL    HW116522   3.771   2.795   8.126 -1.3804 -0.2484 -2.2497
 5150SOL    HW216523   3.627   2.843   8.119 -1.1369  1.5622  2.0054
 5151SOL     OW16524   2.167   6.417   1.746 -0.4162 -0.3402 -0.0665
 5151SOL    HW116525   2.163   6.345   1.683  2.2911 -0.7207  0.0787
 5151SOL    HW216526   2.249   6.462   1.726 -0.7580  1.1198  1.5457
 5152SOL     OW16527   7.165   1.545   5.594 -0.2953 -0.0171  0.0840
 5152SOL    HW116528   7.239   1.494   5.630  0.1651 -0.8136 -1.8558
 5152SOL    HW216529   7.088   1.492   5.613  0.2474 -1.9167 -2.5028
 5153SOL     OW16530   8.129   5.803   4.212  0.3086  0.3594 -0.1616
 5153SOL    HW116531   8.095   5.788   4.124  1.7797 -0.3299 -0.6317
 5153SOL    HW216532   8.145   5.715   4.247  0.0200  0.6335  0.6935
 5154SOL     OW16533   0.002   6.508   7.393 -0.7639  0.1734  0.5009
 5154SOL    HW116534   0.082   6.560   7.394 -1.0705  0.9584 -2.9185
 5154SOL    HW216535  -0.062   6.561   7.440 -0.6078  2.1596 -1.4157
 5155SOL     OW16536   7.278   3.007   0.211 -0.0183 -0.1435  0.1288
 5155SOL    HW116537   7.320   3.020   0.296 -1.6432  1.7396  0.6965
 5155SOL    HW216538   7.330   3.060   0.150  0.0177  0.0330  0.3136
 5156SOL     OW16539   0.418   6.413   7.558  0.1555  0.4062 -0.2638
 5156SOL    HW116540   0.346   6.451   7.609  0.1777  0.7984 -0.5209
 5156SOL    HW216541   0.463   6.355   7.619  0.3871  1.1264  0.2667
 5157SOL     OW16542   6.416   4.601   4.970 -0.3546 -0.8143 -0.0386
 5157SOL    HW116543   6.443   4.686   5.006 -1.6537  0.3574 -1.6801
 5157SOL    HW216544   6.445   4.602   4.879  0.5663 -2.6250  0.1855
 5158SOL     OW16545   5.111   0.776   7.447  0.4701 -0.0432  0.3948
 5158SOL    HW116546   5.022   0.803   7.471  0.3179  0.0441 -0.2452
 5158SOL    HW216547   5.104   0.753   7.354  0.3958 -3.0767  1.0489
 5159SOL     OW16548   2.129   0.855   3.096 -0.5365 -0.2657  0.3800
 5159SOL    HW116549   2.106   0.897   3.013 -3.8684  0.9282  1.7299
 5159SOL    HW216550   2.118   0.761   3.078  0.4504 -0.1664 -0.9248
 5160SOL     OW16551   1.089   5.476   2.700 -0.1935 -0.4176  0.2221
 5160SOL    HW116552   1.079   5.436   2.786 -0.1909 -0.8108  0.0403
 5160SOL    HW216553   1.168   5.436   2.663 -1.5730 -2.1783 -1.0007
 5161SOL     OW16554   0.853   6.118   6.956 -0.0385 -0.5485  0.3358
 5161SOL    HW116555   0.842   6.043   6.898 -2.6538 -0.7635  0.9882
 5161SOL    HW216556   0.905   6.180   6.906  0.2420 -1.8818 -1.0922
 5162SOL     OW16557   3.096   7.788   8.107 -0.2807 -0.4742  0.1649
 5162SOL    HW116558   3.184   7.821   8.086  0.3040 -1.7785  0.4419
 5162SOL    HW216559   3.112   7.716   8.168 -1.6245 -0.0960  0.9825
 5163SOL     OW16560   0.739   5.717   1.941  0.4311 -0.4556  0.5633
 5163SOL    HW116561   0.705   5.718   2.030  0.8605 -1.3042  0.7436
 5163SOL    HW216562   0.773   5.628   1.929 -1.1482 -0.9012 -1.0172
 5164SOL     OW16563   7.607   4.007   6.078  0.2642 -0.2174 -0.5931
 5164SOL    HW116564   7.647   3.925   6.049 -0.1360 -1.2463  1.5542
 5164SOL    HW216565   7.514   3.988   6.083  0.4481 -0.9196  3.3367
 5165SOL     OW16566   0.748   4.218   2.140  0.2336  0.2483 -0.4967
 5165SOL    HW116567   0.799   4.191   2.063  0.5340 -0.6053 -0.0158
 5165SOL    HW216568   0.744   4.314   2.134  1.2943  0.2791 -0.9258
 5166SOL     OW16569   0.315   6.125   0.536 -0.1890 -0.1081 -0.1309
 5166SOL    HW116570   0.327   6.219   0.550 -0.1327 -0.2046  0.4864
 5166SOL    HW216571   0.304   6.116   0.442  1.5530  0.3397 -0.4174
 5167SOL     OW16572   2.484   2.222   5.336 -0.2440 -0.4112 -0.4266
 5167SOL    HW116573   2.528   2.292   5.385 -0.5820 -0.9610  0.7011
 5167SOL    HW216574   2.540   2.208   5.259  0.5176  0.2037 -0.0059
 5168SOL     OW16575   7.906   0.239   0.588 -0.2941  0.2387 -0.0880
 5168SOL    HW116576   7.973   0.215   0.524  1.1425  0.3454  1.3204
 5168SOL    HW216577   7.935   0.198   0.670  0.4146  3.7517  1.6057
 5169SOL     OW16578   1.080   5.477   7.625  0.3334  0.1495  0.1027
 5169SOL    HW116579   1.155   5.423   7.602  0.1954 -1.4979  3.0675
 5169SOL    HW216580   1.117   5.556   7.665  0.4725  1.1453 -1.8650
 5170SOL     OW16581   2.256   4.642   7.515  0.2034  0.1297 -0.5698
 5170SOL    HW116582   2.228   4.555   7.485  1.9285 -1.0035  0.8914
 5170SOL    HW216583   2.351   4.638   7.515  0.3154  1.1520  1.8190
 5171SOL     OW16584   2.114   5.750   5.522  0.3279 -0.3637 -0.2998
 5171SOL    HW116585   2.158   5.762   5.438 -0.1278 -1.3161 -0.6844
 5171SOL    HW216586   2.180   5.772   5.587  0.3924  1.3894 -0.9007
 5172SOL     OW16587   6.623   1.108   6.336 -0.0365 -0.5228  0.2020
 5172SOL    HW116588   6.708   1.102   6.292  0.4011 -0.6908  1.0679
 5172SOL    HW216589   6.563   1.061   6.277  0.0606  1.2117 -1.3670
 5173SOL     OW16590   6.282   5.465   8.028  0.1288  0.3810  0.1953
 5173SOL    HW116591   6.324   5.379   8.036 -1.5629 -0.8377 -2.5906
 5173SOL    HW216592   6.229   5.473   8.107 -0.7789 -1.8358 -0.1242
 5174SOL     OW16593   0.173   2.725   5.736 -1.0063 -0.3857 -0.5568
 5174SOL    HW116594   0.197   2.659   5.801  1.7169 -0.6220 -1.6596
 5174SOL    HW216595   0.082   2.704   5.713 -0.5988 -3.1124 -0.0869
 5175SOL     OW16596   1.147   6.614   7.052  0.3537  0.1288 -0.1419
 5175SOL    HW116597   1.164   6.544   6.988  1.5236  0.7541 -0.5433
 5175SOL    HW216598   1.154   6.695   7.001  0.6799  0.6102  0.6582
 5176SOL     OW16599   1.174   0.331   1.164  0.3835 -0.2553 -0.3281
 5176SOL    HW116600   1.157   0.238   1.149 -0.7750 -0.0709 -0.2757
 5176SOL    HW216601   1.139   0.375   1.087 -1.2014  0.3012  0.6488
 5177SOL     OW16602   0.823   2.769   1.354 -0.1110  0.8225  0.1413
 5177SOL    HW116603   0.843   2.856   1.319  2.3052  0.2143 -0.2038
 5177SOL    HW216604   0.818   2.712   1.276 -1.8436  0.6488  0.3479
 5178SOL     OW16605   5.939   0.430   6.372  0.4042  0.0181 -0.2146
 5178SOL    HW116606   5.949   0.342   6.408 -0.3159 -0.0930 -0.2794
 5178SOL    HW216607   5.925   0.486   6.449 -2.1376 -0.3566 -0.3197
 5179SOL     OW16608   2.183   4.677   2.022  0.1208 -0.6355 -0.5008
 5179SOL    HW116609   2.210   4.764   1.993 -1.4640  1.1225  2.7054
 5179SOL    HW216610   2.255   4.646   2.077 -0.4990  0.0385  0.7398
 5180SOL     OW16611   4.682   1.419   5.099  0.4666 -0.2834  0.1145
 5180SOL    HW116612   4.647   1.425   5.010  3.0646  0.4370 -0.9568
 5180SOL    HW216613   4.609   1.445   5.156 -1.1901 -0.5352 -1.8045
 5181SOL     OW16614   3.462   2.583   0.507 -0.2935 -0.2312  1.0633
 5181SOL    HW116615   3.506   2.500   0.491  1.5587  0.8874  0.0421
 5181SOL    HW216616   3.532   2.648   0.506 -2.0045  1.7890 -1.5512
 5182SOL     OW16617   1.836   3.796   4.562 -0.1371  0.0946 -0.1134
 5182SOL    HW116618   1.931   3.798   4.568 -0.1112 -0.9330  0.0210
 5182SOL    HW216619   1.817   3.733   4.493 -0.7225  0.0875  0.0454
 5183SOL     OW16620   4.357   3.586   6.729  0.0288  0.3377 -0.1017
 5183SOL    HW116621   4.382   3.655   6.790  0.0680  0.4825 -0.2784
 5183SOL    HW216622   4.438   3.536   6.715 -0.5694 -1.4145  2.1003
 5184SOL     OW16623   7.662   3.687   2.806  0.2951 -0.1896  0.5772
 5184SOL    HW116624   7.629   3.743   2.735 -1.0466  1.0585  2.1106
 5184SOL    HW216625   7.729   3.632   2.764  0.0116  0.9441 -1.4944
 5185SOL     OW16626   0.207   1.644   6.150 -0.2610  0.5071  0.3614
 5185SOL    HW116627   0.290   1.611   6.185 -0.8638 -1.3241  0.1655
 5185SOL    HW216628   0.229   1.677   6.063  0.5597  1.6369  0.9774
 5186SOL     OW16629   0.531   4.497   1.176  0.5975 -0.4615 -0.0221
 5186SOL    HW116630   0.563   4.445   1.250 -1.2603 -1.7691 -0.0530
 5186SOL    HW216631   0.467   4.440   1.133  0.7153  0.7436 -1.9115
 5187SOL     OW16632   3.714   6.717   4.634 -0.1373 -0.8560  0.0965
 5187SOL    HW116633   3.672   6.691   4.716 -0.0030 -0.4741  0.2892
 5187SOL    HW216634   3.648   6.700   4.566 -1.3153  1.4057  0.5728
 5188SOL     OW16635   6.809   1.950   4.925  0.1117  0.3745  0.0377
 5188SOL    HW116636   6.714   1.950   4.920  0.0743  2.1761  0.0681
 5188SOL    HW216637   6.831   2.032   4.969  1.6105 -1.1975  2.4413
 5189SOL     OW16638   1.321   1.724   6.679 -0.2900  0.0076  0.1023
 5189SOL    HW116639   1.349   1.800   6.730 -0.4638  0.9283 -1.1265
 5189SOL    HW216640   1.396   1.702   6.625 -0.0253 -1.1107  0.8790
 5190SOL     OW16641   7.829   3.396   0.668  0.0650  1.4203  0.3919
 5190SOL    HW116642   7.851   3.418   0.577  2.9208 -1.2357  0.2843
 5190SOL    HW216643   7.733   3.387   0.667  0.1155 -1.7028 -3.2928
 5191SOL     OW16644   4.253   6.371   5.637  0.5334  0.0793 -0.1768
 5191SOL    HW116645   4.305   6.340   5.563  1.2712 -0.1534  0.4308
 5191SOL    HW216646   4.176   6.411   5.597  0.2545 -1.2600 -1.0346
 5192SOL     OW16647   1.562   0.216   3.129 -0.4666 -0.6351  0.2855
 5192SOL    HW116648   1.585   0.276   3.059  0.1639 -2.8890 -1.5589
 5192SOL    HW216649   1.636   0.156   3.135 -1.5385 -1.9323  1.2269
 5193SOL     OW16650   7.046   6.895   1.284  0.2896 -0.2654 -0.2120
 5193SOL    HW116651   7.078   6.939   1.362  1.5537  0.8979 -1.3280
 5193SOL    HW216652   6.954   6.919   1.278  0.0875 -0.6655  1.0997
 5194SOL     OW16653   3.445   7.723   4.536  0.8170  0.3070  0.5663
 5194SOL    HW116654   3.526   7.677   4.558 -0.5194 -2.3579  0.2742
 5194SOL    HW216655   3.389   7.656   4.496 -0.3403  2.7890 -2.3539
 5195SOL     OW16656   8.107   2.594   0.978 -0.5159  0.0306 -0.1749
 5195SOL    HW116657   8.174   2.601   0.911  0.0545 -1.6144  0.1765
 5195SOL    HW216658   8.152   2.617   1.059 -0.8667  0.7375 -0.1757
 5196SOL     OW16659   4.202   3.858   5.467  0.2076  0.2074 -0.5011
 5196SOL    HW116660   4.133   3.838   5.530 -0.2826 -4.5283 -2.1349
 5196SOL    HW216661   4.279   3.875   5.520 -1.1793  1.1518  1.3326
 5197SOL     OW16662   5.836   5.895   2.527 -0.4162 -0.2993 -0.1739
 5197SOL    HW116663   5.815   5.984   2.498  2.2449  0.7399  0.8315
 5197SOL    HW216664   5.751   5.858   2.550 -1.8575  1.2124 -2.5660
 5198SOL     OW16665   2.971   1.223   7.280  0.2102  0.1201  0.6465
 5198SOL    HW116666   2.963   1.318   7.269  2.0494  0.1096 -1.5236
 5198SOL    HW216667   2.888   1.189   7.246  0.2680  0.8858 -0.3268
 5199SOL     OW16668   3.139   5.888   5.730  0.1946  0.1496 -0.2188
 5199SOL    HW116669   3.047   5.888   5.702 -0.5237 -2.0496  1.7996
 5199SOL    HW216670   3.185   5.843   5.659 -0.3096  1.0185 -1.1268
 5200SOL     OW16671   1.438   6.201   4.792 -0.1399  0.7423 -0.2622
 5200SOL    HW116672   1.355   6.160   4.766  1.0235 -2.2975  0.3167
 5200SOL    HW216673   1.412   6.277   4.845 -2.5473  0.0013 -0.2451
 5201SOL     OW16674   0.482   4.097   0.860 -0.1979 -0.3293 -0.4770
 5201SOL    HW116675   0.550   4.125   0.799  0.9124  0.5605  1.1054
 5201SOL    HW216676   0.461   4.007   0.832 -0.9098  0.5450 -3.1117
 5202SOL     OW16677   6.306   2.894   1.600  0.3764 -0.0687  0.3464
 5202SOL    HW116678   6.342   2.807   1.615  1.6696  0.5202  0.7702
 5202SOL    HW216679   6.301   2.901   1.504  2.5917  0.2795  0.2159
 5203SOL     OW16680   4.312   4.506   8.112  0.0110  0.0922 -0.3111
 5203SOL    HW116681   4.320   4.601   8.099  2.7261  0.4808  2.9960
 5203SOL    HW216682   4.249   4.497   8.184  0.4445 -0.5659 -0.0093
 5204SOL     OW16683   7.315   2.847   3.692  0.3012 -0.0822  0.3062
 5204SOL    HW116684   7.254   2.873   3.761  0.6813  0.7260  0.3458
 5204SOL    HW216685   7.299   2.908   3.620  1.9457  1.0039  0.8078
 5205SOL     OW16686   5.552   4.227   5.650  0.0778  0.8146  0.0613
 5205SOL    HW116687   5.483   4.213   5.715 -1.0949 -0.8535 -1.4504
 5205SOL    HW216688   5.633   4.217   5.700 -0.7744 -0.2724  1.3227
 5206SOL     OW16689   4.181   3.867   2.863  0.1095  0.2292 -0.1392
 5206SOL    HW116690   4.127   3.858   2.785 -1.1440  1.2085  0.5686
 5206SOL    HW216691   4.268   3.890   2.830 -0.3217  0.3476 -1.2390
 5207SOL     OW16692   0.555   7.367   1.110 -0.3776 -0.0275  0.3397
 5207SOL    HW116693   0.519   7.450   1.079 -2.2553 -0.5439  1.0246
 5207SOL    HW216694   0.650   7.379   1.104 -0.6074  1.3827 -1.5993
 5208SOL     OW16695   5.685   5.090   7.917  0.1943  0.6725  0.1118
 5208SOL    HW116696   5.693   5.184   7.928  0.5323  0.6848 -0.2160
 5208SOL    HW216697   5.773   5.061   7.891 -0.1432  0.4137 -0.7900
 5209SOL     OW16698   2.624   1.858   1.156 -0.0955  0.0891 -0.5087
 5209SOL    HW116699   2.684   1.862   1.081  1.8273  1.8305  0.9763
 5209SOL    HW216700   2.580   1.943   1.156 -1.9640 -0.8398 -1.0533
 5210SOL     OW16701   7.269   4.339   2.995 -0.3957  0.2047 -0.0061
 5210SOL    HW116702   7.265   4.385   3.079  0.9338  0.2309  0.0650
 5210SOL    HW216703   7.363   4.333   2.975 -0.7007  0.4131 -1.6179
 5211SOL     OW16704   6.011   1.362   1.532 -0.2863  0.2811  0.0318
 5211SOL    HW116705   6.092   1.401   1.565  1.2051 -1.2970 -1.5475
 5211SOL    HW216706   6.028   1.345   1.439 -3.6680  2.9639 -1.2838
 5212SOL     OW16707   7.343   6.457   2.193 -0.5711  0.1500 -0.0259
 5212SOL    HW116708   7.388   6.494   2.118  0.6155 -1.1837 -0.0046
 5212SOL    HW216709   7.321   6.368   2.167 -2.9716  0.6341  0.0823
 5213SOL     OW16710   3.370   0.538   4.055  0.1408 -0.2326  0.5602
 5213SOL    HW116711   3.430   0.568   3.987 -1.0805 -2.3793 -1.6365
 5213SOL    HW216712   3.294   0.596   4.046  0.0318 -0.4332  0.1602
 5214SOL     OW16713   2.939   5.358   8.103 -0.5782 -0.2275  0.1396
 5214SOL    HW116714   2.882   5.326   8.173 -2.0344 -0.2218 -0.9944
 5214SOL    HW216715   3.012   5.296   8.102 -0.9923 -0.7581  1.0521
 5215SOL     OW16716   0.062   6.116   5.043 -0.0594  0.4695  0.1247
 5215SOL    HW116717   0.125   6.188   5.038 -0.6142  1.1039  1.6411
 5215SOL    HW216718   0.046   6.105   5.137 -2.0831  0.2124 -0.2109
 5216SOL     OW16719   2.015   6.378   7.871  0.2061  0.0351  0.4365
 5216SOL    HW116720   1.952   6.353   7.939  1.0758  1.5446  1.8702
 5216SOL    HW216721   1.967   6.440   7.816 -0.2457 -0.5900  0.0970
 5217SOL     OW16722   4.404   3.218   1.455  0.0914  0.3060  0.2449
 5217SOL    HW116723   4.403   3.234   1.549  0.6617 -0.8199  0.4584
 5217SOL    HW216724   4.320   3.177   1.436  1.6954 -3.9890  1.1806
 5218SOL     OW16725   1.480   1.639   1.912  0.3134  0.2734 -0.4782
 5218SOL    HW116726   1.540   1.714   1.915  1.3082 -0.5147  1.3868
 5218SOL    HW216727   1.393   1.678   1.909  0.7611  1.5757  1.5246
 5219SOL     OW16728   3.865   5.883   3.088  0.6870  0.3847  0.1321
 5219SOL    HW116729   3.807   5.958   3.099  0.4455  0.2006  0.1245
 5219SOL    HW216730   3.948   5.921   3.057  1.0494  0.7969  1.5449
 5220SOL     OW16731   2.518   2.731   6.433 -0.1295  0.2935 -0.0473
 5220SOL    HW116732   2.476   2.645   6.433  0.2625  0.0962 -0.3717
 5220SOL    HW216733   2.588   2.723   6.368  0.9421  0.3424  1.0704
 5221SOL     OW16734   4.075   5.500   5.188  0.5141 -0.6876  0.1714
 5221SOL    HW116735   4.056   5.505   5.095  2.7396  1.1657 -0.2837
 5221SOL    HW216736   4.008   5.555   5.229  0.0345 -0.8065 -0.4383
 5222SOL     OW16737   7.848   0.364   2.810 -0.3210 -0.1443 -0.7524
 5222SOL    HW116738   7.824   0.392   2.898  0.1218 -1.4212 -0.2131
 5222SOL    HW216739   7.855   0.446   2.761 -0.8842  0.5674  0.3032
 5223SOL     OW16740   4.114   0.028   2.913  0.0903  0.0587 -0.2883
 5223SOL    HW116741   4.126   0.114   2.952 -0.1718 -0.0196 -0.0338
 5223SOL    HW216742   4.202   0.001   2.887  0.3300 -0.0755  0.6349
 5224SOL     OW16743   2.587   8.116   7.218 -0.1322  0.0485 -0.1616
 5224SOL    HW116744   2.627   8.144   7.135  3.2804 -0.8886  1.0136
 5224SOL    HW216745   2.653   8.060   7.259 -3.1540 -2.5453  1.5905
 5225SOL     OW16746   6.187   2.194   6.559  0.4580 -0.2739  0.3605
 5225SOL    HW116747   6.106   2.143   6.560 -0.1229  0.6317  0.4244
 5225SOL    HW216748   6.184   2.245   6.640  0.8360  0.1563  0.1110
 5226SOL     OW16749   6.039   0.453   7.250 -0.4157  0.0704 -0.0042
 5226SOL    HW116750   6.089   0.480   7.172 -2.2469  0.9571 -0.9438
 5226SOL    HW216751   6.053   0.524   7.313  0.6568 -0.3985  0.3017
 5227SOL     OW16752   6.199   6.063   5.459  0.0734  0.1527 -0.2227
 5227SOL    HW116753   6.117   6.097   5.494 -0.7771 -1.1312 -0.8877
 5227SOL    HW216754   6.266   6.121   5.495 -1.2892  2.7158 -1.5580
 5228SOL     OW16755   3.109   2.550   2.051  0.3442 -0.0886  0.2692
 5228SOL    HW116756   3.097   2.599   1.969  1.9175 -1.1831 -0.6650
 5228SOL    HW216757   3.069   2.465   2.033  2.0899 -0.8919  0.0302
 5229SOL     OW16758   0.464   4.693   4.949  0.1587  0.0529 -0.1160
 5229SOL    HW116759   0.545   4.736   4.923 -0.5943  1.7203  0.1659
 5229SOL    HW216760   0.416   4.759   4.998 -1.9754 -0.4161 -1.4264
 5230SOL     OW16761   3.438   5.019   6.877 -0.1068  0.2277 -0.5642
 5230SOL    HW116762   3.431   4.946   6.816  1.3046 -1.5708  1.3155
 5230SOL    HW216763   3.453   5.096   6.821  0.4674 -1.2348 -2.5108
 5231SOL     OW16764   7.137   5.218   3.413 -0.6395  0.2577  0.0175
 5231SOL    HW116765   7.124   5.183   3.501  1.4364  2.2403  1.1992
 5231SOL    HW216766   7.136   5.313   3.424  0.3740  0.5578 -1.9768
 5232SOL     OW16767   0.459   3.221   0.690  0.4825  0.1162 -0.0660
 5232SOL    HW116768   0.525   3.260   0.633  1.1555  0.4258  0.9065
 5232SOL    HW216769   0.483   3.129   0.695 -0.0873 -0.0888 -0.9674
 5233SOL     OW16770   4.031   0.547   0.986  0.2222  0.1446 -0.7852
 5233SOL    HW116771   4.001   0.539   0.895  0.6595 -0.5014 -0.8835
 5233SOL    HW216772   4.120   0.583   0.978  0.0891  0.5149 -0.5892
 5234SOL     OW16773   6.001   6.154   0.189 -0.0330 -0.0986  0.0505
 5234SOL    HW116774   5.953   6.098   0.128 -1.2947  0.5518  0.3952
 5234SOL    HW216775   5.936   6.219   0.217  0.3556 -0.6343  2.4405
 5235SOL     OW16776   1.444   4.100   7.722  0.5212 -0.3197 -0.4388
 5235SOL    HW116777   1.462   4.076   7.631 -0.4573  0.0608 -0.7453
 5235SOL    HW216778   1.361   4.148   7.719 -1.8018 -3.7220  1.0678
 5236SOL     OW16779   2.233   7.721   3.470 -0.0588  0.4988 -0.1288
 5236SOL    HW116780   2.287   7.660   3.419 -0.0384  0.7759 -0.4378
 5236SOL    HW216781   2.289   7.749   3.542 -0.7165 -1.4347  1.2342
 5237SOL     OW16782   2.779   3.871   3.400  0.3513 -0.1394  0.4341
 5237SOL    HW116783   2.713   3.803   3.412  0.6512 -0.3430  0.9572
 5237SOL    HW216784   2.785   3.883   3.305 -0.4177 -0.1306  0.3835
 5238SOL     OW16785   6.670   3.447   3.887 -0.4757  0.3513 -0.3300
 5238SOL    HW116786   6.746   3.460   3.943 -0.5739  1.6602 -0.4779
 5238SOL    HW216787   6.612   3.391   3.938  0.8080 -1.1359 -0.4417
 5239SOL     OW16788   6.611   7.481   7.675  0.1627 -0.0373  0.5611
 5239SOL    HW116789   6.644   7.413   7.733 -0.7717 -1.0914 -0.0972
 5239SOL    HW216790   6.680   7.494   7.610  0.9661  0.7310  1.5325
 5240SOL     OW16791   0.966   3.818   5.799  0.1468 -0.5900 -0.4395
 5240SOL    HW116792   1.006   3.807   5.712 -0.5997 -1.4668 -0.6877
 5240SOL    HW216793   0.951   3.913   5.806  0.0058 -0.5282 -1.3641
 5241SOL     OW16794   5.935   1.388   3.902 -0.1110 -0.2127 -0.2440
 5241SOL    HW116795   5.983   1.319   3.856 -1.5181  0.3275 -2.6992
 5241SOL    HW216796   5.848   1.387   3.861 -1.3653  0.5834  2.2221
 5242SOL     OW16797   7.756   5.781   0.634  0.8014  0.4377 -0.3193
 5242SOL    HW116798   7.696   5.827   0.693 -0.7373  1.3666 -2.4674
 5242SOL    HW216799   7.715   5.696   0.619  0.2057  0.8985 -1.4283
 5243SOL     OW16800   3.524   1.992   0.740  0.0357 -0.4412 -0.2640
 5243SOL    HW116801   3.567   2.000   0.825 -2.1028 -0.5951  0.9045
 5243SOL    HW216802   3.594   2.001   0.676  2.0018 -2.0970  1.5266
 5244SOL     OW16803   3.798   3.593   7.060 -0.4277  0.0486 -0.9130
 5244SOL    HW116804   3.803   3.688   7.055  0.6481  0.0666  0.1408
 5244SOL    HW216805   3.888   3.563   7.054 -0.4497 -0.7161  1.4595
 5245SOL     OW16806   1.534   6.614   1.456 -0.1367 -0.2715  0.3161
 5245SOL    HW116807   1.574   6.698   1.479 -2.9423  0.9132  1.3408
 5245SOL    HW216808   1.521   6.619   1.361  2.4769 -0.9365 -0.1495
 5246SOL     OW16809   6.015   5.734   0.117  0.5705 -0.1429 -0.1895
 5246SOL    HW116810   6.013   5.786   0.037 -0.5259 -0.3575 -0.3133
 5246SOL    HW216811   5.955   5.779   0.177  1.1308 -0.1665  0.4000
 5247SOL     OW16812   3.722   6.869   2.870  0.1639 -0.2668 -0.7503
 5247SOL    HW116813   3.699   6.960   2.888  2.4940  0.4566 -1.0404
 5247SOL    HW216814   3.655   6.818   2.915 -0.9144  1.5779 -0.1408
 5248SOL     OW16815   2.856   2.580   2.229  0.2937  0.6322 -0.3462
 5248SOL    HW116816   2.879   2.655   2.285  1.9931  0.6314 -0.9761
 5248SOL    HW216817   2.932   2.569   2.172 -1.6201  1.0798 -3.1708
 5249SOL     OW16818   5.177   3.397   4.717  0.4040 -0.5957 -0.0650
 5249SOL    HW116819   5.225   3.463   4.765 -1.0747  0.4436  0.0480
 5249SOL    HW216820   5.112   3.446   4.667 -1.2103 -1.9871  0.5667
 5250SOL     OW16821   0.940   7.631   3.437 -0.2739  0.9490 -0.1946
 5250SOL    HW116822   1.034   7.631   3.414  0.0930  1.3749  1.2404
 5250SOL    HW216823   0.900   7.578   3.368  0.8435  1.7122 -1.5112
 5251SOL     OW16824   2.635   5.582   7.860 -0.3580 -0.1953 -0.6759
 5251SOL    HW116825   2.721   5.599   7.821  0.0832  0.2688  0.4803
 5251SOL    HW216826   2.581   5.554   7.786  0.7255 -0.2901 -1.4548
 5252SOL     OW16827   3.435   3.221   1.765 -0.2602  0.6463  0.4438
 5252SOL    HW116828   3.441   3.308   1.727 -1.3134  0.8648  0.7461
 5252SOL    HW216829   3.353   3.222   1.816 -0.1275 -0.4088  0.7093
 5253SOL     OW16830   0.076   2.809   0.713  1.1135 -0.4816  0.1893
 5253SOL    HW116831   0.039   2.818   0.625 -0.5218 -0.5188  0.8200
 5253SOL    HW216832   0.102   2.717   0.719  1.9787 -0.2905 -0.5145
 5254SOL     OW16833   6.985   0.057   5.732  0.0430 -0.1992 -0.0758
 5254SOL    HW116834   6.977   0.138   5.781 -0.0101 -0.4024  0.2567
 5254SOL    HW216835   7.068   0.064   5.686  0.4252 -0.2957  0.5844
 5255SOL     OW16836   5.374   4.517   4.646  0.0986 -0.5009  0.0856
 5255SOL    HW116837   5.314   4.589   4.629  0.2055 -0.2813  0.6216
 5255SOL    HW216838   5.344   4.480   4.729 -0.3606 -1.4919 -0.5062
 5256SOL     OW16839   6.546   3.836   4.265  0.9270 -0.0373  1.0386
 5256SOL    HW116840   6.453   3.844   4.245  0.2970 -1.2865  3.1545
 5256SOL    HW216841   6.565   3.743   4.252  1.7842  0.1323  1.0384
 5257SOL     OW16842   6.133   1.707   1.213 -0.2358  0.5180 -0.4589
 5257SOL    HW116843   6.183   1.658   1.147 -0.1252  0.7235 -0.5315
 5257SOL    HW216844   6.170   1.680   1.297 -0.7386 -0.1512 -0.4461
 5258SOL     OW16845   4.336   1.067   0.014 -0.0217  0.0384  0.0235
 5258SOL    HW116846   4.307   1.089  -0.074 -1.0522 -1.6403 -0.0978
 5258SOL    HW216847   4.286   1.125   0.071  0.3926  0.8842 -0.4499
 5259SOL     OW16848   7.137   3.830   7.755 -0.1321  0.4058 -0.1147
 5259SOL    HW116849   7.167   3.870   7.836 -1.1792  1.5495 -0.2715
 5259SOL    HW216850   7.044   3.811   7.770  0.1910 -1.4826 -0.2483
 5260SOL     OW16851   3.839   6.599   5.815 -0.6311  0.3833 -0.0874
 5260SOL    HW116852   3.781   6.674   5.798  0.7966  1.4390 -0.4593
 5260SOL    HW216853   3.848   6.556   5.730  0.4021  1.1701 -0.3869
 5261SOL     OW16854   3.511   2.237   4.665  0.5664 -0.0889  0.9480
 5261SOL    HW116855   3.457   2.205   4.737  0.4128 -2.1503 -0.0159
 5261SOL    HW216856   3.601   2.227   4.695  0.4804 -0.0289  1.2204
 5262SOL     OW16857   7.170   0.110   4.066 -0.0376 -0.2329  0.3761
 5262SOL    HW116858   7.217   0.081   4.144  0.6461  2.2314  0.9643
 5262SOL    HW216859   7.220   0.185   4.035 -2.8024  1.6924  0.2289
 5263SOL     OW16860   5.699   3.449   6.009  0.2676  0.0138  0.0316
 5263SOL    HW116861   5.769   3.499   5.966 -0.0731 -0.7853 -1.5342
 5263SOL    HW216862   5.742   3.368   6.037  0.5540  0.6455  1.5351
 5264SOL     OW16863   4.848   1.015   5.604 -0.1280 -0.0363 -0.2930
 5264SOL    HW116864   4.758   1.044   5.587 -0.5985 -1.2560 -0.0155
 5264SOL    HW216865   4.903   1.079   5.558 -1.1061  1.0538 -0.0093
 5265SOL     OW16866   6.549   7.387   2.011 -0.0416  0.2110 -0.3287
 5265SOL    HW116867   6.620   7.433   1.967 -1.2693  0.7467 -1.8723
 5265SOL    HW216868   6.577   7.296   2.013  2.1696  0.8389  2.2339
 5266SOL     OW16869   0.570   7.648   1.315  0.4499  0.3467  0.0152
 5266SOL    HW116870   0.508   7.575   1.314  0.1042  0.6368  0.1307
 5266SOL    HW216871   0.586   7.668   1.223  1.7567 -0.8881 -0.0557
 5267SOL     OW16872   4.209   3.917   7.891 -0.2071 -0.2324  0.3840
 5267SOL    HW116873   4.188   4.003   7.855 -1.8303  0.8920  3.5796
 5267SOL    HW216874   4.124   3.877   7.908  0.5056 -3.1531 -2.2399
 5268SOL     OW16875   2.585   6.122   3.733  0.2220 -0.2453 -0.8904
 5268SOL    HW116876   2.516   6.081   3.681  0.6048 -1.1129 -0.7511
 5268SOL    HW216877   2.632   6.047   3.772  1.0214  0.3356 -0.7176
 5269SOL     OW16878   4.187   1.998   7.799 -0.2200  0.7999  0.3231
 5269SOL    HW116879   4.257   1.944   7.762 -0.9198 -0.1254  0.3131
 5269SOL    HW216880   4.125   1.935   7.834 -1.4074  1.5770 -0.3201
 5270SOL     OW16881   0.900   3.038   1.419 -0.4675  0.3472 -0.0898
 5270SOL    HW116882   0.896   3.107   1.486 -2.7941 -1.0489  1.3416
 5270SOL    HW216883   0.977   2.986   1.442  0.2349  1.3673 -0.0788
 5271SOL     OW16884   6.645   1.300   5.911  0.3077  0.1899 -0.6266
 5271SOL    HW116885   6.732   1.307   5.949 -0.4283 -0.5368  1.3399
 5271SOL    HW216886   6.619   1.390   5.893  0.6774  0.5792  0.7058
 5272SOL     OW16887   5.646   6.834   5.468  0.4673  0.5517 -0.1929
 5272SOL    HW116888   5.622   6.780   5.543  1.7077  1.5291  0.9475
 5272SOL    HW216889   5.699   6.904   5.504  0.6064  1.3939 -1.9172
 5273SOL     OW16890   1.649   5.038   1.644 -0.2412  0.4039 -0.4235
 5273SOL    HW116891   1.581   5.076   1.589  0.4233  1.1815 -0.7358
 5273SOL    HW216892   1.604   4.972   1.697 -0.7261 -1.0603 -2.5606
 5274SOL     OW16893   6.886   0.787   5.929 -0.0412  0.0917 -0.0879
 5274SOL    HW116894   6.912   0.752   5.843  0.4988  0.0643  0.0804
 5274SOL    HW216895   6.838   0.867   5.909 -1.3671 -0.7763 -0.4857
 5275SOL     OW16896   0.163   2.353   2.514  0.2262 -0.4645  0.5208
 5275SOL    HW116897   0.128   2.384   2.431  0.9354  0.2873  0.4936
 5275SOL    HW216898   0.176   2.433   2.566  0.8768 -0.8209  0.9208
 5276SOL     OW16899   2.087   7.513   6.216 -0.6997  0.1638 -0.0953
 5276SOL    HW116900   2.175   7.520   6.178 -1.3759 -0.7934 -1.9564
 5276SOL    HW216901   2.102   7.513   6.311  1.4160 -1.1746 -0.3668
 5277SOL     OW16902   0.083   2.327   0.717 -0.2694 -0.4181  0.0824
 5277SOL    HW116903   0.095   2.248   0.665  0.3533 -1.2065  1.3885
 5277SOL    HW216904  -0.003   2.316   0.758  0.0306 -0.6637  0.6561
 5278SOL     OW16905   3.825   4.907   6.838  0.1837 -0.3199 -0.3682
 5278SOL    HW116906   3.785   4.823   6.814 -2.3745 -0.1412  2.6331
 5278SOL    HW216907   3.801   4.965   6.765  0.0997 -1.6582 -1.4531
 5279SOL     OW16908   1.554   1.670   3.897 -0.0571 -0.4847 -0.2915
 5279SOL    HW116909   1.476   1.725   3.894 -0.6608 -1.3529 -0.4642
 5279SOL    HW216910   1.571   1.646   3.806 -0.2712 -1.2522 -0.1343
 5280SOL     OW16911   4.515   5.993   0.455 -0.7074 -0.2471 -0.0343
 5280SOL    HW116912   4.587   6.053   0.472 -0.2570 -1.2510  1.8388
 5280SOL    HW216913   4.454   6.006   0.527 -2.1161  0.1146 -1.2412
 5281SOL     OW16914   0.971   1.854   1.948 -0.3245 -0.1777  0.6633
 5281SOL    HW116915   0.967   1.871   1.853  1.2411 -0.0912  0.5966
 5281SOL    HW216916   1.003   1.935   1.986  2.2181 -1.2101  0.8884
 5282SOL     OW16917   3.908   5.871   5.224  0.8094 -0.3202  0.2421
 5282SOL    HW116918   3.989   5.871   5.273  0.7513  1.3544  0.4033
 5282SOL    HW216919   3.935   5.870   5.132  1.0847  1.1320  0.2758
 5283SOL     OW16920   6.818   6.638   1.012 -0.6387 -0.5537 -0.2384
 5283SOL    HW116921   6.756   6.671   1.077  0.8826  0.3710  0.8072
 5283SOL    HW216922   6.842   6.715   0.960 -2.0020 -1.3234 -2.0930
 5284SOL     OW16923   0.062   0.712   7.875  0.1727 -0.1809  0.1704
 5284SOL    HW116924   0.109   0.773   7.931 -0.6457  0.0256  0.6424
 5284SOL    HW216925   0.051   0.758   7.792 -0.9185  0.5501  0.6937
 5285SOL     OW16926   7.616   0.174   4.004  0.1853 -0.1541  0.0956
 5285SOL    HW116927   7.653   0.229   4.073  2.4254 -0.0556 -1.0920
 5285SOL    HW216928   7.671   0.095   4.004 -1.2718 -1.2056 -0.0456
 5286SOL     OW16929   5.291   4.693   7.718 -0.3867 -0.3402  0.3510
 5286SOL    HW116930   5.344   4.691   7.638  0.3153 -1.8131  0.8142
 5286SOL    HW216931   5.274   4.600   7.737 -0.9461  0.0092  1.6416
 5287SOL     OW16932   1.180   1.960   0.293 -0.0834 -0.0903  0.2528
 5287SOL    HW116933   1.146   1.930   0.377 -1.4773 -0.9892 -0.5757
 5287SOL    HW216934   1.256   2.014   0.315  1.4243 -2.6814  1.9540
 5288SOL     OW16935   3.351   6.094   4.054 -0.5520  0.8285  0.6127
 5288SOL    HW116936   3.279   6.031   4.057  0.2083 -0.0562  0.8727
 5288SOL    HW216937   3.421   6.047   4.007 -0.1930  1.7239  0.2302
 5289SOL     OW16938   4.224   6.208   2.011  0.2975  0.3012 -0.0069
 5289SOL    HW116939   4.212   6.259   1.930 -0.2767  0.6781  0.3075
 5289SOL    HW216940   4.169   6.253   2.075 -1.0425 -1.2966  0.0287
 5290SOL     OW16941   0.882   3.852   7.570  0.1037 -0.0821 -0.2319
 5290SOL    HW116942   0.842   3.855   7.657 -1.7838 -1.2855 -0.9936
 5290SOL    HW216943   0.972   3.826   7.585  0.6507  2.4975  1.5546
 5291SOL     OW16944   5.142   3.837   4.054 -0.0525  0.7320  0.3834
 5291SOL    HW116945   5.070   3.860   3.995 -0.8444 -0.2711  0.9159
 5291SOL    HW216946   5.188   3.766   4.010 -0.5855  0.0482  0.9127
 5292SOL     OW16947   1.299   4.942   0.940 -0.0294 -0.0699 -0.0516
 5292SOL    HW116948   1.316   4.866   0.884  1.2731  0.2502 -0.1314
 5292SOL    HW216949   1.337   5.016   0.891  0.6713  0.2911  1.0070
 5293SOL     OW16950   6.537   2.779   5.648  0.1883 -0.4753 -0.1442
 5293SOL    HW116951   6.561   2.774   5.741 -1.2884 -1.8741  0.1967
 5293SOL    HW216952   6.561   2.868   5.622  2.8531 -0.7694  0.9147
 5294SOL     OW16953   6.612   2.367   2.514  0.0665  0.2354  0.2049
 5294SOL    HW116954   6.554   2.399   2.584 -0.0618 -1.2331  0.7995
 5294SOL    HW216955   6.555   2.362   2.437 -0.0841  0.7305  0.2767
 5295SOL     OW16956   7.889   7.037   8.128 -0.5976 -0.5033 -0.1005
 5295SOL    HW116957   7.969   7.062   8.173 -2.0087  0.2055  2.1996
 5295SOL    HW216958   7.854   7.120   8.093  0.2859 -0.9917 -2.2908
 5296SOL     OW16959   3.444   7.876   3.839  0.4490  0.2540  0.0756
 5296SOL    HW116960   3.409   7.832   3.916 -1.0977  0.8017 -0.2632
 5296SOL    HW216961   3.492   7.952   3.873 -1.1429  1.1162  0.4967
 5297SOL     OW16962   2.809   6.259   2.719  0.2991 -0.0622  0.0116
 5297SOL    HW116963   2.721   6.232   2.694  0.1666 -0.1625  0.5870
 5297SOL    HW216964   2.859   6.177   2.722  0.1096 -0.1454  0.9014
 5298SOL     OW16965   0.401   7.164   7.369 -0.6180 -0.2123  0.2804
 5298SOL    HW116966   0.431   7.084   7.325  0.3349  0.4971 -0.4039
 5298SOL    HW216967   0.441   7.160   7.456  0.4621  0.1103 -0.1899
 5299SOL     OW16968   3.967   5.470   1.750 -0.2389 -0.1616  0.1314
 5299SOL    HW116969   3.975   5.417   1.829 -0.9604 -0.3773  0.0687
 5299SOL    HW216970   3.879   5.507   1.755  0.2906  1.1224  0.2258
 5300SOL     OW16971   3.532   2.309   2.120 -0.2543 -0.3995  0.0513
 5300SOL    HW116972   3.444   2.346   2.116  0.2877  1.1725  1.4570
 5300SOL    HW216973   3.554   2.311   2.213  0.8462 -1.8138 -0.1583
 5301SOL     OW16974   0.206   0.626   7.476 -0.3752 -0.7905  0.2326
 5301SOL    HW116975   0.204   0.626   7.571 -1.3686 -2.2236  0.2446
 5301SOL    HW216976   0.172   0.712   7.451 -1.1399 -0.7957  1.1818
 5302SOL     OW16977   7.635   1.536   5.544 -0.5628  0.6480  0.1268
 5302SOL    HW116978   7.614   1.457   5.594 -0.7962  0.6539  0.0381
 5302SOL    HW216979   7.642   1.605   5.609 -3.2900  1.1855 -0.0301
 5303SOL     OW16980   2.457   0.327   2.711 -0.1339  0.0631  0.0729
 5303SOL    HW116981   2.525   0.367   2.657  0.4286  1.6818  1.8711
 5303SOL    HW216982   2.479   0.234   2.713  0.2442  0.0767 -1.8262
 5304SOL     OW16983   1.758   4.235   4.332 -0.2079 -0.2846  0.1192
 5304SOL    HW116984   1.772   4.155   4.382 -0.4607 -0.1799  0.3609
 5304SOL    HW216985   1.802   4.303   4.383 -1.0490 -0.0628  0.5489
 5305SOL     OW16986   6.675   2.728   4.975 -0.0690 -0.5536 -0.0389
 5305SOL    HW116987   6.652   2.647   4.929  0.0731 -0.9296  0.5493
 5305SOL    HW216988   6.770   2.728   4.977 -0.0716 -0.4310  0.0697
 5306SOL     OW16989   1.564   2.889   2.314 -0.2479  0.0420 -0.3238
 5306SOL    HW116990   1.606   2.928   2.238 -0.4270  0.6496 -0.1180
 5306SOL    HW216991   1.471   2.907   2.302 -0.2946 -0.0083 -0.0477
 5307SOL     OW16992   6.367   3.969   1.939  0.9085 -0.2722  0.3038
 5307SOL    HW116993   6.430   3.900   1.918 -1.2594 -2.6043  0.9600
 5307SOL    HW216994   6.373   3.980   2.034 -0.5998 -1.5766  0.5901
 5308SOL     OW16995   4.853   7.563   6.866  0.3664  0.2086 -0.0221
 5308SOL    HW116996   4.891   7.639   6.909  1.8585 -0.3862 -0.2505
 5308SOL    HW216997   4.762   7.562   6.896  1.2736 -0.1160  3.0679
 5309SOL     OW16998   6.344   7.950   3.528 -0.3911  0.0093 -0.3827
 5309SOL    HW116999   6.306   7.970   3.613 -0.0121  2.2788 -0.6657
 5309SOL    HW217000   6.312   8.020   3.471  1.0671 -0.2480 -1.5736
 5310SOL     OW17001   5.425   7.051   3.448 -0.4334 -0.5592 -0.3904
 5310SOL    HW117002   5.408   6.960   3.422 -1.2422  0.0208 -2.0138
 5310SOL    HW217003   5.345   7.078   3.494  1.0304 -1.6203  3.1588
 5311SOL     OW17004   7.280   0.954   6.977  0.8237  0.1509  0.1433
 5311SOL    HW117005   7.354   0.936   6.919  0.1273 -0.0288 -0.7103
 5311SOL    HW217006   7.231   1.023   6.932  0.4008  0.1665  0.6249
 5312SOL     OW17007   3.552   0.326   5.690  0.1686  0.0739  0.4130
 5312SOL    HW117008   3.589   0.249   5.647 -1.3889 -0.6914  0.3610
 5312SOL    HW217009   3.458   0.319   5.674  0.0269  2.2900 -0.0518
 5313SOL     OW17010   0.763   5.568   1.176 -0.3854  0.1795 -0.0679
 5313SOL    HW117011   0.786   5.644   1.229 -0.9794  0.8402 -0.7376
 5313SOL    HW217012   0.739   5.604   1.091  2.3033 -0.9676 -1.4428
 5314SOL     OW17013   2.625   7.872   6.631  0.6116 -0.7138  0.0421
 5314SOL    HW117014   2.607   7.934   6.701  0.9752 -0.9898  0.3809
 5314SOL    HW217015   2.556   7.805   6.639  0.0823 -0.2429 -0.4662
 5315SOL     OW17016   3.998   6.873   4.229  0.0545 -0.3346  0.2876
 5315SOL    HW117017   3.978   6.788   4.267  1.0002 -0.4828  0.4582
 5315SOL    HW217018   3.978   6.936   4.299 -0.4041 -0.4297  0.2442
 5316SOL     OW17019   5.628   3.588   3.670  0.3949  0.3475 -0.1167
 5316SOL    HW117020   5.641   3.642   3.592 -0.4344 -0.0391 -0.5374
 5316SOL    HW217021   5.695   3.520   3.663  0.8718  0.8133 -0.0483
 5317SOL     OW17022   2.588   0.465   7.203  0.3585  0.4219  0.1999
 5317SOL    HW117023   2.678   0.452   7.173  0.8332  1.9915  0.8554
 5317SOL    HW217024   2.543   0.505   7.128 -0.5628 -2.6710 -1.0772
 5318SOL     OW17025   7.667   5.098   5.621  0.0799 -0.0185  0.0293
 5318SOL    HW117026   7.610   5.021   5.619 -0.4577  0.3889 -0.4910
 5318SOL    HW217027   7.756   5.062   5.626 -0.2022 -0.6574  0.7040
 5319SOL     OW17028   3.246   3.598   0.023 -0.1443 -0.1846 -0.1110
 5319SOL    HW117029   3.322   3.547   0.049 -1.5722 -2.0114  0.7056
 5319SOL    HW217030   3.223   3.565  -0.064  0.0222  0.4138 -0.3893
 5320SOL     OW17031   0.572   4.554   7.462  0.4362  0.3776 -0.1985
 5320SOL    HW117032   0.656   4.508   7.455  1.2510  1.5906  0.9925
 5320SOL    HW217033   0.549   4.548   7.554 -1.9656 -1.8254 -0.8530
 5321SOL     OW17034   0.215   3.366   2.161 -0.5697  0.2404 -1.0782
 5321SOL    HW117035   0.277   3.373   2.089 -1.0498  1.2544 -1.4036
 5321SOL    HW217036   0.188   3.456   2.178 -2.2941 -0.2194 -1.2499
 5322SOL     OW17037   8.054   0.505   6.432 -0.1075 -0.6502  0.5488
 5322SOL    HW117038   8.122   0.525   6.368 -1.5237  0.6903 -0.6084
 5322SOL    HW217039   8.096   0.517   6.517  0.6903  1.7566 -0.1262
 5323SOL     OW17040   5.759   4.469   4.151 -0.3924  0.5778 -0.1509
 5323SOL    HW117041   5.848   4.446   4.180 -0.0153 -1.1154 -2.3293
 5323SOL    HW217042   5.772   4.529   4.078 -0.7988 -1.7449 -2.2665
 5324SOL     OW17043   2.767   3.490   3.641  0.4511 -0.1165 -0.3656
 5324SOL    HW117044   2.690   3.494   3.699 -0.3587  2.0793 -1.4633
 5324SOL    HW217045   2.816   3.570   3.661  0.2882  0.5750 -2.4167
 5325SOL     OW17046   6.670   5.065   6.709 -0.2372  0.7181 -0.5387
 5325SOL    HW117047   6.650   5.041   6.619  0.4520  0.8805 -0.7440
 5325SOL    HW217048   6.736   5.001   6.737  2.3486  2.8124 -1.4034
 5326SOL     OW17049   2.737   7.564   1.021 -0.4214  0.6811  0.1717
 5326SOL    HW117050   2.674   7.611   1.076  0.7753  1.5666  0.8343
 5326SOL    HW217051   2.819   7.568   1.070  0.8512  2.0057 -1.8979
 5327SOL     OW17052   6.789   6.784   0.149 -0.1053  0.3679  0.1486
 5327SOL    HW117053   6.774   6.786   0.243 -0.1478 -0.1511  0.1555
 5327SOL    HW217054   6.727   6.847   0.113  0.3147  1.0070  0.5182
 5328SOL     OW17055   6.524   4.908   7.787  0.0268  0.6102  0.2451
 5328SOL    HW117056   6.521   4.843   7.717 -0.1849  0.5379  0.3185
 5328SOL    HW217057   6.506   4.859   7.867 -1.6009  0.9625  0.1484
 5329SOL     OW17058   1.558   7.961   2.314  0.1238  0.9410 -0.5402
 5329SOL    HW117059   1.516   7.960   2.400 -0.5476 -2.0026 -0.7980
 5329SOL    HW217060   1.649   7.981   2.332  0.0994 -0.1395  0.9651
 5330SOL     OW17061   2.846   5.269   1.721  0.0660  0.3878 -0.1679
 5330SOL    HW117062   2.810   5.218   1.648 -0.3659  0.0414  0.2853
 5330SOL    HW217063   2.940   5.254   1.717  0.0823  0.6349 -0.8578
 5331SOL     OW17064   3.328   2.363   0.125  0.0062  0.4824 -0.5380
 5331SOL    HW117065   3.392   2.397   0.062 -0.8792  1.4226 -0.9637
 5331SOL    HW217066   3.304   2.440   0.178  0.8303 -0.3091  1.0668
 5332SOL     OW17067   0.739   6.125   6.486 -0.2357 -0.2791  0.3378
 5332SOL    HW117068   0.679   6.058   6.453 -1.1725  1.2711 -1.3420
 5332SOL    HW217069   0.779   6.162   6.407  0.7361  0.7045  1.2457
 5333SOL     OW17070   0.764   1.667   1.248  0.9060 -0.4775 -0.3370
 5333SOL    HW117071   0.672   1.651   1.227  0.2576  2.4479 -0.1799
 5333SOL    HW217072   0.812   1.636   1.171 -0.5211  0.7250 -1.7882
 5334SOL     OW17073   7.033   0.128   1.920  0.0771 -0.3383  0.6836
 5334SOL    HW117074   6.986   0.160   1.997 -1.8647 -0.7993 -0.2496
 5334SOL    HW217075   7.103   0.192   1.907 -1.4156  1.4727  1.0579
 5335SOL     OW17076   2.488   7.464   5.866  0.0951  0.2010 -0.3685
 5335SOL    HW117077   2.473   7.387   5.811  2.2939  1.0158 -2.2748
 5335SOL    HW217078   2.579   7.488   5.849  0.5132  1.2747  2.7555
 5336SOL     OW17079   4.347   4.971   3.683 -0.1850  0.4139 -0.2384
 5336SOL    HW117080   4.389   5.030   3.745 -1.4135  1.7045 -0.5871
 5336SOL    HW217081   4.376   5.002   3.597  1.5829 -1.4186 -0.3919
 5337SOL     OW17082   5.822   4.397   0.755  0.2265 -0.0586  1.0561
 5337SOL    HW117083   5.799   4.427   0.667  0.3607 -2.0752  0.2690
 5337SOL    HW217084   5.872   4.469   0.793 -1.7145  1.7737  0.3513
 5338SOL     OW17085   5.801   6.196   3.563  0.1765  0.2093 -0.2201
 5338SOL    HW117086   5.759   6.222   3.644  1.6586 -0.4153  0.7911
 5338SOL    HW217087   5.876   6.256   3.554  1.2414 -1.0373 -0.0018
 5339SOL     OW17088   5.704   7.703   4.838  0.3001  0.3006  0.2678
 5339SOL    HW117089   5.611   7.706   4.816  0.0326  1.1296  1.3847
 5339SOL    HW217090   5.717   7.780   4.894  1.6113  0.0690  0.3005
 5340SOL     OW17091   1.043   6.345   4.902  0.1221 -0.0799 -0.2505
 5340SOL    HW117092   1.072   6.320   4.990  0.2194 -1.6372 -0.6966
 5340SOL    HW217093   0.947   6.337   4.906  0.1150  0.0033 -0.2480
 5341SOL     OW17094   6.832   5.439   3.937  0.6527  0.6140  0.1691
 5341SOL    HW117095   6.860   5.348   3.949 -1.4811 -0.1735 -0.4938
 5341SOL    HW217096   6.802   5.467   4.024 -0.9459 -0.1556 -0.1055
 5342SOL     OW17097   0.682   1.767   7.813 -0.5692 -0.0266  0.3306
 5342SOL    HW117098   0.617   1.775   7.743  1.8029  0.3681 -1.9556
 5342SOL    HW217099   0.765   1.791   7.773  1.3681 -2.2996  2.5955
 5343SOL     OW17100   2.729   3.806   6.287  0.0309  0.2749 -0.2387
 5343SOL    HW117101   2.640   3.837   6.303 -0.2008 -0.7196  0.4052
 5343SOL    HW217102   2.767   3.795   6.374  1.0169  1.2917 -0.5064
 5344SOL     OW17103   1.755   0.112   7.569 -0.1410  0.0762 -0.6980
 5344SOL    HW117104   1.813   0.041   7.597 -2.0907 -0.9112  1.1678
 5344SOL    HW217105   1.773   0.183   7.630  0.9774  0.7999 -1.8321
 5345SOL     OW17106   2.383   7.040   8.009  0.4774 -0.4535  0.5470
 5345SOL    HW117107   2.350   6.951   8.024 -0.0835 -0.3440 -0.0512
 5345SOL    HW217108   2.433   7.060   8.089 -1.2622 -0.4393  1.6731
 5346SOL     OW17109   0.077   2.937   6.113 -0.3050 -0.4340 -0.2811
 5346SOL    HW117110   0.016   2.974   6.049 -0.5172 -0.6806 -0.2226
 5346SOL    HW217111   0.052   2.845   6.120 -0.5483 -0.3195  0.4607
 5347SOL     OW17112   1.095   7.255   5.210 -0.1357  0.3014 -0.0224
 5347SOL    HW117113   1.129   7.338   5.177  0.3059 -0.3984 -1.4418
 5347SOL    HW217114   1.076   7.204   5.130 -0.4672 -0.9265  0.8084
 5348SOL     OW17115   7.540   5.919   1.294 -0.7138 -0.3258 -0.2926
 5348SOL    HW117116   7.463   5.905   1.349 -0.4690 -0.6849 -0.0316
 5348SOL    HW217117   7.521   5.870   1.214 -1.5948  1.1968 -1.0457
 5349SOL     OW17118   5.058   2.169   1.861 -0.5818 -0.5763 -0.1867
 5349SOL    HW117119   5.123   2.218   1.812 -0.6450  1.0533  1.2368
 5349SOL    HW217120   4.974   2.206   1.833 -0.7802 -1.3607 -0.6459
 5350SOL     OW17121   5.915   5.976   2.920 -0.0501  0.2523  0.4677
 5350SOL    HW117122   5.829   5.990   2.880 -0.9299  1.8907  2.6915
 5350SOL    HW217123   5.901   5.904   2.982  0.9153 -1.2649 -1.0022
 5351SOL     OW17124   5.150   7.736   7.798 -0.3431  0.6711  0.1318
 5351SOL    HW117125   5.122   7.822   7.767 -0.0124  1.3881  1.7022
 5351SOL    HW217126   5.115   7.675   7.733 -0.4686  1.9834 -1.1035
 5352SOL     OW17127   6.211   7.820   5.294 -0.2721 -0.2265 -0.2424
 5352SOL    HW117128   6.269   7.839   5.220 -0.8891 -0.0983 -0.6926
 5352SOL    HW217129   6.130   7.867   5.274 -0.9160 -1.2784 -0.1417
 5353SOL     OW17130   2.532   2.212   6.498  0.1633  0.2904 -0.1326
 5353SOL    HW117131   2.557   2.184   6.410 -1.6960 -0.1441 -0.5668
 5353SOL    HW217132   2.508   2.304   6.488 -0.5112  0.1154 -0.2100
 5354SOL     OW17133   7.006   6.604   7.445 -0.1716  0.5224 -0.5514
 5354SOL    HW117134   7.058   6.523   7.450  0.1076  0.7214 -0.1212
 5354SOL    HW217135   7.049   6.655   7.377  0.6196  0.9651  0.2514
 5355SOL     OW17136   0.440   5.451   3.178 -0.5649 -0.5606  0.1992
 5355SOL    HW117137   0.350   5.482   3.175 -0.0426  1.0132 -0.6200
 5355SOL    HW217138   0.434   5.357   3.164 -1.9628 -0.2385 -1.8370
 5356SOL     OW17139   3.075   7.140   4.918  0.4673 -0.3175  0.4416
 5356SOL    HW117140   3.161   7.110   4.886 -0.7914 -1.2795 -2.4509
 5356SOL    HW217141   3.054   7.080   4.989  1.4432 -1.2543 -0.0159
 5357SOL     OW17142   2.781   1.885   6.286  0.1582 -0.2653 -0.2921
 5357SOL    HW117143   2.854   1.879   6.348  0.7936 -0.0930 -1.0042
 5357SOL    HW217144   2.719   1.818   6.316  0.3430 -0.0362  0.6529
 5358SOL     OW17145   1.205   1.291   5.327 -0.5178 -0.0292  0.2118
 5358SOL    HW117146   1.194   1.197   5.314  1.1094 -0.1718 -0.3117
 5358SOL    HW217147   1.151   1.331   5.259 -1.8883 -0.5411  0.9650
 5359SOL     OW17148   2.858   5.804   5.185  0.5730 -0.3499 -0.3376
 5359SOL    HW117149   2.897   5.844   5.107 -0.0890  2.8697  0.8283
 5359SOL    HW217150   2.914   5.832   5.257  0.0062 -1.5444  0.6109
 5360SOL     OW17151   7.461   0.082   1.513 -0.1500 -0.5090  0.4108
 5360SOL    HW117152   7.541   0.113   1.470 -1.4892  0.9986 -1.1210
 5360SOL    HW217153   7.456  -0.011   1.491 -0.4757  0.0771 -2.3208
 5361SOL     OW17154   6.354   6.532   1.212 -0.0634  0.5573  0.6197
 5361SOL    HW117155   6.319   6.453   1.252  0.4071  0.7074  1.3423
 5361SOL    HW217156   6.380   6.587   1.286 -0.6166  1.4952  0.1387
 5362SOL     OW17157   5.507   0.961   7.393 -0.1081 -0.0972  0.0471
 5362SOL    HW117158   5.502   0.866   7.404  0.0943 -0.8413 -4.2107
 5362SOL    HW217159   5.455   0.979   7.314  0.4966  3.2190  0.2339
 5363SOL     OW17160   8.019   5.788   1.921  0.1739 -0.5399  0.3343
 5363SOL    HW117161   7.979   5.798   1.835 -0.7168 -0.8411  0.7063
 5363SOL    HW217162   8.041   5.695   1.927  0.5367 -0.4589  0.3060
 5364SOL     OW17163   3.202   2.798   6.739  0.3843  0.1080  0.6251
 5364SOL    HW117164   3.294   2.821   6.725 -0.0177  2.0564  0.8197
 5364SOL    HW217165   3.204   2.729   6.805  1.7000  0.2326  0.7425
 5365SOL     OW17166   4.315   7.481   0.295 -0.2810  0.2291  0.3319
 5365SOL    HW117167   4.266   7.415   0.246 -0.7143 -2.3410  3.8113
 5365SOL    HW217168   4.274   7.564   0.271 -0.7281 -0.8347 -3.1157
 5366SOL     OW17169   1.657   2.368   3.892  0.4163  0.0353  0.0386
 5366SOL    HW117170   1.688   2.414   3.814 -0.6404 -0.3959 -0.6655
 5366SOL    HW217171   1.611   2.291   3.858 -0.2974 -0.0198  1.0693
 5367SOL     OW17172   2.715   3.951   3.034 -0.4372  0.2535  0.2512
 5367SOL    HW117173   2.774   3.994   2.973 -0.0217  0.9807  1.1320
 5367SOL    HW217174   2.735   3.857   3.026 -0.3635  0.3474 -0.6763
 5368SOL     OW17175   6.201   5.307   2.317  0.2543 -0.5346 -0.6806
 5368SOL    HW117176   6.139   5.242   2.349 -1.4902 -0.5108 -3.6532
 5368SOL    HW217177   6.230   5.273   2.232  1.0350  1.4892 -1.2846
 5369SOL     OW17178   1.953   4.717   6.600  0.4175 -0.4799 -0.0312
 5369SOL    HW117179   1.975   4.744   6.511 -1.7116  0.8786 -0.2082
 5369SOL    HW217180   1.858   4.723   6.604  0.5238  0.5555  2.6566
 5370SOL     OW17181   2.041   6.192   7.578 -0.2345 -0.1303 -0.0587
 5370SOL    HW117182   1.984   6.198   7.655  0.3084  2.2161  0.2553
 5370SOL    HW217183   2.130   6.188   7.615  0.0328  1.0956 -0.5131
 5371SOL     OW17184   0.283   2.675   3.969 -0.3147  0.3487  0.2244
 5371SOL    HW117185   0.246   2.605   3.916 -1.5846  0.9620  0.2729
 5371SOL    HW217186   0.368   2.641   3.997 -1.3814 -1.6664  1.2362
 5372SOL     OW17187   8.158   6.062   7.168 -0.5580 -0.6136 -0.2251
 5372SOL    HW117188   8.178   6.012   7.089 -0.2560 -0.3634 -0.3057
 5372SOL    HW217189   8.215   6.024   7.235  0.6186  0.4624 -0.5812
 5373SOL     OW17190   7.260   1.594   6.491 -0.2811 -0.2023 -0.2408
 5373SOL    HW117191   7.244   1.512   6.445 -0.2044  0.1246 -0.8609
 5373SOL    HW217192   7.177   1.641   6.487 -0.7927 -0.8673  1.4381
 5374SOL     OW17193   0.663   7.345   2.574 -0.4649  0.1933  0.1183
 5374SOL    HW117194   0.607   7.319   2.501 -0.1694  0.8652 -0.3504
 5374SOL    HW217195   0.610   7.408   2.623 -0.5112  0.0381  0.2724
 5375SOL     OW17196   0.805   0.031   6.093  0.4357  0.1190  0.1186
 5375SOL    HW117197   0.847   0.089   6.030  2.8072  0.1583  1.5951
 5375SOL    HW217198   0.717   0.066   6.104  0.6191  1.2626 -1.6600
 5376SOL     OW17199   5.299   0.037   5.087 -0.1717 -0.0971  0.0466
 5376SOL    HW117200   5.218   0.086   5.074 -0.0936 -0.0712 -0.3606
 5376SOL    HW217201   5.325   0.057   5.176 -0.2901  0.3787 -0.0230
 5377SOL     OW17202   7.480   7.919   6.945  0.1607 -0.5821  0.2772
 5377SOL    HW117203   7.499   7.831   6.977  1.2328 -0.6944 -0.5844
 5377SOL    HW217204   7.561   7.968   6.961 -0.8686  0.6382  1.9612
 5378SOL     OW17205   3.143   4.857   6.235  0.1588 -0.9861 -0.3409
 5378SOL    HW117206   3.231   4.875   6.266  0.1137 -0.3367 -0.5728
 5378SOL    HW217207   3.105   4.944   6.219 -0.0017 -1.2851 -1.6906
 5379SOL     OW17208   0.838   4.530   4.513 -0.0912  0.4454 -0.5553
 5379SOL    HW117209   0.849   4.509   4.606  0.7384 -1.9074 -1.1095
 5379SOL    HW217210   0.744   4.525   4.499 -0.0834 -1.2197 -0.2208
 5380SOL     OW17211   7.230   7.558   2.216  0.1757  0.7523 -0.3024
 5380SOL    HW117212   7.277   7.640   2.228  0.8330  0.4297 -0.6300
 5380SOL    HW217213   7.273   7.496   2.275  0.7290  0.2366 -1.2185
 5381SOL     OW17214   4.840   0.542   0.555 -0.1935  0.5862  0.0052
 5381SOL    HW117215   4.881   0.465   0.595  1.4284  0.2366 -2.1469
 5381SOL    HW217216   4.779   0.574   0.622 -0.4411 -2.1514  1.2183
 5382SOL     OW17217   5.880   4.116   5.058 -0.4988 -0.0719 -0.4491
 5382SOL    HW117218   5.939   4.094   4.985  0.9926 -1.8219  1.1687
 5382SOL    HW217219   5.795   4.082   5.032 -0.0856 -0.3101 -1.5385
 5383SOL     OW17220   4.303   5.260   4.109  0.2829 -0.0305 -0.2307
 5383SOL    HW117221   4.304   5.350   4.077  0.5483  0.4169  1.0208
 5383SOL    HW217222   4.343   5.264   4.195 -0.6466 -1.1857  0.2785
 5384SOL     OW17223   4.863   6.945   6.825  0.1547 -0.2250 -0.1808
 5384SOL    HW117224   4.837   6.854   6.813 -0.5207 -0.2049  0.9550
 5384SOL    HW217225   4.882   6.953   6.919  0.8949  0.6318 -0.3851
 5385SOL     OW17226   0.087   2.074   7.370 -0.1268 -0.0750 -0.0644
 5385SOL    HW117227   0.149   2.052   7.440  0.7472  1.4272 -0.3380
 5385SOL    HW217228   0.009   2.103   7.416 -0.4782 -1.4669  0.2777
 5386SOL     OW17229   0.806   5.462   1.835 -0.0015  0.1386 -0.5369
 5386SOL    HW117230   0.772   5.424   1.754  0.5462 -0.9944 -0.2525
 5386SOL    HW217231   0.879   5.405   1.860  0.6941  1.2366  0.0478
 5387SOL     OW17232   2.584   1.542   0.665  0.1342  0.4414 -0.1016
 5387SOL    HW117233   2.532   1.620   0.683 -1.1796 -0.4923  0.3262
 5387SOL    HW217234   2.523   1.481   0.623  1.4838  0.1326 -1.7281
 5388SOL     OW17235   0.642   3.060   6.560  0.1005  0.2634 -0.7882
 5388SOL    HW117236   0.606   2.995   6.621  0.5176 -1.2046 -2.0478
 5388SOL    HW217237   0.669   3.132   6.616  2.6740 -1.9676  1.1202
 5389SOL     OW17238   3.880   0.223   0.730 -0.0555 -0.1430 -0.3092
 5389SOL    HW117239   3.879   0.127   0.729 -0.9421 -0.1544  0.3976
 5389SOL    HW217240   3.823   0.248   0.657 -1.3547 -0.1995  0.6356
 5390SOL     OW17241   0.765   2.785   0.619  0.4482  0.0434  0.3240
 5390SOL    HW117242   0.801   2.848   0.681  1.1429  0.1670 -0.1959
 5390SOL    HW217243   0.840   2.756   0.566 -0.1780  0.2302 -0.7062
 5391SOL     OW17244   6.593   1.460   8.073  0.6898 -0.1553  0.0156
 5391SOL    HW117245   6.599   1.556   8.073  2.2889 -0.1764 -1.7353
 5391SOL    HW217246   6.597   1.435   8.165 -1.3887  1.4870  0.6346
 5392SOL     OW17247   0.852   6.983   6.741  0.2158 -0.7469 -0.0597
 5392SOL    HW117248   0.812   7.069   6.749  2.8324  0.4192  2.2799
 5392SOL    HW217249   0.920   6.994   6.674  0.3201 -1.0907 -0.0121
 5393SOL     OW17250   2.514   7.860   5.335  0.2658  0.1139 -0.1982
 5393SOL    HW117251   2.437   7.899   5.377 -0.0688  0.8887 -1.4564
 5393SOL    HW217252   2.485   7.772   5.310 -0.1763  0.3523 -0.5463
 5394SOL     OW17253   0.810   6.132   7.214  0.4021  0.0237 -0.4353
 5394SOL    HW117254   0.828   6.162   7.125  0.7183  0.5160 -0.2098
 5394SOL    HW217255   0.748   6.059   7.203  0.5032  0.0281 -1.0583
 5395SOL     OW17256   5.745   1.323   1.603  0.5733  0.0452 -0.1062
 5395SOL    HW117257   5.732   1.359   1.515  0.5829 -0.3485 -0.2745
 5395SOL    HW217258   5.839   1.326   1.617  0.5853 -0.0309 -0.1708
 5396SOL     OW17259   4.807   1.620   5.588 -0.7766 -0.7064  0.2700
 5396SOL    HW117260   4.719   1.588   5.569 -1.3264 -0.1187  1.6192
 5396SOL    HW217261   4.840   1.561   5.656 -0.1895 -0.8248 -0.1124
 5397SOL     OW17262   1.933   5.869   6.811  0.5306 -0.2684  0.2274
 5397SOL    HW117263   1.940   5.797   6.873 -0.6534 -1.2253 -0.6957
 5397SOL    HW217264   1.999   5.851   6.745  0.0575 -0.6774 -0.1446
 5398SOL     OW17265   1.147   3.615   2.183 -0.1199  0.4747 -0.2564
 5398SOL    HW117266   1.203   3.621   2.260  2.0704  0.8519 -1.7843
 5398SOL    HW217267   1.102   3.699   2.179 -1.0697  0.0619  1.1484
 5399SOL     OW17268   7.965   2.933   4.832  0.3529 -0.1119 -0.5350
 5399SOL    HW117269   8.041   2.984   4.806  1.3053 -1.5290 -0.6567
 5399SOL    HW217270   7.971   2.927   4.927 -0.9927  1.8007 -0.2598
 5400SOL     OW17271   7.469   2.220   2.943 -0.0713  0.4653  0.6345
 5400SOL    HW117272   7.406   2.291   2.944  0.8730  1.3299  2.2170
 5400SOL    HW217273   7.549   2.259   2.909 -0.2493 -0.5492 -1.0723
 5401SOL     OW17274   7.909   0.403   4.945  0.4730  0.1312 -0.1135
 5401SOL    HW117275   7.834   0.452   4.911  0.1003 -0.0445  0.4359
 5401SOL    HW217276   7.923   0.439   5.032  2.8351  2.1453 -1.2255
 5402SOL     OW17277   4.385   1.593   5.753 -0.3850  0.1919 -0.2165
 5402SOL    HW117278   4.473   1.563   5.777  0.7762  2.4515 -1.3541
 5402SOL    HW217279   4.326   1.531   5.796  1.7446 -2.9176 -1.4559
 5403SOL     OW17280   4.420   7.922   6.387 -0.4115 -0.1485  0.3383
 5403SOL    HW117281   4.348   7.893   6.331 -1.1789  0.8013  0.8011
 5403SOL    HW217282   4.386   7.914   6.476 -0.4289  1.4797  0.5130
 5404SOL     OW17283   3.164   5.578   1.612  0.8592  0.5367  0.4639
 5404SOL    HW117284   3.237   5.569   1.551  1.3164 -0.3026  1.1163
 5404SOL    HW217285   3.189   5.650   1.670  1.8811 -0.6791  1.6080
 5405SOL     OW17286   5.174   1.004   6.462 -0.1727 -0.1179 -0.3678
 5405SOL    HW117287   5.199   1.094   6.483  0.1431  0.0536 -1.3803
 5405SOL    HW217288   5.105   1.013   6.396 -1.2935 -0.6208  0.7072
 5406SOL     OW17289   2.930   1.749   3.264  0.7208  0.0244  0.3020
 5406SOL    HW117290   2.939   1.790   3.178  1.5115  0.5434  0.6175
 5406SOL    HW217291   2.885   1.666   3.247  0.6899  0.2149 -0.5830
 5407SOL     OW17292   0.282   4.594   5.277 -0.2363 -0.4978 -0.1721
 5407SOL    HW117293   0.332   4.667   5.240 -0.4334  0.3626  1.1815
 5407SOL    HW217294   0.198   4.633   5.303  0.2106 -0.8216  1.9612
 5408SOL     OW17295   0.798   6.039   4.903 -0.4952  0.6306 -0.7376
 5408SOL    HW117296   0.741   6.058   4.977 -1.4161 -0.6604 -1.0688
 5408SOL    HW217297   0.740   5.999   4.838  0.6587 -0.1219 -1.3464
 5409SOL     OW17298   3.613   1.203   6.503 -0.1857 -0.0061  0.0874
 5409SOL    HW117299   3.638   1.171   6.590 -0.0805  0.8145  0.3654
 5409SOL    HW217300   3.552   1.275   6.521 -0.1332  0.1905 -0.5187
 5410SOL     OW17301   7.518   2.796   4.753  0.0604 -0.1332 -0.4819
 5410SOL    HW117302   7.560   2.750   4.825  0.5743  1.6777  0.4240
 5410SOL    HW217303   7.587   2.851   4.716 -0.8872  1.0312 -0.5648
 5411SOL     OW17304   7.437   5.646   1.508 -0.1184 -0.2553 -0.5423
 5411SOL    HW117305   7.508   5.631   1.570 -1.2314 -2.1010  0.3773
 5411SOL    HW217306   7.396   5.560   1.498 -1.6943  0.5865 -1.7185
 5412SOL     OW17307   2.836   0.427   5.717  0.7096 -0.0904  0.9493
 5412SOL    HW117308   2.840   0.417   5.812  2.3775  0.7861  1.0120
 5412SOL    HW217309   2.841   0.521   5.702  0.9403 -0.2448 -0.0235
 5413SOL     OW17310   2.290   0.075   3.786  0.2763 -0.1348  0.2155
 5413SOL    HW117311   2.362   0.106   3.731  1.6750 -0.2279  1.9293
 5413SOL    HW217312   2.227   0.038   3.724  1.9642 -0.5960 -1.2987
 5414SOL     OW17313   2.676   0.858   0.152 -0.3140 -0.5567 -0.7495
 5414SOL    HW117314   2.667   0.945   0.191  1.6730 -1.5551  2.3786
 5414SOL    HW217315   2.597   0.811   0.179 -0.7113 -0.1528 -1.2005
 5415SOL     OW17316   0.235   7.744   8.003 -0.5243  0.0619 -0.2727
 5415SOL    HW117317   0.193   7.830   8.004  0.1789  0.4046  0.0593
 5415SOL    HW217318   0.243   7.722   7.910  0.3940  0.9017 -0.4036
 5416SOL     OW17319   0.676   6.096   5.138  0.1587  0.2849 -0.0842
 5416SOL    HW117320   0.705   6.164   5.198  0.1944  0.2925 -0.1100
 5416SOL    HW217321   0.605   6.052   5.184 -0.2786  0.7363 -0.3103
 5417SOL     OW17322   2.818   1.707   0.206  0.4418 -0.2155  0.6380
 5417SOL    HW117323   2.735   1.727   0.250 -0.7283 -0.4673 -1.3325
 5417SOL    HW217324   2.801   1.625   0.160  0.7631  1.2000 -2.1997
 5418SOL     OW17325   4.581   1.675   1.333 -0.3878  0.5247 -0.4513
 5418SOL    HW117326   4.568   1.675   1.428 -0.2754 -1.9144 -0.3658
 5418SOL    HW217327   4.500   1.713   1.298 -1.8944 -1.5329  0.5628
 5419SOL     OW17328   6.320   3.990   4.678  0.5552  0.4718  0.0680
 5419SOL    HW117329   6.361   4.018   4.760  3.4018  0.3076 -1.1698
 5419SOL    HW217330   6.378   3.921   4.645 -2.4214 -2.0293 -0.4246
 5420SOL     OW17331   7.886   3.615   2.955  0.1641 -0.0161  0.5837
 5420SOL    HW117332   7.946   3.689   2.956  0.7893 -0.5214  1.5189
 5420SOL    HW217333   7.800   3.654   2.945  0.6621  0.6873 -1.6529
 5421SOL     OW17334   3.214   5.098   5.377  0.4979  0.0926 -0.0803
 5421SOL    HW117335   3.280   5.166   5.392  1.4218 -0.7519 -0.2346
 5421SOL    HW217336   3.254   5.041   5.311 -0.7032 -0.0162 -0.7333
 5422SOL     OW17337   5.791   6.041   8.003  0.4150 -0.9778  0.5590
 5422SOL    HW117338   5.887   6.041   8.007  0.4618  0.7280  0.2800
 5422SOL    HW217339   5.764   6.095   8.078 -0.3821 -2.1750  1.1650
 5423SOL     OW17340   7.018   1.983   6.126 -0.0886  0.2373 -0.1565
 5423SOL    HW117341   6.952   1.914   6.131  0.0135  0.0650 -0.9862
 5423SOL    HW217342   7.069   1.975   6.207  0.2504 -0.9921 -0.4715
 5424SOL     OW17343   7.368   4.806   1.192  0.2781  0.1080  0.5461
 5424SOL    HW117344   7.396   4.882   1.242  2.4985  0.3302 -0.8671
 5424SOL    HW217345   7.404   4.820   1.104  0.3371 -2.3215  0.0865
 5425SOL     OW17346   1.597   4.944   5.351  0.0729 -0.4973 -0.3189
 5425SOL    HW117347   1.523   5.001   5.371 -1.5910 -2.5576 -0.3019
 5425SOL    HW217348   1.652   4.995   5.291 -1.8849  0.7249 -1.1437
 5426SOL     OW17349   7.508   0.329   0.879 -0.0863 -0.2686  0.1669
 5426SOL    HW117350   7.452   0.394   0.922 -0.0614  2.0790 -3.0095
 5426SOL    HW217351   7.450   0.255   0.861 -0.5419 -0.5076  2.3039
 5427SOL     OW17352   4.741   2.159   6.310  0.1749 -0.0503 -0.3473
 5427SOL    HW117353   4.783   2.227   6.257  1.0019 -1.0165 -0.9809
 5427SOL    HW217354   4.649   2.184   6.314  0.0796  0.0393 -2.3043
 5428SOL     OW17355   7.524   0.562   5.720 -0.0524  0.0651  0.1879
 5428SOL    HW117356   7.512   0.469   5.736 -0.5029  0.0188 -0.4058
 5428SOL    HW217357   7.605   0.584   5.765  0.0152 -0.5954  0.3902
 5429SOL     OW17358   1.867   1.825   2.183 -0.8616  0.3242 -0.1768
 5429SOL    HW117359   1.840   1.812   2.092 -0.5552  0.2473 -0.2573
 5429SOL    HW217360   1.844   1.742   2.226  1.5386 -0.7493 -0.7963
 5430SOL     OW17361   2.299   4.959   7.618 -0.0460 -0.5823  0.7709
 5430SOL    HW117362   2.354   5.031   7.586 -1.5866 -0.2275 -1.3282
 5430SOL    HW217363   2.347   4.923   7.692  0.9166  2.4525  1.7886
 5431SOL     OW17364   3.433   4.678   5.455 -0.3503 -0.3899 -0.9345
 5431SOL    HW117365   3.473   4.761   5.477 -1.7125  0.1024 -0.2040
 5431SOL    HW217366   3.475   4.652   5.373 -1.6602  2.2780 -2.5838
 5432SOL     OW17367   1.265   3.468   5.812 -0.4602  0.0716 -0.4157
 5432SOL    HW117368   1.230   3.379   5.819 -1.1630  0.3670 -0.1008
 5432SOL    HW217369   1.235   3.499   5.726 -1.3870  0.4917  0.0472
 5433SOL     OW17370   2.465   5.435   5.099 -0.0044 -0.5845  0.2730
 5433SOL    HW117371   2.525   5.503   5.130 -0.4533  0.0639 -0.2432
 5433SOL    HW217372   2.403   5.423   5.170 -1.4204  1.3607 -0.5499
 5434SOL     OW17373   1.804   4.931   6.312 -0.3699  0.7358  0.4643
 5434SOL    HW117374   1.863   4.858   6.291 -1.0482  0.3456 -0.1189
 5434SOL    HW217375   1.726   4.914   6.260 -1.2491  0.9285  1.6947
 5435SOL     OW17376   6.129   3.525   4.102  0.0367 -0.0836  0.0391
 5435SOL    HW117377   6.135   3.431   4.119 -0.6014  0.0436  1.0397
 5435SOL    HW217378   6.060   3.556   4.160  1.3245  1.2691  0.9352
 5436SOL     OW17379   7.888   4.763   0.239 -0.0038 -0.5899 -0.2721
 5436SOL    HW117380   7.901   4.856   0.221  0.6975  0.0859  3.0594
 5436SOL    HW217381   7.804   4.742   0.199 -0.3453  1.5578 -0.7818
 5437SOL     OW17382   6.157   4.318   2.751  0.1497 -0.3721 -0.4312
 5437SOL    HW117383   6.111   4.269   2.820  1.3870  0.4894  1.0778
 5437SOL    HW217384   6.221   4.371   2.799  1.5224 -0.2477 -2.3211
 5438SOL     OW17385   5.310   6.799   1.352  0.1625 -0.1882  0.1494
 5438SOL    HW117386   5.376   6.759   1.296 -0.1285  0.0895 -0.4027
 5438SOL    HW217387   5.232   6.745   1.340 -0.3332  0.7054 -0.8640
 5439SOL     OW17388   5.405   6.438   0.767  0.0668 -0.5797 -0.0196
 5439SOL    HW117389   5.315   6.444   0.800  0.1316  1.5743 -0.0900
 5439SOL    HW217390   5.400   6.377   0.694 -0.7160 -2.8697  1.7982
 5440SOL     OW17391   7.398   6.504   2.465 -0.1259  0.0264  0.2628
 5440SOL    HW117392   7.445   6.425   2.491 -1.7262 -0.1750  2.8750
 5440SOL    HW217393   7.380   6.492   2.371  3.1618 -0.7515 -0.3850
 5441SOL     OW17394   1.177   7.814   5.452 -0.4315  0.2946  0.1994
 5441SOL    HW117395   1.267   7.832   5.425 -0.7225 -0.0742 -1.1093
 5441SOL    HW217396   1.152   7.888   5.507  0.5768  0.5246  0.3527
 5442SOL     OW17397   6.878   4.350   6.668  0.1920 -0.2391 -0.0863
 5442SOL    HW117398   6.930   4.272   6.651 -0.1481 -0.0863 -2.0879
 5442SOL    HW217399   6.801   4.340   6.612  0.4189  1.7771 -0.8348
 5443SOL     OW17400   3.948   4.465   7.276  0.4142  0.0857 -0.4969
 5443SOL    HW117401   4.017   4.475   7.342 -0.9145 -1.2719  1.2241
 5443SOL    HW217402   3.952   4.373   7.251  0.4914  0.4516 -1.8803
 5444SOL     OW17403   4.074   0.322   2.083  0.3683 -0.4311 -0.2388
 5444SOL    HW117404   4.156   0.281   2.057  0.4153 -0.6951  0.3130
 5444SOL    HW217405   4.007   0.255   2.068  0.5043 -0.8886  1.0930
 5445SOL     OW17406   7.935   2.385   6.899  0.6779  0.6027  0.2890
 5445SOL    HW117407   7.867   2.327   6.933  0.8181  1.1792  1.6293
 5445SOL    HW217408   7.926   2.380   6.804  0.1237 -0.9235  0.3894
 5446SOL     OW17409   2.087   2.581   0.431 -0.7915 -0.8573  0.5608
 5446SOL    HW117410   2.047   2.570   0.344  0.8347 -0.1903 -0.3238
 5446SOL    HW217411   2.138   2.502   0.444  1.3635  0.2715 -0.4881
 5447SOL     OW17412   2.885   5.360   2.260  0.1957  0.2431  0.1794
 5447SOL    HW117413   2.941   5.434   2.237  1.0951 -0.6863 -0.7273
 5447SOL    HW217414   2.868   5.316   2.177 -2.3287  0.7589  0.3304
 5448SOL     OW17415   6.425   1.916   5.516 -0.2524  0.7901 -0.0355
 5448SOL    HW117416   6.373   1.996   5.522  0.9190  1.5639  0.0086
 5448SOL    HW217417   6.476   1.927   5.436  0.4137  0.3827  0.3311
 5449SOL     OW17418   1.983   8.132   6.004  0.5502  0.2481 -0.3684
 5449SOL    HW117419   2.010   8.200   5.943  2.2987 -1.3812 -1.5158
 5449SOL    HW217420   1.940   8.066   5.950 -1.9974  0.7564  0.8548
 5450SOL     OW17421   7.337   6.851   3.827 -0.1574 -0.4630  0.5009
 5450SOL    HW117422   7.313   6.856   3.735 -1.6739  2.1585  0.9230
 5450SOL    HW217423   7.354   6.943   3.852  1.1732 -1.1978  2.6037
 5451SOL     OW17424   5.593   4.674   5.341 -0.1572 -0.0761 -0.3667
 5451SOL    HW117425   5.599   4.599   5.401 -2.2639  0.1191  0.2044
 5451SOL    HW217426   5.610   4.750   5.397  0.0860 -0.0326 -0.5045
 5452SOL     OW17427   5.792   6.039   6.993  0.4002 -0.5326  0.2384
 5452SOL    HW117428   5.737   6.092   7.051 -1.1733 -0.0664 -1.5616
 5452SOL    HW217429   5.879   6.043   7.032 -0.3926  0.5325  2.0184
 5453SOL     OW17430   5.435   6.984   7.371  0.1263 -0.2954  0.4471
 5453SOL    HW117431   5.408   7.013   7.458 -1.5848  0.6266 -0.3366
 5453SOL    HW217432   5.364   7.014   7.313 -0.1594 -3.2512 -0.9034
 5454SOL     OW17433   4.870   4.959   1.088 -0.0109 -0.1050 -0.2412
 5454SOL    HW117434   4.832   4.914   1.163  0.1692  0.9943  0.5269
 5454SOL    HW217435   4.796   4.995   1.041 -0.1619 -1.2339 -0.8979
 5455SOL     OW17436   8.119   5.213   3.133 -0.5151  0.2653 -0.1586
 5455SOL    HW117437   8.049   5.153   3.160  2.1630 -3.2217 -0.2896
 5455SOL    HW217438   8.080   5.266   3.064 -3.9277  0.9442  2.0383
 5456SOL     OW17439   2.848   3.759   2.704 -0.0589  0.0930  0.0552
 5456SOL    HW117440   2.864   3.852   2.716  1.8682  0.2033 -2.6172
 5456SOL    HW217441   2.931   3.717   2.726 -0.8213 -1.0084  0.9612
 5457SOL     OW17442   5.318   0.354   7.671  0.3515  0.8716 -0.0724
 5457SOL    HW117443   5.267   0.343   7.751  1.1813 -0.2715  0.3223
 5457SOL    HW217444   5.253   0.373   7.604 -0.6352 -0.6129  0.4020
 5458SOL     OW17445   4.002   7.949   0.712 -0.0508  0.2462 -0.2189
 5458SOL    HW117446   4.029   7.919   0.799  0.3930 -0.8756 -0.7314
 5458SOL    HW217447   4.037   7.884   0.652 -1.7987  0.0827 -1.1267
 5459SOL     OW17448   3.651   0.916   2.500 -0.6123  0.4332 -0.4792
 5459SOL    HW117449   3.657   0.825   2.528 -0.6182  0.0303 -1.7140
 5459SOL    HW217450   3.571   0.949   2.541 -2.1334 -0.9421 -2.1919
 5460SOL     OW17451   5.697   4.385   7.863  0.0823 -0.8002 -0.2696
 5460SOL    HW117452   5.701   4.481   7.858 -0.4707 -0.8103 -1.0042
 5460SOL    HW217453   5.620   4.367   7.916 -0.0731 -0.8432 -0.5093
 5461SOL     OW17454   6.449   7.672   5.018  0.1353  0.2083 -0.3355
 5461SOL    HW117455   6.441   7.748   5.076 -0.7437  1.2819 -1.8120
 5461SOL    HW217456   6.521   7.695   4.959  0.0037 -0.2120 -0.6600
 5462SOL     OW17457   3.587   7.539   5.462  0.4230  0.3110 -0.6218
 5462SOL    HW117458   3.626   7.599   5.526  1.3443 -1.2598  0.3636
 5462SOL    HW217459   3.658   7.518   5.402  0.0680  0.3115 -1.0459
 5463SOL     OW17460   3.022   5.979   1.226 -0.2616 -0.5410 -0.4883
 5463SOL    HW117461   2.932   6.010   1.217  0.6107  1.7422 -2.2989
 5463SOL    HW217462   3.065   6.006   1.145  2.4105 -0.2672  0.9190
 5464SOL     OW17463   5.713   3.186   6.974 -0.0751 -0.2468 -0.3554
 5464SOL    HW117464   5.749   3.261   7.022 -2.2553  1.6884 -1.4939
 5464SOL    HW217465   5.620   3.207   6.965 -0.0744 -1.2275 -4.0674
 5465SOL     OW17466   0.781   4.556   5.700 -0.2442  0.1958  0.0485
 5465SOL    HW117467   0.704   4.498   5.700 -1.6795  1.9943 -0.5682
 5465SOL    HW217468   0.836   4.522   5.630 -1.7929  0.4510 -1.3678
 5466SOL     OW17469   7.638   1.183   0.089 -0.5686  0.3888 -0.0564
 5466SOL    HW117470   7.625   1.199   0.182 -1.9472 -0.6571 -0.0383
 5466SOL    HW217471   7.675   1.095   0.084 -0.3253  0.5112 -0.4889
 5467SOL     OW17472   6.669   6.782   1.944  0.0816 -0.3021 -0.1668
 5467SOL    HW117473   6.652   6.864   1.898  1.9360  1.1969  1.6323
 5467SOL    HW217474   6.764   6.781   1.957 -0.0815 -1.9481  1.2412
 5468SOL     OW17475   0.268   4.082   7.702  0.6180  0.0964 -0.1037
 5468SOL    HW117476   0.306   4.057   7.618  0.9995 -0.1516  0.1340
 5468SOL    HW217477   0.329   4.046   7.767  0.5732  0.6853  0.2701
 5469SOL     OW17478   0.057   2.075   1.798 -0.5644 -0.2639  0.2199
 5469SOL    HW117479   0.028   2.166   1.802 -1.7456 -0.6047 -0.1281
 5469SOL    HW217480  -0.005   2.032   1.738 -0.3905 -1.4234  0.8258
 5470SOL     OW17481   1.726   4.026   4.865 -0.2343  0.0081 -0.1104
 5470SOL    HW117482   1.744   4.119   4.881 -1.5015  0.0000  1.5909
 5470SOL    HW217483   1.798   3.980   4.908 -0.1471  0.1832 -0.0682
 5471SOL     OW17484   2.664   2.789   2.515 -0.4454  0.1599 -0.4885
 5471SOL    HW117485   2.668   2.742   2.598  1.6744  2.9373  1.1346
 5471SOL    HW217486   2.752   2.778   2.477 -0.1244  2.1458 -0.3976
 5472SOL     OW17487   4.641   5.047   1.269 -0.2867  0.5978 -0.5229
 5472SOL    HW117488   4.550   5.018   1.262  0.2754 -1.5123  0.1182
 5472SOL    HW217489   4.665   5.027   1.359  1.6424 -1.7818 -1.4400
 5473SOL     OW17490   1.497   7.609   5.037  0.1665 -0.2277  0.0641
 5473SOL    HW117491   1.463   7.568   4.958 -0.6709 -0.1066  0.3471
 5473SOL    HW217492   1.583   7.642   5.013  0.8722 -2.1369 -0.1826
 5474SOL     OW17493   3.865   5.750   0.124 -0.5242  0.2411 -0.3953
 5474SOL    HW117494   3.834   5.840   0.120  1.5531  1.1898  2.0384
 5474SOL    HW217495   3.959   5.758   0.144 -0.7836 -2.3825  2.6306
 5475SOL     OW17496   7.484   1.232   3.408  0.1844  0.2342 -0.1421
 5475SOL    HW117497   7.551   1.295   3.434  0.1258  0.1251  0.2769
 5475SOL    HW217498   7.401   1.278   3.424 -0.0696 -1.3010  4.0873
 5476SOL     OW17499   5.602   2.808   6.988 -0.5162 -0.5738  0.1844
 5476SOL    HW117500   5.545   2.804   6.912  0.0345 -3.4010 -0.2136
 5476SOL    HW217501   5.545   2.789   7.063 -0.7446  0.4096  0.2633
 5477SOL     OW17502   8.041   5.908   2.960 -0.5455  0.1860  0.4743
 5477SOL    HW117503   8.134   5.923   2.943 -0.4520  0.6055  1.2932
 5477SOL    HW217504   8.014   5.845   2.894  0.4518 -0.3442  0.5567
 5478SOL     OW17505   6.897   3.711   3.719 -0.0688 -0.3584  0.7479
 5478SOL    HW117506   6.892   3.761   3.801  2.4757 -0.0506  0.7887
 5478SOL    HW217507   6.964   3.645   3.736  2.3286  1.2095 -1.7482
 5479SOL     OW17508   1.117   4.868   6.402 -0.2221 -0.1645  0.5718
 5479SOL    HW117509   1.120   4.951   6.449  1.0211 -0.3304  0.8360
 5479SOL    HW217510   1.199   4.866   6.352 -1.5905  0.1287 -1.8516
 5480SOL     OW17511   3.332   6.106   5.357  0.3144 -0.1761 -0.1761
 5480SOL    HW117512   3.382   6.127   5.278 -0.2098  1.0616 -0.2003
 5480SOL    HW217513   3.244   6.084   5.324  0.4420 -0.9167 -0.0294
 5481SOL     OW17514   6.237   7.487   1.754  0.2918 -0.0396 -0.0152
 5481SOL    HW117515   6.222   7.430   1.678  2.0743 -0.6348  0.0355
 5481SOL    HW217516   6.158   7.541   1.759 -0.6966 -1.2990 -1.1234
 5482SOL     OW17517   7.794   7.293   1.637  0.0918 -0.1052 -0.0465
 5482SOL    HW117518   7.812   7.243   1.717  0.2095 -1.7609 -1.0513
 5482SOL    HW217519   7.806   7.229   1.566 -2.3685  0.6693 -1.2561
 5483SOL     OW17520   7.524   7.755   6.234  0.1330  0.1685 -0.0553
 5483SOL    HW117521   7.578   7.827   6.266  1.2216 -0.8209  0.4319
 5483SOL    HW217522   7.551   7.743   6.143 -0.7346  0.9855 -0.4237
 5484SOL     OW17523   4.488   6.692   2.486  0.1401 -0.0206 -0.3293
 5484SOL    HW117524   4.569   6.742   2.473 -0.4257  0.7884 -0.8776
 5484SOL    HW217525   4.434   6.714   2.410 -0.2138 -1.3319 -0.4824
 5485SOL     OW17526   4.239   2.809   7.265  0.6271 -0.2055 -0.0541
 5485SOL    HW117527   4.168   2.773   7.212  0.2017  0.2032  0.2274
 5485SOL    HW217528   4.262   2.739   7.325  0.0389 -0.1374  0.2599
 5486SOL     OW17529   0.182   2.583   0.805  0.0409  0.3447  0.2753
 5486SOL    HW117530   0.245   2.560   0.874 -0.6163  0.0271  0.7769
 5486SOL    HW217531   0.164   2.501   0.760 -1.7977 -0.0769  1.6474
 5487SOL     OW17532   6.603   3.173   2.077  0.7219 -0.0288  0.7480
 5487SOL    HW117533   6.588   3.188   2.171  0.5031  0.8125  0.5844
 5487SOL    HW217534   6.610   3.261   2.040 -3.1556 -0.1431 -0.6912
 5488SOL     OW17535   8.086   4.545   5.246  0.0482  0.0295  0.5852
 5488SOL    HW117536   8.047   4.519   5.330 -2.0070  0.3839 -0.1816
 5488SOL    HW217537   8.116   4.464   5.207 -0.5985 -0.3791  0.9191
 5489SOL     OW17538   7.231   1.947   7.373 -0.4873  0.5634  0.3375
 5489SOL    HW117539   7.216   1.866   7.422 -0.1577 -1.3407 -2.4761
 5489SOL    HW217540   7.147   1.993   7.376 -2.0661 -1.9609 -1.4317
 5490SOL     OW17541   5.254   7.339   7.612  0.1386  0.4309  0.0668
 5490SOL    HW117542   5.228   7.251   7.641  0.6434 -0.6412 -2.3932
 5490SOL    HW217543   5.347   7.330   7.589 -0.2659  1.0289 -2.0173
 5491SOL     OW17544   6.597   0.101   2.125 -0.3862 -0.5305 -0.1095
 5491SOL    HW117545   6.670   0.041   2.137 -0.6004 -0.5445  1.2431
 5491SOL    HW217546   6.560   0.112   2.212  0.2579  2.3600 -0.0956
 5492SOL     OW17547   7.695   1.631   5.838  0.0912 -0.2473  0.0766
 5492SOL    HW117548   7.791   1.636   5.848  0.1606  2.0658 -1.1916
 5492SOL    HW217549   7.663   1.716   5.866 -1.5673 -0.7591 -0.1549
 5493SOL     OW17550   7.085   3.126   7.269 -0.1068  0.1133  0.2348
 5493SOL    HW117551   7.073   3.220   7.253  0.6624  0.1129 -0.3980
 5493SOL    HW217552   7.157   3.101   7.210 -0.7934 -1.0263 -0.1435
 5494SOL     OW17553   6.765   6.928   1.279  0.0720  0.1710  0.2270
 5494SOL    HW117554   6.709   6.868   1.231  1.7952 -1.0654 -0.2994
 5494SOL    HW217555   6.745   6.911   1.371 -1.7888  1.1451  0.0546
 5495SOL     OW17556   2.914   2.416   7.052  0.0235  0.5071 -0.4604
 5495SOL    HW117557   2.977   2.487   7.038  0.5936  0.2285  0.6392
 5495SOL    HW217558   2.950   2.342   7.002  0.5128  0.3828  0.0698
 5496SOL     OW17559   5.116   0.232   0.788  0.1129  0.0936 -0.1360
 5496SOL    HW117560   5.150   0.281   0.864  2.5274  1.1781 -1.7696
 5496SOL    HW217561   5.184   0.166   0.771  0.2523  0.6779 -2.0429
 5497SOL     OW17562   5.058   4.702   2.126 -1.0122 -0.1339 -0.2568
 5497SOL    HW117563   5.013   4.701   2.042 -1.2408  0.9207 -0.1547
 5497SOL    HW217564   5.151   4.695   2.104 -0.9581  1.6971 -0.6956
 5498SOL     OW17565   0.206   1.633   7.468 -0.1074  0.5625 -0.0315
 5498SOL    HW117566   0.213   1.538   7.467 -0.6739  0.4258  2.7488
 5498SOL    HW217567   0.138   1.652   7.403 -0.3704 -0.9532 -0.2444
 5499SOL     OW17568   7.889   1.662   5.216 -0.4511 -0.4342 -0.1080
 5499SOL    HW117569   7.935   1.583   5.243 -0.1865 -0.4230 -0.5164
 5499SOL    HW217570   7.958   1.719   5.182 -0.7574 -0.3896 -0.6560
 5500SOL     OW17571   4.995   1.158   7.578 -0.1426  0.3043 -0.2616
 5500SOL    HW117572   4.981   1.241   7.534 -0.2926 -0.2703 -1.3347
 5500SOL    HW217573   5.075   1.123   7.538  0.8264  0.6314  1.2877
 5501SOL     OW17574   1.627   6.467   6.620  0.2678  0.4026  0.1014
 5501SOL    HW117575   1.678   6.543   6.649 -0.7814  1.5675 -0.9708
 5501SOL    HW217576   1.566   6.503   6.556  0.5424 -1.5556 -1.3490
 5502SOL     OW17577   4.207   2.350   3.907  0.5113  0.6332 -0.0997
 5502SOL    HW117578   4.220   2.384   3.819  0.8762  2.1690  0.5130
 5502SOL    HW217579   4.125   2.390   3.937 -0.3191 -0.9364 -0.2136
 5503SOL     OW17580   4.755   0.002   2.337  0.0617 -0.0430  0.1693
 5503SOL    HW117581   4.814   0.065   2.378 -0.2844  0.2742  0.1786
 5503SOL    HW217582   4.708   0.052   2.270  0.9971 -0.6700 -1.0063
 5504SOL     OW17583   2.777   5.421   5.340 -0.2457  0.0941  0.1156
 5504SOL    HW117584   2.861   5.433   5.385 -1.0345 -0.4493  1.8033
 5504SOL    HW217585   2.801   5.401   5.249  1.4201  0.4200  0.4471
 5505SOL     OW17586   1.546   6.545   5.481 -0.7539  0.2538  0.5809
 5505SOL    HW117587   1.604   6.485   5.527 -0.8762 -0.7134 -0.4901
 5505SOL    HW217588   1.598   6.624   5.469 -0.2583  0.0244  1.1573
 5506SOL     OW17589   3.737   3.041   4.194  0.2509 -0.1696  0.4014
 5506SOL    HW117590   3.778   2.955   4.207  0.0810 -0.2367  0.4892
 5506SOL    HW217591   3.677   3.029   4.121  2.5614  0.6641 -1.8072
 5507SOL     OW17592   5.513   7.026   2.174  0.1226  0.3046  0.0018
 5507SOL    HW117593   5.488   6.962   2.108  0.8812  0.6553 -0.6294
 5507SOL    HW217594   5.590   6.989   2.216  0.4597  0.7260 -0.2475
 5508SOL     OW17595   3.266   6.096   6.477 -0.0115  0.0207  0.1011
 5508SOL    HW117596   3.336   6.126   6.419  1.1358  0.2619  1.5623
 5508SOL    HW217597   3.303   6.019   6.520 -0.9172 -0.2573  0.3934
 5509SOL     OW17598   2.466   5.383   2.433  0.3171 -0.2269  0.4155
 5509SOL    HW117599   2.514   5.444   2.378  1.7430  0.5003  2.3495
 5509SOL    HW217600   2.375   5.412   2.427  0.5462  0.2779 -0.9138
 5510SOL     OW17601   0.392   3.857   0.385 -0.8239 -0.2907  0.3800
 5510SOL    HW117602   0.478   3.815   0.384 -1.2067 -1.1980 -2.2230
 5510SOL    HW217603   0.385   3.896   0.472  1.7635 -1.0999  1.0286
 5511SOL     OW17604   4.456   7.355   3.062 -0.5805  0.6229 -0.2120
 5511SOL    HW117605   4.520   7.394   3.003 -0.0666 -0.2005 -0.2190
 5511SOL    HW217606   4.373   7.363   3.016 -0.0282 -1.0318 -1.5945
 5512SOL     OW17607   0.407   7.461   5.661 -0.4705 -0.3572 -0.4605
 5512SOL    HW117608   0.356   7.509   5.596 -0.6853 -0.4674 -0.3744
 5512SOL    HW217609   0.487   7.436   5.615 -0.1408  0.4958 -0.3691
 5513SOL     OW17610   4.150   3.709   0.191  0.4991  0.2160 -0.0403
 5513SOL    HW117611   4.116   3.622   0.169  0.3414  0.4256 -0.6568
 5513SOL    HW217612   4.078   3.753   0.236  0.4942  0.1105  0.0532
 5514SOL     OW17613   3.704   1.599   5.090 -0.5469 -0.0341  0.0615
 5514SOL    HW117614   3.655   1.517   5.100 -0.7416  0.1391  0.5341
 5514SOL    HW217615   3.745   1.613   5.175  1.3999 -0.8565 -0.6997
 5515SOL     OW17616   5.289   6.134   3.812 -0.2540 -0.5954 -0.0680
 5515SOL    HW117617   5.361   6.165   3.758 -1.3653  0.8081 -0.8092
 5515SOL    HW217618   5.271   6.045   3.780 -0.0706 -0.2573 -1.1451
 5516SOL     OW17619   6.539   2.170   6.531  0.0998 -0.4005 -0.2159
 5516SOL    HW117620   6.470   2.226   6.567  1.4786  0.7121  0.8351
 5516SOL    HW217621   6.494   2.114   6.469 -1.4089  1.8235 -1.2786
 5517SOL     OW17622   4.156   3.293   0.129  0.0375 -0.3907  0.2780
 5517SOL    HW117623   4.137   3.384   0.105 -0.6717 -0.7382 -0.5130
 5517SOL    HW217624   4.072   3.257   0.158 -0.1281 -1.3352 -1.2482
 5518SOL     OW17625   5.508   4.348   8.061  0.8670 -0.2574 -0.1894
 5518SOL    HW117626   5.424   4.319   8.026 -0.6221  1.0197  2.0702
 5518SOL    HW217627   5.552   4.267   8.088 -0.2908 -0.8795 -0.0897
 5519SOL     OW17628   1.762   5.931   5.720  0.3072 -0.0600 -0.1361
 5519SOL    HW117629   1.696   5.932   5.789  0.5482  1.2282  0.1058
 5519SOL    HW217630   1.795   5.841   5.719 -0.1261 -0.2450  1.0194
 5520SOL     OW17631   6.037   6.841   6.006 -0.1096 -0.4316  0.1894
 5520SOL    HW117632   6.007   6.890   6.083  0.7048 -0.0247  0.2581
 5520SOL    HW217633   6.018   6.899   5.932 -0.3890 -0.5927  0.1322
 5521SOL     OW17634   3.183   0.158   6.131  0.8157 -0.8664  0.4220
 5521SOL    HW117635   3.247   0.091   6.105 -0.5335 -1.8655 -0.5043
 5521SOL    HW217636   3.198   0.171   6.224  1.0411 -2.5897  0.6546
 5522SOL     OW17637   0.923   0.952   3.964  0.0012  0.2102 -0.2071
 5522SOL    HW117638   1.003   0.968   3.913 -0.4908  0.6981 -0.8450
 5522SOL    HW217639   0.899   0.862   3.941  1.3134 -0.5886  1.3437
 5523SOL     OW17640   3.549   0.698   1.593 -0.7336 -0.5316  0.7148
 5523SOL    HW117641   3.492   0.623   1.611 -1.5966  0.3276  1.6887
 5523SOL    HW217642   3.496   0.755   1.538 -0.3753 -0.2713  0.6382
 5524SOL     OW17643   5.127   3.947   2.807  0.5513  0.1694  0.8245
 5524SOL    HW117644   5.072   3.902   2.743  0.5830  1.9947 -0.5746
 5524SOL    HW217645   5.159   4.024   2.761 -0.5096  2.3487  3.4119
 5525SOL     OW17646   1.210   5.848   4.064  0.0095  0.1372 -0.4184
 5525SOL    HW117647   1.299   5.845   4.098  0.5450  1.2446 -1.6621
 5525SOL    HW217648   1.165   5.776   4.110  0.8496  1.0682  2.0334
 5526SOL     OW17649   4.958   6.576   3.887  0.1517  0.1265  0.2776
 5526SOL    HW117650   4.999   6.662   3.882  0.4693  0.0451  1.2150
 5526SOL    HW217651   5.031   6.517   3.908 -0.3574 -0.0869  1.4956
 5527SOL     OW17652   2.734   7.936   5.216 -0.6705  0.4147  0.3398
 5527SOL    HW117653   2.790   7.952   5.292 -0.5820  3.6697 -0.2847
 5527SOL    HW217654   2.650   7.908   5.254  0.1516 -0.6759  1.4421
 5528SOL     OW17655   7.200   7.303   7.072 -0.2196  0.0416 -0.3687
 5528SOL    HW117656   7.218   7.374   7.134  0.3185 -0.1616 -0.2908
 5528SOL    HW217657   7.286   7.265   7.053 -0.6839 -1.7347  0.9299
 5529SOL     OW17658   7.337   2.741   6.533 -0.0005  0.8192  0.6524
 5529SOL    HW117659   7.417   2.697   6.506 -0.6680  0.4817 -0.9131
 5529SOL    HW217660   7.342   2.746   6.629  0.8080 -1.2865  0.7618
 5530SOL     OW17661   3.250   3.711   1.766 -0.0473 -0.3172 -0.8582
 5530SOL    HW117662   3.308   3.665   1.826 -1.4792  0.9441  1.6647
 5530SOL    HW217663   3.198   3.642   1.725  1.1511 -1.2295 -0.9234
 5531SOL     OW17664   1.627   5.570   1.511  0.0547  0.2106  0.2717
 5531SOL    HW117665   1.697   5.539   1.453  1.4446  0.3067  1.8114
 5531SOL    HW217666   1.627   5.508   1.584  0.0921  1.4827  1.3951
 5532SOL     OW17667   2.366   5.055   4.068 -0.1251 -0.2540 -0.2567
 5532SOL    HW117668   2.410   5.139   4.059 -0.9140  0.2471  0.4677
 5532SOL    HW217669   2.416   5.009   4.135 -0.5799  0.2401  0.4294
 5533SOL     OW17670   1.178   7.803   4.867 -0.3140  0.1045  0.0023
 5533SOL    HW117671   1.172   7.898   4.855 -0.0367  0.3953  1.7819
 5533SOL    HW217672   1.155   7.790   4.959  0.5989 -1.4474  0.0388
 5534SOL     OW17673   1.469   3.696   5.707 -0.0111 -0.3301  0.7886
 5534SOL    HW117674   1.451   3.753   5.782  1.0253 -1.0452  1.6060
 5534SOL    HW217675   1.453   3.608   5.740  0.7943 -0.6760  0.2669
 5535SOL     OW17676   5.769   5.508   3.778  0.1255 -1.1463  0.0170
 5535SOL    HW117677   5.785   5.571   3.849  0.1901 -0.0717 -0.9233
 5535SOL    HW217678   5.694   5.457   3.808  0.1985 -0.7618  0.8960
 5536SOL     OW17679   7.066   8.006   4.224  0.5988 -0.6559 -0.6758
 5536SOL    HW117680   7.072   8.026   4.317 -0.2636 -0.4084 -0.6688
 5536SOL    HW217681   7.152   8.028   4.189  0.7668 -0.2728 -0.0301
 5537SOL     OW17682   4.860   3.479   4.082 -0.7132 -0.3929 -0.5264
 5537SOL    HW117683   4.914   3.462   4.005 -0.7345 -1.4422 -0.3303
 5537SOL    HW217684   4.771   3.460   4.054 -0.4740 -3.3245  0.4031
 5538SOL     OW17685   0.939   7.381   3.948  0.0858  0.1832 -0.2168
 5538SOL    HW117686   1.001   7.437   3.995 -1.9696  1.6072  0.9469
 5538SOL    HW217687   0.903   7.437   3.880 -1.4121  0.0522  0.4388
 5539SOL     OW17688   7.424   1.393   7.961 -0.4931  0.2217  0.0931
 5539SOL    HW117689   7.333   1.412   7.936  0.1900  0.5937 -2.3223
 5539SOL    HW217690   7.455   1.474   8.001 -1.1094  0.2025  0.6357
 5540SOL     OW17691   4.758   3.672   7.069  0.3671 -0.4779  0.4804
 5540SOL    HW117692   4.668   3.645   7.084  0.2059  0.5607  1.5848
 5540SOL    HW217693   4.798   3.599   7.022 -1.4171 -0.3460 -1.3735
 5541SOL     OW17694   1.194   7.922   7.939  0.2395  0.5393  0.6713
 5541SOL    HW117695   1.181   7.953   7.849 -0.8549 -2.6867 -0.4306
 5541SOL    HW217696   1.286   7.940   7.957  0.1783  2.3861 -0.5913
 5542SOL     OW17697   7.015   0.251   1.634 -0.7825  0.2337  0.6218
 5542SOL    HW117698   6.976   0.198   1.703  2.5949 -1.3269  1.5327
 5542SOL    HW217699   7.033   0.189   1.563  0.6153  0.6913  0.5310
 5543SOL     OW17700   3.121   3.958   0.580  0.1495  0.1525  0.1470
 5543SOL    HW117701   3.164   4.040   0.556 -0.5580  0.9144  1.3695
 5543SOL    HW217702   3.080   3.976   0.665 -0.0050 -1.4780  0.4530
 5544SOL     OW17703   0.673   3.975   5.868  0.4344  0.4487 -0.3981
 5544SOL    HW117704   0.727   4.030   5.926  0.5591 -0.2499  0.1609
 5544SOL    HW217705   0.586   3.977   5.907  0.3269  0.6310 -0.6457
 5545SOL     OW17706   3.300   4.025   1.316  0.4564  0.7145  1.0118
 5545SOL    HW117707   3.208   4.050   1.330  0.1456  1.1495 -1.3333
 5545SOL    HW217708   3.322   3.972   1.392 -1.7395  0.6130  1.6643
 5546SOL     OW17709   4.714   0.286   7.224  0.0959 -0.0194  0.0855
 5546SOL    HW117710   4.708   0.374   7.262  0.9141  0.4698 -0.8982
 5546SOL    HW217711   4.655   0.288   7.149  0.9184  0.0319 -0.5687
 5547SOL     OW17712   7.994   6.246   5.423  0.1593  0.2227 -0.1375
 5547SOL    HW117713   7.997   6.332   5.465  0.1769  0.1231  0.0640
 5547SOL    HW217714   8.011   6.184   5.494 -0.5112  0.0113 -0.1621
 5548SOL     OW17715   3.063   1.091   3.484 -0.5562  0.7647  0.0978
 5548SOL    HW117716   3.063   1.184   3.506  0.8720  1.1843 -1.5049
 5548SOL    HW217717   3.112   1.050   3.556  1.4951  1.6986 -0.6832
 5549SOL     OW17718   0.266   2.258   6.027  0.3140  0.4805 -0.4966
 5549SOL    HW117719   0.291   2.233   6.116  2.3861  1.7508 -0.6613
 5549SOL    HW217720   0.174   2.284   6.035  0.5899  1.0920  1.4004
 5550SOL     OW17721   1.137   7.413   7.202  0.1225 -0.0056 -0.2012
 5550SOL    HW117722   1.130   7.478   7.272  0.7638  1.3445 -1.3405
 5550SOL    HW217723   1.192   7.455   7.136  1.0634 -1.9462 -0.7308
 5551SOL     OW17724   4.147   1.391   2.795  0.1452 -0.3133 -0.3114
 5551SOL    HW117725   4.232   1.425   2.769 -0.5058  1.5471 -0.1423
 5551SOL    HW217726   4.142   1.405   2.890 -0.6764  0.3868 -0.4458
 5552SOL     OW17727   5.676   2.891   0.421  0.0843 -0.4842  0.4328
 5552SOL    HW117728   5.653   2.800   0.442 -1.3218  0.0091  1.0944
 5552SOL    HW217729   5.750   2.911   0.478 -1.1340 -0.4545  2.0394
 5553SOL     OW17730   4.217   0.077   0.013 -0.6002 -0.4341  0.1511
 5553SOL    HW117731   4.262   0.117   0.087 -0.4689  0.0874 -0.2043
 5553SOL    HW217732   4.272   0.002  -0.011 -0.0865  0.0197 -0.0858
 5554SOL     OW17733   1.946   7.159   8.124  0.2060  0.2427 -0.4797
 5554SOL    HW117734   1.991   7.158   8.208  1.2614  4.4588 -0.7604
 5554SOL    HW217735   1.929   7.067   8.104  3.0740 -1.1540  2.6244
 5555SOL     OW17736   4.753   2.217   2.057 -0.4084 -0.2257  0.2078
 5555SOL    HW117737   4.770   2.244   2.147  0.7155 -1.3262  0.3514
 5555SOL    HW217738   4.838   2.190   2.023 -1.0148 -0.9973 -0.7747
 5556SOL     OW17739   3.810   3.392   2.047  0.1787 -0.3557 -0.3734
 5556SOL    HW117740   3.786   3.300   2.061 -0.5167  0.0422  1.3252
 5556SOL    HW217741   3.902   3.397   2.073  0.2332 -0.5818 -0.5211
 5557SOL     OW17742   0.486   2.733   6.954  0.3031  0.6455  0.1744
 5557SOL    HW117743   0.441   2.801   7.004  2.6160  2.8070 -0.4557
 5557SOL    HW217744   0.428   2.657   6.959 -2.6311  2.7352  0.5915
 5558SOL     OW17745   1.489   4.244   1.093 -0.1829  0.1754 -0.3488
 5558SOL    HW117746   1.495   4.258   1.188 -1.5210 -2.0636  0.1231
 5558SOL    HW217747   1.529   4.159   1.078  1.8826  1.3595 -2.1585
 5559SOL     OW17748   5.973   3.105   3.083  0.4152 -0.1866 -0.1243
 5559SOL    HW117749   6.069   3.106   3.083  0.4749  2.1300 -1.5336
 5559SOL    HW217750   5.949   3.145   3.167  0.5444 -2.9280  1.3321
 5560SOL     OW17751   2.224   0.549   0.174  0.2331  0.0279  0.2337
 5560SOL    HW117752   2.134   0.580   0.187  0.1263 -0.3359  0.3806
 5560SOL    HW217753   2.255   0.528   0.262  0.3527 -0.1409  0.1509
 5561SOL     OW17754   5.058   2.851   8.144 -0.5789 -0.0125  0.7618
 5561SOL    HW117755   5.031   2.907   8.218 -1.1408  0.0217  0.5348
 5561SOL    HW217756   4.980   2.800   8.123 -0.6233  0.4647 -0.2521
 5562SOL     OW17757   1.548   3.445   0.122  0.4037  0.0386  0.0542
 5562SOL    HW117758   1.636   3.407   0.123 -0.4033 -2.2072 -2.0683
 5562SOL    HW217759   1.513   3.427   0.209  1.5784 -0.2164  0.4901
 5563SOL     OW17760   2.913   4.961   1.491  0.4580  0.0372  0.1558
 5563SOL    HW117761   2.967   4.959   1.570 -1.4126  0.6355  1.5185
 5563SOL    HW217762   2.828   4.993   1.521  0.2671  2.4030 -2.4521
 5564SOL     OW17763   0.466   1.972   0.435 -0.8706 -0.0743 -0.6775
 5564SOL    HW117764   0.431   2.034   0.500  1.8201 -1.0544  1.9772
 5564SOL    HW217765   0.554   2.005   0.417 -0.3356 -1.7035 -1.1994
 5565SOL     OW17766   1.837   4.173   8.036 -0.3327 -0.4166 -0.7415
 5565SOL    HW117767   1.932   4.161   8.041 -0.3050 -0.4348 -1.2529
 5565SOL    HW217768   1.800   4.090   8.066 -0.2088  0.0092  0.6453
 5566SOL     OW17769   0.344   6.785   4.335  0.2094 -0.7305  0.5282
 5566SOL    HW117770   0.420   6.840   4.352  0.4956 -1.5794  2.1414
 5566SOL    HW217771   0.380   6.703   4.300 -0.2820  0.4212 -3.1208
 5567SOL     OW17772   6.463   4.541   0.398  0.2763  0.2228  0.0122
 5567SOL    HW117773   6.513   4.596   0.458  0.6536 -0.3196  0.1982
 5567SOL    HW217774   6.490   4.451   0.418  0.3815  0.0266 -0.9452
 5568SOL     OW17775   1.015   5.712   1.521 -0.0152  0.3561  0.0569
 5568SOL    HW117776   0.924   5.684   1.514  0.3734 -1.1390  0.5913
 5568SOL    HW217777   1.011   5.796   1.565 -1.0503 -0.6291  1.9503
 5569SOL     OW17778   1.444   0.658   6.862 -0.5028  0.5139 -0.1867
 5569SOL    HW117779   1.397   0.621   6.937 -0.8726  2.6491  0.7085
 5569SOL    HW217780   1.455   0.584   6.802  1.9964 -1.9521  2.9228
 5570SOL     OW17781   4.882   3.259   5.408 -0.2653 -0.0558 -0.1797
 5570SOL    HW117782   4.901   3.310   5.487  2.7096 -1.1752 -0.0707
 5570SOL    HW217783   4.917   3.172   5.426 -0.9300 -0.7960 -2.1699
 5571SOL     OW17784   4.750   0.152   0.170 -0.0158  0.7250 -0.1698
 5571SOL    HW117785   4.707   0.177   0.088 -1.8105 -0.8635  0.2083
 5571SOL    HW217786   4.691   0.181   0.239  0.8784  0.9402  0.5328
 5572SOL     OW17787   5.763   1.444   6.961  0.0921  0.4635 -0.0585
 5572SOL    HW117788   5.729   1.452   7.050  0.1865 -0.4829  0.0708
 5572SOL    HW217789   5.857   1.431   6.971 -0.0085 -0.4504 -0.2544
 5573SOL     OW17790   1.569   5.377   1.023 -0.5716 -0.1129  0.1574
 5573SOL    HW117791   1.571   5.450   0.963  1.5183  0.4627  0.8459
 5573SOL    HW217792   1.568   5.417   1.110  0.3619 -0.8605  0.5398
 5574SOL     OW17793   5.109   0.924   3.617 -0.2078 -0.4750 -0.1216
 5574SOL    HW117794   5.042   0.975   3.662 -1.3120 -0.8690 -1.2759
 5574SOL    HW217795   5.165   0.989   3.576 -1.8012 -0.1165 -1.8672
 5575SOL     OW17796   0.550   1.706   6.547  0.2830 -0.1795  0.0449
 5575SOL    HW117797   0.472   1.755   6.575  0.4604 -0.7389  1.5736
 5575SOL    HW217798   0.618   1.731   6.609  1.0563 -0.4936 -0.6531
 5576SOL     OW17799   1.661   1.302   1.714  0.1066  0.2861 -0.2025
 5576SOL    HW117800   1.744   1.327   1.754  1.3077 -1.4661 -1.4739
 5576SOL    HW217801   1.660   1.346   1.629  1.4019 -2.3278 -1.6714
 5577SOL     OW17802   4.499   7.214   3.875  0.0412 -0.8839  0.5690
 5577SOL    HW117803   4.576   7.267   3.897 -0.9499  0.0942  1.8603
 5577SOL    HW217804   4.533   7.125   3.868  1.8558 -0.1106 -2.1594
 5578SOL     OW17805   3.317   1.103   6.516 -0.2852 -0.0233  0.0616
 5578SOL    HW117806   3.297   1.117   6.609  1.1022 -1.4448  0.6314
 5578SOL    HW217807   3.336   1.190   6.482 -0.1260  0.4489  1.2999
 5579SOL     OW17808   7.670   1.449   3.489 -0.1797  0.0056 -0.0069
 5579SOL    HW117809   7.756   1.475   3.521 -0.1771 -0.2728  0.2130
 5579SOL    HW217810   7.612   1.520   3.517  0.1162  0.6208 -0.8928
 5580SOL     OW17811   6.923   2.506   6.478  0.4249  0.3169  0.9123
 5580SOL    HW117812   6.962   2.424   6.509 -1.1871 -0.8514 -0.0059
 5580SOL    HW217813   6.879   2.542   6.554  1.6693  0.6962  1.4871
 5581SOL     OW17814   1.322   0.844   0.503  0.5414  0.1254 -0.3560
 5581SOL    HW117815   1.395   0.820   0.561 -0.2550  1.1084  1.1162
 5581SOL    HW217816   1.345   0.932   0.472  0.3093  0.1623 -0.4210
 5582SOL     OW17817   1.791   2.948   5.490  0.2865 -0.5543  0.4700
 5582SOL    HW117818   1.828   3.007   5.425 -0.8376  0.3246  0.6032
 5582SOL    HW217819   1.861   2.885   5.508  0.7383 -0.5992 -1.3066
 5583SOL     OW17820   3.231   2.206   7.432 -0.3221  0.1054 -0.1397
 5583SOL    HW117821   3.203   2.151   7.358  0.4169 -0.3961 -0.0595
 5583SOL    HW217822   3.323   2.182   7.446  0.0747  1.4993 -0.2156
 5584SOL     OW17823   5.663   2.264   0.292  0.2346  0.6949 -0.0056
 5584SOL    HW117824   5.635   2.197   0.354  1.1359  0.4339  0.1417
 5584SOL    HW217825   5.639   2.347   0.333  1.8093  0.5828  1.2494
 5585SOL     OW17826   7.475   0.547   4.155 -0.3848 -0.1646  0.5517
 5585SOL    HW117827   7.476   0.618   4.091 -1.1397 -0.6177  0.0095
 5585SOL    HW217828   7.560   0.504   4.146 -0.8397 -0.8262 -0.8656
 5586SOL     OW17829   5.578   0.893   1.368 -0.1956 -0.4192  0.2235
 5586SOL    HW117830   5.553   0.844   1.446  0.3863 -0.3487  0.4610
 5586SOL    HW217831   5.665   0.928   1.389 -0.4583  0.4309 -0.0671
 5587SOL     OW17832   7.019   0.796   5.219  0.5123 -0.4586  0.3608
 5587SOL    HW117833   7.017   0.830   5.309 -0.0532  0.3277  0.0706
 5587SOL    HW217834   7.079   0.854   5.173 -0.2997  0.0495 -0.0939
 5588SOL     OW17835   3.939   2.198   3.844  0.0522 -0.3540  0.1448
 5588SOL    HW117836   3.923   2.275   3.899  0.2581 -0.4077  0.2806
 5588SOL    HW217837   3.976   2.133   3.903  1.9170  0.1708 -0.3641
 5589SOL     OW17838   1.763   4.342   5.647  0.0021 -0.3261  0.7029
 5589SOL    HW117839   1.718   4.311   5.568 -0.2231  0.8446  0.3455
 5589SOL    HW217840   1.856   4.332   5.627 -0.0630 -0.4146  0.4422
 5590SOL     OW17841   1.254   8.148   5.850  0.1766 -0.3960 -0.2794
 5590SOL    HW117842   1.283   8.057   5.854 -0.0171 -0.4322  0.3434
 5590SOL    HW217843   1.322   8.197   5.897 -0.4596 -0.4084  0.6738
 5591SOL     OW17844   0.401   8.114   2.647  0.0074 -0.1203  0.6210
 5591SOL    HW117845   0.434   8.170   2.717  1.0457 -0.4266  0.3985
 5591SOL    HW217846   0.464   8.126   2.576 -0.8062 -0.1236 -0.1220
 5592SOL     OW17847   4.913   6.891   1.355  0.3218  0.2266 -0.1794
 5592SOL    HW117848   4.963   6.927   1.428 -0.3456  0.5892  0.1098
 5592SOL    HW217849   4.928   6.952   1.282  0.0196  0.5321  0.0110
 5593SOL     OW17850   5.360   2.371   0.980  0.3714 -0.1408  0.1888
 5593SOL    HW117851   5.288   2.424   0.945  1.0236  0.9232  0.3949
 5593SOL    HW217852   5.348   2.375   1.075  0.7524  0.1242  0.2277
 5594SOL     OW17853   3.484   1.399   5.101 -0.0056  0.2648  0.2182
 5594SOL    HW117854   3.441   1.451   5.034  0.0824  0.5537  0.3842
 5594SOL    HW217855   3.426   1.324   5.115 -0.1406  0.3270 -0.0068
 5595SOL     OW17856   4.659   3.157   1.495 -0.3559  0.2534 -0.0890
 5595SOL    HW117857   4.567   3.182   1.483 -0.2084  0.6010 -0.5499
 5595SOL    HW217858   4.656   3.065   1.520 -0.9816  0.8690  2.4787
 5596SOL     OW17859   1.848   7.981   0.428  0.0337 -0.2956  0.4695
 5596SOL    HW117860   1.899   8.063   0.427 -1.5433  0.7609 -1.6576
 5596SOL    HW217861   1.825   7.967   0.336 -0.8206 -2.4761  0.9682
 5597SOL     OW17862   8.020   6.756   5.008 -0.1766 -0.7027 -0.2902
 5597SOL    HW117863   8.104   6.775   4.965  0.2139 -0.1719  0.6655
 5597SOL    HW217864   7.954   6.797   4.953  0.4221  1.0972  0.2748
 5598SOL     OW17865   7.289   0.136   7.947  0.0041  0.1963 -0.1175
 5598SOL    HW117866   7.344   0.164   8.020 -0.8198 -0.2098  0.6824
 5598SOL    HW217867   7.201   0.165   7.970 -0.1797  0.6101 -1.2543
 5599SOL     OW17868   7.502   5.062   6.851 -0.1708 -0.4462  0.3760
 5599SOL    HW117869   7.407   5.053   6.860 -0.2667  2.1477  4.9503
 5599SOL    HW217870   7.538   4.987   6.897 -0.1878  0.5741  2.1393
 5600SOL     OW17871   7.456   0.326   8.140 -0.3663 -0.0223 -0.3443
 5600SOL    HW117872   7.405   0.312   8.220 -0.1651 -3.3098 -0.6776
 5600SOL    HW217873   7.548   0.327   8.170 -0.3631  1.7068 -0.2670
 5601SOL     OW17874   8.110   6.961   6.095 -0.3541  0.6546  0.2173
 5601SOL    HW117875   8.111   6.967   6.190  1.5251 -2.5007  0.5427
 5601SOL    HW217876   8.039   6.900   6.074  1.1679 -1.1087 -0.0629
 5602SOL     OW17877   3.370   1.718   6.569 -0.2067  0.3002  0.4461
 5602SOL    HW117878   3.344   1.711   6.661  0.0298 -1.5985  0.4046
 5602SOL    HW217879   3.456   1.677   6.565 -0.9170 -1.1471 -0.8893
 5603SOL     OW17880   5.981   0.405   2.201 -0.1625  0.4621 -0.6578
 5603SOL    HW117881   5.947   0.385   2.113  0.5525 -1.9688 -0.4438
 5603SOL    HW217882   6.075   0.414   2.189 -0.2187  1.5692 -0.3473
 5604SOL     OW17883   6.650   8.113   5.149  0.1081  0.6410 -0.0291
 5604SOL    HW117884   6.653   8.091   5.056  0.8577  0.1651  0.0997
 5604SOL    HW217885   6.740   8.135   5.171  0.3181 -1.0085  0.9833
 5605SOL     OW17886   4.370   2.274   3.054 -0.0226  0.1527  0.4245
 5605SOL    HW117887   4.431   2.299   2.986  0.8794 -0.6006  0.9238
 5605SOL    HW217888   4.306   2.219   3.010 -0.9150  1.7089 -0.2890
 5606SOL     OW17889   0.989   2.501   7.845  0.1089  0.3041  0.3727
 5606SOL    HW117890   1.037   2.421   7.863 -0.5912 -0.1835  0.1284
 5606SOL    HW217891   0.898   2.473   7.835  0.0246  0.9528 -0.9069
 5607SOL     OW17892   7.205   6.891   1.057  0.5252  0.3876 -0.2533
 5607SOL    HW117893   7.148   6.894   1.133  0.5784  0.3067 -0.2104
 5607SOL    HW217894   7.294   6.891   1.093  0.5713  1.3978 -0.3373
 5608SOL     OW17895   5.342   7.809   1.318 -0.8093 -1.0154 -0.1532
 5608SOL    HW117896   5.356   7.778   1.228 -2.7544 -0.5579 -0.6651
 5608SOL    HW217897   5.419   7.780   1.366 -0.4644 -2.6755 -1.6236
 5609SOL     OW17898   3.702   2.658   5.062  0.0079  0.1119 -0.0705
 5609SOL    HW117899   3.665   2.703   4.987 -0.9599 -0.7607 -0.1268
 5609SOL    HW217900   3.639   2.671   5.132  0.3413 -0.0663  0.2721
 5610SOL     OW17901   1.136   3.367   5.362 -0.1040 -0.1920 -0.2394
 5610SOL    HW117902   1.224   3.364   5.324 -0.0946 -0.5783 -0.1928
 5610SOL    HW217903   1.128   3.284   5.409  0.3878  0.8038  1.7244
 5611SOL     OW17904   5.003   4.748   2.824 -0.1340  0.1884  0.1884
 5611SOL    HW117905   5.001   4.841   2.847  0.2784  0.3387 -0.3679
 5611SOL    HW217906   4.911   4.725   2.811 -0.2134  0.6105 -0.0215
 5612SOL     OW17907   6.065   5.786   7.048  0.3185 -0.0202 -0.8722
 5612SOL    HW117908   6.102   5.698   7.048  1.8381  0.5599  0.4327
 5612SOL    HW217909   6.001   5.785   6.977 -1.2586 -2.7853  0.4031
 5613SOL     OW17910   3.053   3.785   5.929  0.1767  0.9979  0.0215
 5613SOL    HW117911   3.010   3.846   5.988  2.2471  2.0622  0.5234
 5613SOL    HW217912   3.024   3.811   5.842 -0.3579  1.5207  0.3486
 5614SOL     OW17913   6.028   1.089   2.867  0.6489  0.2308  0.0563
 5614SOL    HW117914   5.957   1.054   2.921  0.0642  0.3314 -0.6375
 5614SOL    HW217915   6.060   1.165   2.916  0.7915 -0.2627  0.7426
 5615SOL     OW17916   8.130   7.557   6.038 -0.5492  0.4949 -0.0792
 5615SOL    HW117917   8.050   7.566   6.090 -1.0160  1.7926 -0.9588
 5615SOL    HW217918   8.110   7.602   5.956  1.1073  0.9047 -0.2945
 5616SOL     OW17919   6.816   2.340   4.240 -0.0161 -0.2349 -0.3964
 5616SOL    HW117920   6.897   2.347   4.189 -0.8307  1.0563 -1.6032
 5616SOL    HW217921   6.842   2.297   4.321  2.9850  4.1861  1.4058
 5617SOL     OW17922   8.145   7.335   5.377  0.3567 -0.3633  0.5337
 5617SOL    HW117923   8.151   7.428   5.356  2.1277 -0.9252 -1.8803
 5617SOL    HW217924   8.184   7.327   5.464  1.2747  1.0328  0.2819
 5618SOL     OW17925   0.508   2.854   5.348 -0.1043  0.0331  0.1615
 5618SOL    HW117926   0.491   2.760   5.353 -0.1140  0.0839  1.4406
 5618SOL    HW217927   0.483   2.878   5.259 -0.9381 -1.0211  0.0869
 5619SOL     OW17928   0.488   2.086   3.589  0.4248 -0.2088  0.4478
 5619SOL    HW117929   0.552   2.032   3.635  1.8881  1.7437  0.8778
 5619SOL    HW217930   0.506   2.175   3.620 -1.1623  0.6817 -1.0029
 5620SOL     OW17931   2.645   4.777   0.472 -0.1825 -0.2897 -0.3705
 5620SOL    HW117932   2.554   4.808   0.476  0.3320  1.3028 -0.1421
 5620SOL    HW217933   2.693   4.841   0.524  1.3187 -0.1710 -1.8448
 5621SOL     OW17934   6.048   7.071   6.459 -0.7182 -0.5460  0.1078
 5621SOL    HW117935   5.976   7.134   6.456 -0.5892 -0.2724  1.7637
 5621SOL    HW217936   6.119   7.117   6.504 -0.0933 -1.3776  0.0025
 5622SOL     OW17937   3.071   7.114   0.252  0.2669  0.0401 -0.2039
 5622SOL    HW117938   3.007   7.183   0.234 -1.3211 -0.9988  1.1329
 5622SOL    HW217939   3.077   7.111   0.347  3.3178  0.9075 -0.2723
 5623SOL     OW17940   5.515   1.004   4.615  0.1001  0.3058  0.2247
 5623SOL    HW117941   5.532   1.086   4.662 -0.8671  0.0043  1.1248
 5623SOL    HW217942   5.434   1.021   4.567  0.6824  0.3565 -0.7673
 5624SOL     OW17943   3.304   6.338   2.641  0.0939 -0.0247 -0.4346
 5624SOL    HW117944   3.270   6.406   2.700  1.5672 -0.7576  1.3818
 5624SOL    HW217945   3.257   6.352   2.559 -3.3212  0.0335  1.3350
 5625SOL     OW17946   1.348   2.989   2.948 -0.4377 -0.3325 -0.1561
 5625SOL    HW117947   1.382   2.915   2.898 -1.8153 -0.4029 -1.0365
 5625SOL    HW217948   1.276   3.023   2.895  1.1876  2.7433 -0.6066
 5626SOL     OW17949   5.872   3.977   2.941  0.4117 -0.2553  0.2047
 5626SOL    HW117950   5.923   4.052   2.911  2.8203 -2.2792 -1.1749
 5626SOL    HW217951   5.909   3.955   3.027  0.9937 -0.9269 -0.2072
 5627SOL     OW17952   5.289   4.904   0.318 -0.3721  0.3811 -0.1723
 5627SOL    HW117953   5.358   4.863   0.265 -0.3664  0.5360 -0.2832
 5627SOL    HW217954   5.334   4.969   0.370 -0.1434 -0.7171  1.0612
 5628SOL     OW17955   8.024   6.879   7.214  0.2169 -0.2716  0.3035
 5628SOL    HW117956   8.113   6.892   7.181  0.4197  0.4329  1.1003
 5628SOL    HW217957   8.036   6.830   7.295 -0.0709  0.3291  0.7158
 5629SOL     OW17958   3.681   1.620   1.145  0.4051  0.7154 -0.3816
 5629SOL    HW117959   3.675   1.709   1.110 -0.9939  0.3125 -1.2713
 5629SOL    HW217960   3.754   1.581   1.097  1.4860  1.5572  0.5095
 5630SOL     OW17961   7.424   0.938   7.926  0.0803 -0.0870 -0.0745
 5630SOL    HW117962   7.381   0.966   8.007 -0.6639 -0.1113 -0.4474
 5630SOL    HW217963   7.354   0.941   7.860  0.6159 -0.3084 -0.6613
 5631SOL     OW17964   4.899   0.871   4.648 -0.4303 -0.4063 -0.4619
 5631SOL    HW117965   4.910   0.935   4.578 -0.8165 -0.4983 -0.6037
 5631SOL    HW217966   4.894   0.923   4.728  0.9429 -0.3433 -0.3907
 5632SOL     OW17967   4.208   5.912   2.309  0.1449  0.3749 -0.1264
 5632SOL    HW117968   4.241   5.895   2.397  0.0727  2.3838  0.3290
 5632SOL    HW217969   4.115   5.931   2.321 -0.3254 -1.2182 -0.9075
 5633SOL     OW17970   7.102   1.789   3.283  0.1612  0.0021  0.4879
 5633SOL    HW117971   7.105   1.767   3.190  0.5088 -1.9853  0.9123
 5633SOL    HW217972   7.157   1.866   3.291 -0.4386  0.6251 -1.0439
 5634SOL     OW17973   0.410   4.844   2.558 -0.6976 -0.1839 -0.1896
 5634SOL    HW117974   0.340   4.880   2.503 -0.8606  1.6718  1.1621
 5634SOL    HW217975   0.478   4.911   2.559  0.4600 -1.3051 -0.2112
 5635SOL     OW17976   6.679   1.665   0.131  0.1193 -0.4606  0.0436
 5635SOL    HW117977   6.599   1.712   0.107  0.9686  1.1487  0.1689
 5635SOL    HW217978   6.676   1.662   0.227  0.5422  0.2818  0.0916
 5636SOL     OW17979   2.979   7.868   2.550 -0.5576 -0.0686 -0.5020
 5636SOL    HW117980   2.977   7.772   2.546  3.9194 -0.4260  0.3639
 5636SOL    HW217981   2.951   7.888   2.640  0.5532 -0.8306  0.0481
 5637SOL     OW17982   7.231   1.354   6.383 -0.6465 -0.0980 -0.1571
 5637SOL    HW117983   7.177   1.282   6.350 -1.0227  0.6399 -1.2006
 5637SOL    HW217984   7.312   1.311   6.411 -0.3618 -0.8254 -1.9189
 5638SOL     OW17985   8.143   8.074   5.884  0.4329  0.3217 -0.1689
 5638SOL    HW117986   8.119   8.065   5.976  0.3306  0.2616 -0.2018
 5638SOL    HW217987   8.090   8.147   5.852  1.4270  1.2188  0.1568
 5639SOL     OW17988   1.774   0.780   7.246 -0.2168  0.3993  0.1656
 5639SOL    HW117989   1.837   0.852   7.242 -1.9617  1.9339 -2.5970
 5639SOL    HW217990   1.771   0.745   7.157 -0.5892 -2.1105  1.0902
 5640SOL     OW17991   6.755   6.902   1.545 -0.4880  0.5932  0.2767
 5640SOL    HW117992   6.783   6.815   1.518  0.6025  1.6636 -2.4355
 5640SOL    HW217993   6.819   6.929   1.611  1.0332  0.4461 -1.0800
 5641SOL     OW17994   2.746   2.103   1.614  0.4327  0.3034  0.5922
 5641SOL    HW117995   2.686   2.091   1.688  2.3056 -1.0579  1.9950
 5641SOL    HW217996   2.744   2.197   1.596 -0.4623  0.5983  2.0612
 5642SOL     OW17997   1.480   6.693   6.930  0.1544 -0.3128 -0.1900
 5642SOL    HW117998   1.469   6.788   6.934  0.2342 -0.3077  3.8023
 5642SOL    HW217999   1.565   6.680   6.888 -0.0764  1.3310 -1.2266
 5643SOL     OW18000   6.184   6.655   0.529 -0.1119  0.1219  0.2205
 5643SOL    HW118001   6.254   6.611   0.481  0.2855  1.5500 -0.5372
 5643SOL    HW218002   6.104   6.611   0.498  0.2513  0.0848 -0.7100
 5644SOL     OW18003   4.309   3.886   1.557 -0.4145 -0.1486  0.4669
 5644SOL    HW118004   4.227   3.929   1.584 -0.2027  0.8186 -0.3637
 5644SOL    HW218005   4.281   3.803   1.518 -0.9130 -0.3241  1.1719
 5645SOL     OW18006   4.852   5.339   2.735 -0.4746  0.8744 -0.3526
 5645SOL    HW118007   4.929   5.358   2.788 -1.0031  0.9408  0.4153
 5645SOL    HW218008   4.887   5.303   2.653  0.3954  1.6750 -0.3524
 5646SOL     OW18009   2.750   3.079   0.419  0.4388  0.0766 -0.0295
 5646SOL    HW118010   2.679   3.072   0.354 -1.7101 -0.7689  2.2731
 5646SOL    HW218011   2.809   3.007   0.398  0.2573  0.3256 -1.5273
 5647SOL     OW18012   1.269   5.130   4.342 -0.2028 -0.2729 -0.2390
 5647SOL    HW118013   1.179   5.155   4.364  0.1723  0.3933  0.6209
 5647SOL    HW218014   1.322   5.197   4.384  0.6752 -0.3462 -1.2135
 5648SOL     OW18015   7.708   3.436   6.576 -0.2534 -0.2543  0.3331
 5648SOL    HW118016   7.627   3.455   6.623 -0.5741 -1.5311  0.3348
 5648SOL    HW218017   7.688   3.458   6.485 -0.0655  0.9481  0.5672
 5649SOL     OW18018   1.822   7.254   0.309  0.6970  0.8186 -0.2984
 5649SOL    HW118019   1.781   7.286   0.228  1.1690  2.4898  0.0820
 5649SOL    HW218020   1.834   7.160   0.294 -2.7596  0.2958 -0.6442
 5650SOL     OW18021   6.613   0.248   4.828 -0.2998  0.6216 -0.5856
 5650SOL    HW118022   6.699   0.284   4.807 -0.3606  0.6635 -0.7583
 5650SOL    HW218023   6.554   0.285   4.763 -0.5732  1.1183 -0.0555
 5651SOL     OW18024   5.774   3.490   3.182 -0.5668  0.5227  0.0137
 5651SOL    HW118025   5.719   3.501   3.104 -0.1567  1.2235 -0.1901
 5651SOL    HW218026   5.863   3.481   3.147 -0.1335  2.6718  0.4353
 5652SOL     OW18027   3.906   0.308   6.960  0.0965  0.2099 -0.3914
 5652SOL    HW118028   4.000   0.328   6.959 -0.0882  1.1367 -1.5652
 5652SOL    HW218029   3.878   0.327   7.049  1.0168 -0.0724 -0.0278
 5653SOL     OW18030   0.662   6.486   2.585  0.5300  0.1250  0.0346
 5653SOL    HW118031   0.685   6.578   2.601 -1.8722  0.6146  1.1124
 5653SOL    HW218032   0.656   6.479   2.490  3.5117  0.2633 -0.2805
 5654SOL     OW18033   0.243   2.370   2.984  0.0119  0.0602  0.1492
 5654SOL    HW118034   0.296   2.294   3.007 -0.6415 -0.2565  0.6829
 5654SOL    HW218035   0.154   2.336   2.977  0.1581  0.1014 -3.1417
 5655SOL     OW18036   8.057   6.186   7.748 -0.2605 -0.3325  0.3485
 5655SOL    HW118037   8.123   6.185   7.678  1.2833 -1.4109  1.7396
 5655SOL    HW218038   7.995   6.254   7.722  2.5124  2.2474 -0.0745
 5656SOL     OW18039   2.491   1.891   2.519  0.5391  0.2209  0.0446
 5656SOL    HW118040   2.583   1.868   2.515  0.4959  0.0913 -0.1698
 5656SOL    HW218041   2.484   1.949   2.596  0.7757  0.1379  0.1277
 5657SOL     OW18042   3.026   5.728   3.936  0.1612 -0.3921  0.4724
 5657SOL    HW118043   3.088   5.673   3.889 -0.3340 -0.7788  0.2534
 5657SOL    HW218044   2.976   5.666   3.990  0.1149 -0.0633  0.8092
 5658SOL     OW18045   6.920   1.463   0.033  0.2930 -0.7677 -0.2543
 5658SOL    HW118046   6.865   1.534   0.064  1.0854  0.2116 -1.0377
 5658SOL    HW218047   6.981   1.447   0.106 -0.3914 -1.1943  0.2300
 5659SOL     OW18048   2.819   5.782   6.386 -0.3230  0.0623 -0.1644
 5659SOL    HW118049   2.750   5.715   6.388 -1.5701  1.3105  0.7978
 5659SOL    HW218050   2.817   5.815   6.296  0.4429 -1.2705 -0.7091
 5660SOL     OW18051   0.188   6.226   4.662  0.3566 -0.7370 -0.0816
 5660SOL    HW118052   0.145   6.312   4.668  0.5321 -0.6940  0.6602
 5660SOL    HW218053   0.281   6.244   4.675  0.3226 -1.1068  0.7548
 5661SOL     OW18054   5.022   1.907   7.805  0.4006 -0.2196  0.2686
 5661SOL    HW118055   4.969   1.888   7.882  0.2536  0.9813  0.4862
 5661SOL    HW218056   5.034   2.002   7.807  0.7269 -0.2152 -0.9786
 5662SOL     OW18057   3.996   6.837   3.960  0.3867  0.1699  0.4652
 5662SOL    HW118058   3.924   6.876   3.910  0.2638  1.0174  1.2789
 5662SOL    HW218059   3.990   6.878   4.046  0.4947 -1.3780  1.2505
 5663SOL     OW18060   5.046   4.911   6.115 -0.6669  0.5292  0.6391
 5663SOL    HW118061   5.087   4.891   6.199  1.4654 -0.2416 -0.4828
 5663SOL    HW218062   4.962   4.951   6.137 -0.3223  0.0419  3.1026
 5664SOL     OW18063   1.935   5.554   3.810 -0.5114  0.1863  0.3042
 5664SOL    HW118064   1.888   5.474   3.833 -2.6656  1.5113  0.8114
 5664SOL    HW218065   2.022   5.542   3.848 -0.7778 -1.8709  0.3863
 5665SOL     OW18066   0.333   4.499   4.820 -0.4879  0.3994  0.1983
 5665SOL    HW118067   0.343   4.427   4.882  1.2158  0.3073 -0.1512
 5665SOL    HW218068   0.370   4.575   4.866 -2.2983  1.1121  0.5832
 5666SOL     OW18069   4.196   7.747   1.265  0.1679 -0.3290  0.3632
 5666SOL    HW118070   4.246   7.666   1.280  0.4392 -0.5901 -1.6944
 5666SOL    HW218071   4.172   7.776   1.353  0.1548 -2.5909  1.1908
 5667SOL     OW18072   2.275   3.884   6.543 -0.3489  0.3719 -0.7024
 5667SOL    HW118073   2.312   3.940   6.612 -2.3902  0.1715  0.6354
 5667SOL    HW218074   2.350   3.863   6.488  1.1166  1.6837  0.6561
 5668SOL     OW18075   1.636   7.282   4.849 -0.5674  0.3244 -0.3944
 5668SOL    HW118076   1.693   7.341   4.900 -1.0721  0.3656  0.1332
 5668SOL    HW218077   1.614   7.212   4.911 -0.5788 -0.0255 -0.7939
 5669SOL     OW18078   5.581   0.845   2.121  0.2587  0.1660  1.2436
 5669SOL    HW118079   5.527   0.807   2.052 -0.3227  1.3433  1.0363
 5669SOL    HW218080   5.596   0.935   2.093  0.6230  0.4424  2.3016
 5670SOL     OW18081   5.705   7.648   1.217 -0.0570  0.2360  0.3611
 5670SOL    HW118082   5.663   7.664   1.132 -0.7997  0.9402  0.8496
 5670SOL    HW218083   5.757   7.569   1.203  0.0228  0.4749 -0.8183
 5671SOL     OW18084   3.109   2.958   7.035  0.2470  0.1165  0.7286
 5671SOL    HW118085   3.179   2.914   7.083  0.6805 -0.9166 -0.7789
 5671SOL    HW218086   3.154   3.023   6.980  0.0117 -0.3069  0.0166
 5672SOL     OW18087   4.315   6.408   0.880 -0.0723  0.5086 -0.2680
 5672SOL    HW118088   4.225   6.424   0.910 -0.8561  1.5822 -2.9472
 5672SOL    HW218089   4.361   6.491   0.897  0.3176  0.1115  0.6793
 5673SOL     OW18090   8.028   7.244   2.884 -0.4061 -0.6737  0.3884
 5673SOL    HW118091   7.958   7.187   2.852 -1.8838  0.0804  2.0901
 5673SOL    HW218092   7.985   7.329   2.897  0.9074 -0.1086  1.1867
 5674SOL     OW18093   3.284   7.593   1.812 -0.0123 -1.0112 -0.0647
 5674SOL    HW118094   3.225   7.523   1.838 -1.5398  0.5022  0.7250
 5674SOL    HW218095   3.236   7.643   1.746 -0.8303  1.7403  2.3712
 5675SOL     OW18096   5.211   0.677   3.473  0.5499  0.1656 -0.0128
 5675SOL    HW118097   5.280   0.733   3.436  0.0176  1.3417  0.6964
 5675SOL    HW218098   5.145   0.739   3.504  0.0896 -0.8628  1.1155
 5676SOL     OW18099   7.450   7.279   6.218 -0.5576 -0.2597  0.0813
 5676SOL    HW118100   7.468   7.189   6.192 -1.1265 -0.1313 -0.8244
 5676SOL    HW218101   7.364   7.276   6.260 -0.9154 -0.0358 -0.6192
 5677SOL     OW18102   3.303   2.193   6.180  0.6291  0.0534  0.4150
 5677SOL    HW118103   3.246   2.259   6.220  1.0533 -0.3747  1.7976
 5677SOL    HW218104   3.377   2.186   6.241  0.2539 -2.2144  0.6948
 5678SOL     OW18105   4.194   0.525   6.809 -0.4535  0.3606 -0.1463
 5678SOL    HW118106   4.165   0.573   6.886 -2.8395 -2.5415  0.9384
 5678SOL    HW218107   4.290   0.521   6.818 -0.5149  1.6505  1.6278
 5679SOL     OW18108   5.714   5.141   6.601  0.2474  0.7335  0.0024
 5679SOL    HW118109   5.775   5.199   6.558  0.3897 -0.2274 -1.1533
 5679SOL    HW218110   5.706   5.066   6.542 -0.8745  0.1465  0.8458
 5680SOL     OW18111   4.413   1.429   4.365  0.1991 -0.5692 -0.2511
 5680SOL    HW118112   4.404   1.335   4.352  1.1533 -0.8321  0.7866
 5680SOL    HW218113   4.382   1.444   4.454  0.7744 -0.0213 -0.1379
 5681SOL     OW18114   3.983   2.114   2.250  0.2777 -0.1329  0.3111
 5681SOL    HW118115   4.060   2.097   2.304  1.6870  1.9367 -0.8669
 5681SOL    HW218116   4.002   2.069   2.168 -0.1377 -0.2436  0.2778
 5682SOL     OW18117   1.897   7.642   1.652  0.6707 -0.6666  0.3728
 5682SOL    HW118118   1.976   7.695   1.637  1.5449 -1.7732  0.9168
 5682SOL    HW218119   1.912   7.562   1.601 -0.7364 -0.3269 -0.6267
 5683SOL     OW18120   2.339   2.353   0.056 -0.1412 -0.3072 -0.2352
 5683SOL    HW118121   2.287   2.297   0.114  1.3933  0.6024  2.1442
 5683SOL    HW218122   2.403   2.295   0.016 -0.6949 -0.8044 -0.4109
 5684SOL     OW18123   0.360   4.029   4.142  0.6507  0.0006 -0.1018
 5684SOL    HW118124   0.384   3.944   4.181  0.5469  0.3115  0.6637
 5684SOL    HW218125   0.278   4.012   4.097  0.0308 -0.0640  1.0094
 5685SOL     OW18126   3.487   2.567   2.571 -0.5573  0.4470 -0.3071
 5685SOL    HW118127   3.581   2.585   2.562 -0.6616  1.7931  0.7989
 5685SOL    HW218128   3.464   2.515   2.494  1.1373 -0.1006 -0.4803
 5686SOL     OW18129   1.278   0.839   1.028  0.7383 -0.2922  0.3424
 5686SOL    HW118130   1.209   0.832   1.094 -0.6879  2.8403 -0.6530
 5686SOL    HW218131   1.248   0.784   0.956  1.2801 -2.0412  1.3864
 5687SOL     OW18132   2.495   1.773   4.572  0.7916  0.5626 -0.3906
 5687SOL    HW118133   2.535   1.806   4.492  2.0197 -0.9580 -0.4629
 5687SOL    HW218134   2.569   1.746   4.627  0.0042 -2.9761 -0.7879
 5688SOL     OW18135   0.034   4.763   1.391 -0.5957  0.0331 -0.0616
 5688SOL    HW118136   0.094   4.834   1.414 -1.3573  0.3408  1.0217
 5688SOL    HW218137   0.087   4.705   1.336  0.3646  0.8647 -0.0536
 5689SOL     OW18138   1.006   6.146   5.483  0.5411 -0.4066  0.0768
 5689SOL    HW118139   1.082   6.091   5.505 -1.1271 -2.0071  2.3265
 5689SOL    HW218140   0.932   6.086   5.488 -1.0552  1.4227 -0.5826
 5690SOL     OW18141   2.733   4.986   2.901  0.2776  0.4002 -0.4315
 5690SOL    HW118142   2.826   4.980   2.924 -0.1054 -0.2543  1.0780
 5690SOL    HW218143   2.688   4.985   2.986 -1.1357  0.0612 -1.1702
 5691SOL     OW18144   1.175   4.820   8.079 -0.2543 -0.3367 -0.2594
 5691SOL    HW118145   1.241   4.859   8.021 -0.9554 -2.8198 -2.9349
 5691SOL    HW218146   1.210   4.734   8.101 -1.5390 -0.7447  0.2779
 5692SOL     OW18147   4.918   3.059   0.674 -0.5468 -0.0198 -0.1137
 5692SOL    HW118148   4.910   3.027   0.585  3.2386 -0.5915 -0.4080
 5692SOL    HW218149   4.982   3.131   0.668 -0.2994  0.0235  2.1068
 5693SOL     OW18150   6.989   7.903   1.672  0.0035  0.0547  0.3531
 5693SOL    HW118151   7.072   7.942   1.646 -0.1236  0.8400  1.0790
 5693SOL    HW218152   7.013   7.833   1.731  0.3296 -2.0961 -2.1463
 5694SOL     OW18153   0.248   5.006   2.934  0.4090  0.4019  0.1150
 5694SOL    HW118154   0.310   4.933   2.928 -1.2540 -1.0486 -0.0342
 5694SOL    HW218155   0.218   5.019   2.844  0.1316  0.7678  0.2579
 5695SOL     OW18156   7.173   1.950   4.859 -0.0514 -0.0489  0.3373
 5695SOL    HW118157   7.132   2.036   4.865 -0.3083 -0.0921 -0.5654
 5695SOL    HW218158   7.119   1.894   4.915 -0.9377  0.0058 -0.4304
 5696SOL     OW18159   0.778   7.668   5.972 -0.0190  0.1328 -0.1165
 5696SOL    HW118160   0.789   7.614   5.894 -0.1615  2.7907 -2.1331
 5696SOL    HW218161   0.695   7.714   5.958 -0.2204  0.4401  1.7828
 5697SOL     OW18162   1.004   4.366   6.594  0.0212 -0.8087  0.2941
 5697SOL    HW118163   1.040   4.442   6.549  1.1006 -1.2713  0.3554
 5697SOL    HW218164   0.911   4.388   6.607  0.1762  0.2263 -0.2344
 5698SOL     OW18165   5.761   1.289   6.748  0.6434  0.4448  0.2640
 5698SOL    HW118166   5.725   1.347   6.814 -1.0238 -0.4903  0.2268
 5698SOL    HW218167   5.824   1.234   6.796 -0.0709  0.2055  0.9402
 5699SOL     OW18168   5.263   5.939   5.967  0.4646 -0.1624  0.2852
 5699SOL    HW118169   5.263   5.843   5.972  0.6953 -0.1838 -0.0586
 5699SOL    HW218170   5.195   5.959   5.903  1.0864 -0.1501 -0.3925
 5700SOL     OW18171   1.456   0.408   5.816 -0.3142 -0.2717 -0.3978
 5700SOL    HW118172   1.463   0.342   5.884  1.7541  0.3553  0.0762
 5700SOL    HW218173   1.530   0.390   5.757 -1.7538 -0.4823 -2.2169
 5701SOL     OW18174   7.082   0.485   5.528 -0.0768 -0.0876  0.1924
 5701SOL    HW118175   7.008   0.433   5.497  1.2770 -2.0473  0.0634
 5701SOL    HW218176   7.144   0.484   5.455  0.3195  1.0318  0.5048
 5702SOL     OW18177   2.167   7.108   1.871 -0.3934 -0.6513  0.0400
 5702SOL    HW118178   2.231   7.061   1.817 -0.1146 -0.3233  0.0857
 5702SOL    HW218179   2.200   7.099   1.960  0.2382  0.5343 -0.0571
 5703SOL     OW18180   6.360   1.914   5.850  0.5850  0.2099  0.0308
 5703SOL    HW118181   6.296   1.843   5.846  1.3591 -0.4587 -1.8819
 5703SOL    HW218182   6.311   1.992   5.824 -0.1222  0.2756  1.5090
 5704SOL     OW18183   4.192   7.105   4.193  0.3907  0.3706 -0.0008
 5704SOL    HW118184   4.265   7.068   4.144 -1.7014 -0.9403 -2.3275
 5704SOL    HW218185   4.151   7.030   4.236  0.9313  1.2250  2.1216
 5705SOL     OW18186   4.074   3.178   5.768 -0.1247  0.5044  0.4767
 5705SOL    HW118187   4.158   3.157   5.729  0.5548  1.0747  1.5665
 5705SOL    HW218188   4.014   3.183   5.694  0.8321  0.2679 -0.3429
 5706SOL     OW18189   7.220   0.471   5.776  0.2693 -0.4852  0.9964
 5706SOL    HW118190   7.268   0.552   5.791  2.0380 -0.8754 -1.8351
 5706SOL    HW218191   7.186   0.479   5.687 -1.5584 -1.9077  1.5011
 5707SOL     OW18192   5.971   8.021   0.185  0.4222 -0.3444 -0.2710
 5707SOL    HW118193   5.911   8.089   0.154  0.5571 -1.4404 -3.2353
 5707SOL    HW218194   6.034   8.067   0.240 -1.7012  1.2398  0.9615
 5708SOL     OW18195   4.745   4.192   7.586  0.3897  0.4669 -0.4966
 5708SOL    HW118196   4.749   4.100   7.558 -0.1387  0.6140 -1.0955
 5708SOL    HW218197   4.837   4.218   7.595  0.5415 -0.2113 -0.0009
 5709SOL     OW18198   4.662   7.985   7.279  0.0646 -0.6400  0.3984
 5709SOL    HW118199   4.671   7.889   7.277  1.1604 -0.5723  1.2055
 5709SOL    HW218200   4.568   7.999   7.286 -0.1196 -1.6614  0.2347
 5710SOL     OW18201   4.222   5.018   0.108  0.0505 -0.3463  0.1502
 5710SOL    HW118202   4.242   5.051   0.020 -0.1874  0.9105  0.5444
 5710SOL    HW218203   4.260   5.083   0.167 -2.3352  0.4511  0.9424
 5711SOL     OW18204   0.353   3.941   7.491  0.2391  0.0915 -0.9699
 5711SOL    HW118205   0.415   3.988   7.435  1.3809 -1.3389 -0.9878
 5711SOL    HW218206   0.354   3.851   7.457 -0.5736 -0.3360  0.0956
 5712SOL     OW18207   3.362   6.089   2.514 -0.0629  0.0888  0.1446
 5712SOL    HW118208   3.352   6.164   2.571  2.0439  0.6028 -0.0664
 5712SOL    HW218209   3.374   6.126   2.426  0.4909 -0.4820 -0.0407
 5713SOL     OW18210   1.169   4.431   6.917 -0.5991 -0.2711  0.0424
 5713SOL    HW118211   1.210   4.347   6.937  0.1150  0.3231  1.1547
 5713SOL    HW218212   1.076   4.416   6.934 -0.4298 -0.7302  0.6107
 5714SOL     OW18213   6.769   2.270   0.209 -0.0754  0.8980  0.4965
 5714SOL    HW118214   6.683   2.310   0.220 -1.0472 -0.9273 -0.0211
 5714SOL    HW218215   6.751   2.177   0.199  1.9098  0.5620 -0.4617
 5715SOL     OW18216   0.469   2.997   5.895  0.1224  0.0118  0.0558
 5715SOL    HW118217   0.443   2.959   5.980  0.1146  1.5692  0.7794
 5715SOL    HW218218   0.436   3.086   5.898 -0.2834 -0.0517 -1.8148
 5716SOL     OW18219   0.711   1.303   6.239 -0.5732 -0.0327  0.4308
 5716SOL    HW118220   0.717   1.209   6.227 -1.1194 -0.4214  2.6808
 5716SOL    HW218221   0.801   1.331   6.258 -0.1689  0.1768 -1.5565
 5717SOL     OW18222   0.369   6.157   5.951 -0.6888 -0.2750  0.0580
 5717SOL    HW118223   0.429   6.207   6.006 -3.0243  1.2380  1.3855
 5717SOL    HW218224   0.336   6.088   6.009 -0.9958 -0.4567 -0.3306
 5718SOL     OW18225   5.628   2.983   4.210  0.5885  0.3997  0.2918
 5718SOL    HW118226   5.566   3.035   4.261  1.4292  0.6029  1.1343
 5718SOL    HW218227   5.671   3.047   4.153  0.7739  0.4385  0.4730
 5719SOL     OW18228   3.303   3.562   3.914 -0.3528  0.4126 -0.5274
 5719SOL    HW118229   3.328   3.487   3.967 -0.3252  0.3119 -0.6835
 5719SOL    HW218230   3.353   3.635   3.951 -1.4787  0.6617  0.5746
 5720SOL     OW18231   2.009   0.266   1.624 -0.2693  0.4519 -0.0209
 5720SOL    HW118232   2.043   0.251   1.712 -3.4264 -1.1327  1.0793
 5720SOL    HW218233   1.984   0.359   1.624 -0.3636  0.4354  0.8035
 5721SOL     OW18234   4.466   1.970   4.692  0.0834  0.7397  0.7247
 5721SOL    HW118235   4.547   1.958   4.741  0.7427 -0.7316 -0.6480
 5721SOL    HW218236   4.493   1.997   4.605 -0.9898  1.5889  0.6248
 5722SOL     OW18237   7.357   4.329   1.698  0.0350  0.7476 -0.0841
 5722SOL    HW118238   7.313   4.397   1.647  0.1611 -0.9621 -2.7085
 5722SOL    HW218239   7.445   4.324   1.660  1.1962  1.3590  2.3441
 5723SOL     OW18240   6.518   4.873   0.363  0.6212  0.1689  0.0031
 5723SOL    HW118241   6.611   4.890   0.376  0.5481  1.1386 -0.6153
 5723SOL    HW218242   6.514   4.806   0.295  0.8861 -0.8881  1.0164
 5724SOL     OW18243   3.632   3.160   3.646 -0.2276 -1.0817  0.6560
 5724SOL    HW118244   3.699   3.178   3.713 -0.2355 -0.6137  0.5369
 5724SOL    HW218245   3.555   3.207   3.676 -0.2527 -0.9298  0.3532
 5725SOL     OW18246   3.125   4.646   3.168 -0.4142  0.6663 -0.1514
 5725SOL    HW118247   3.189   4.635   3.098  1.2913  1.4186  1.2169
 5725SOL    HW218248   3.138   4.736   3.198 -2.1745  0.8518  0.1538
 5726SOL     OW18249   1.857   7.636   2.091  0.1259  0.2180 -0.2448
 5726SOL    HW118250   1.807   7.655   2.012  1.0906 -0.6328 -1.0888
 5726SOL    HW218251   1.790   7.613   2.157 -0.6787  0.8882 -0.8143
 5727SOL     OW18252   3.635   4.640   0.251 -0.0339  0.1169  0.2226
 5727SOL    HW118253   3.697   4.589   0.200  1.1143  0.4506  1.2230
 5727SOL    HW218254   3.684   4.719   0.276  0.1164 -0.8402  3.3502
 5728SOL     OW18255   0.180   2.498   0.035 -0.4980 -0.2807 -0.0954
 5728SOL    HW118256   0.261   2.530  -0.005 -1.2018 -0.7078 -1.9615
 5728SOL    HW218257   0.209   2.456   0.116  1.1136 -0.1484 -0.5514
 5729SOL     OW18258   2.130   2.287   3.296  0.3045  0.6476  0.2232
 5729SOL    HW118259   2.134   2.339   3.376 -0.9960  0.8986  0.1560
 5729SOL    HW218260   2.173   2.204   3.319 -0.6443  0.4515  1.4183
 5730SOL     OW18261   1.993   2.463   1.490  0.1577 -0.2987 -0.3169
 5730SOL    HW118262   2.044   2.448   1.570  0.3712 -0.0071 -0.3948
 5730SOL    HW218263   1.979   2.557   1.487 -1.4520 -0.4848  0.3416
 5731SOL     OW18264   0.743   4.497   2.198 -0.4313  0.5684  0.4292
 5731SOL    HW118265   0.806   4.567   2.177  0.2483 -0.7121 -2.2219
 5731SOL    HW218266   0.768   4.468   2.286  2.7181  0.1575 -0.4894
 5732SOL     OW18267   3.649   5.970   3.394  0.3666 -0.2189  0.4876
 5732SOL    HW118268   3.739   5.965   3.361 -0.1388 -0.8829 -0.8367
 5732SOL    HW218269   3.594   5.960   3.316 -0.8583 -0.3578  1.3470
 5733SOL     OW18270   6.989   3.544   6.572  0.4204  0.3983 -0.0414
 5733SOL    HW118271   6.926   3.483   6.612  1.6738  0.4466  2.1621
 5733SOL    HW218272   7.009   3.505   6.487  1.5341 -2.6568  1.4527
 5734SOL     OW18273   4.476   5.079   5.688  0.5813  0.0032  0.4826
 5734SOL    HW118274   4.499   5.040   5.772  0.1397  1.1780  1.1663
 5734SOL    HW218275   4.449   5.168   5.709  1.3886  0.6405 -1.0137
 5735SOL     OW18276   6.947   3.078   5.093 -0.3245 -0.1164 -0.5291
 5735SOL    HW118277   6.879   3.105   5.154 -0.1768  0.9785 -0.8256
 5735SOL    HW218278   6.899   3.042   5.018 -0.6564  1.3903 -1.0931
 5736SOL     OW18279   6.026   0.033   2.947  0.3245 -0.0607 -0.1540
 5736SOL    HW118280   5.942   0.007   2.911  0.2536 -0.9394  0.6060
 5736SOL    HW218281   6.069   0.081   2.876 -1.3506  1.6186 -0.1036
 5737SOL     OW18282   2.571   0.947   3.989 -0.1193 -0.1123  0.4376
 5737SOL    HW118283   2.488   0.983   4.018  0.5151  1.1909  0.6881
 5737SOL    HW218284   2.591   0.877   4.052 -2.0314 -1.9589 -0.8442
 5738SOL     OW18285   3.694   0.321   4.826  0.4040 -0.1436 -0.1130
 5738SOL    HW118286   3.663   0.238   4.862 -0.0540  0.1840  0.2528
 5738SOL    HW218287   3.737   0.296   4.744  0.1312 -0.7209 -0.0891
 5739SOL     OW18288   3.417   1.130   1.517  0.2762  0.1965  0.8087
 5739SOL    HW118289   3.370   1.196   1.467 -2.3571 -3.1580 -1.6504
 5739SOL    HW218290   3.384   1.138   1.606 -3.2525 -0.2991 -0.2906
 5740SOL     OW18291   7.596   3.861   5.728  0.3422  0.3984 -0.5346
 5740SOL    HW118292   7.504   3.884   5.735  0.3306  0.4292 -0.7843
 5740SOL    HW218293   7.597   3.768   5.707  0.2998  0.8356 -2.7102
 5741SOL     OW18294   4.888   5.071   0.772  0.3738 -0.3609  0.1845
 5741SOL    HW118295   4.802   5.089   0.811  0.2070 -2.7278  1.0538
 5741SOL    HW218296   4.869   5.011   0.700  1.2944 -0.8724  0.3625
 5742SOL     OW18297   6.599   2.812   5.908  0.3210  0.7567  0.2394
 5742SOL    HW118298   6.531   2.749   5.931 -0.4277  1.8048  0.9953
 5742SOL    HW218299   6.552   2.895   5.898  1.4283  1.4107  0.3423
 5743SOL     OW18300   2.931   6.577   6.570 -0.1296 -0.2266  0.2804
 5743SOL    HW118301   2.998   6.529   6.619 -0.4890  0.7200  1.7446
 5743SOL    HW218302   2.848   6.542   6.601 -0.3551 -0.2203 -0.3000
 5744SOL     OW18303   1.483   4.456   5.337  0.5523  0.3975 -0.1357
 5744SOL    HW118304   1.464   4.542   5.300  1.7209  1.0952  0.8086
 5744SOL    HW218305   1.401   4.408   5.331  0.1714  1.2078 -1.6593
 5745SOL     OW18306   4.976   1.043   4.435 -0.3408 -0.3441 -0.3065
 5745SOL    HW118307   5.021   1.124   4.459 -1.1742  0.1214 -0.2437
 5745SOL    HW218308   4.991   1.035   4.341  0.6049 -0.6777 -0.1367
 5746SOL     OW18309   5.043   7.321   6.705  0.5678  0.1657  0.2542
 5746SOL    HW118310   5.005   7.407   6.687  1.0025  0.9486  2.6373
 5746SOL    HW218311   4.969   7.261   6.699 -0.1828  1.0296  0.5494
 5747SOL     OW18312   6.920   5.710   0.996  0.1622 -0.0131  1.0351
 5747SOL    HW118313   6.938   5.798   1.030  0.9784 -0.0099  0.6059
 5747SOL    HW218314   7.004   5.666   0.998  0.4599  0.2418 -1.7578
 5748SOL     OW18315   6.586   3.995   4.054  0.1248  0.5710  0.1275
 5748SOL    HW118316   6.567   3.930   4.121  2.1565 -0.4104 -0.1715
 5748SOL    HW218317   6.509   4.052   4.052 -0.1177  0.4803  3.0908
 5749SOL     OW18318   7.073   2.265   6.107  0.4360  0.1894  1.0357
 5749SOL    HW118319   7.035   2.177   6.110  0.0917  0.1216 -2.1759
 5749SOL    HW218320   7.019   2.316   6.168 -0.1006 -1.5014  2.0570
 5750SOL     OW18321   4.724   5.180   5.936  0.2077 -0.4412  1.1180
 5750SOL    HW118322   4.780   5.258   5.932  0.6312 -0.4815 -5.5813
 5750SOL    HW218323   4.638   5.212   5.963  0.5959  2.3144 -0.5859
 5751SOL     OW18324   3.252   3.379   0.886 -0.6146  0.0535  0.4704
 5751SOL    HW118325   3.299   3.454   0.851 -3.4124  1.7434  0.0263
 5751SOL    HW218326   3.217   3.334   0.809  1.1348 -1.8872  0.7225
 5752SOL     OW18327   2.934   2.781   7.843 -0.4459 -0.4708  0.4252
 5752SOL    HW118328   2.844   2.748   7.837 -0.4984 -0.8504  2.6444
 5752SOL    HW218329   2.927   2.863   7.893  0.4687 -0.6920  0.9398
 5753SOL     OW18330   3.074   4.743   0.389  0.1577 -0.0659 -0.3314
 5753SOL    HW118331   3.090   4.716   0.298 -2.1430 -1.2231 -0.4689
 5753SOL    HW218332   2.991   4.792   0.385 -0.8098 -1.4813  1.3311
 5754SOL     OW18333   5.232   0.992   5.535  0.6104  0.3348  0.0113
 5754SOL    HW118334   5.209   0.918   5.592 -0.7959 -0.0965 -1.0671
 5754SOL    HW218335   5.203   1.069   5.584  2.4148  0.2559  1.3064
 5755SOL     OW18336   5.541   7.002   2.651  0.6184 -0.0369  0.0680
 5755SOL    HW118337   5.506   7.032   2.567 -0.0424 -0.7305  0.0796
 5755SOL    HW218338   5.556   6.908   2.638  0.2856 -0.1994  0.7838
 5756SOL     OW18339   4.715   5.264   6.336  0.4035  0.6353  0.0640
 5756SOL    HW118340   4.744   5.353   6.315 -1.8849  2.0348  2.2064
 5756SOL    HW218341   4.623   5.274   6.361 -0.3089 -2.5769 -0.8136
 5757SOL     OW18342   3.404   5.801   1.332  0.9122 -0.4204 -0.5560
 5757SOL    HW118343   3.397   5.734   1.400  1.3524  1.9606  2.0461
 5757SOL    HW218344   3.317   5.804   1.292  0.0728 -0.7406  1.1475
 5758SOL     OW18345   0.621   7.146   5.352 -0.0380 -0.6306 -0.1560
 5758SOL    HW118346   0.631   7.153   5.257 -1.0195 -0.3848 -0.2507
 5758SOL    HW218347   0.651   7.057   5.373  2.8319  0.1992 -0.2943
 5759SOL     OW18348   0.831   2.080   0.360  0.0793  0.3367  0.1840
 5759SOL    HW118349   0.909   2.025   0.355 -0.0085  0.1723  0.5333
 5759SOL    HW218350   0.809   2.082   0.453 -0.3291  0.3839  0.0913
 5760SOL     OW18351   6.084   0.258   0.612  0.4754  0.3329 -0.4014
 5760SOL    HW118352   6.126   0.184   0.654 -0.9999 -0.3342 -0.0447
 5760SOL    HW218353   6.096   0.243   0.518 -0.0775 -0.5506 -0.3455
 5761SOL     OW18354   8.102   6.322   3.746  0.5708  0.5220  0.1138
 5761SOL    HW118355   8.090   6.381   3.821 -0.9061  0.5958 -0.1520
 5761SOL    HW218356   8.038   6.252   3.762 -0.6915  1.1935 -1.7031
 5762SOL     OW18357   1.019   7.821   6.677 -0.2481  0.3065  0.1492
 5762SOL    HW118358   0.977   7.890   6.625 -0.6373  0.6713  0.9312
 5762SOL    HW218359   0.950   7.756   6.692  0.2472 -0.5010 -0.9952
 5763SOL     OW18360   4.024   3.423   0.542  0.3437  0.2688 -0.2246
 5763SOL    HW118361   4.113   3.431   0.508  0.8130 -0.5911  0.7613
 5763SOL    HW218362   3.968   3.447   0.467  1.3941  2.7255 -0.3318
 5764SOL     OW18363   1.379   8.096   6.151  0.1023 -0.2363  0.0604
 5764SOL    HW118364   1.356   8.015   6.196  1.8119 -0.0501  1.3728
 5764SOL    HW218365   1.312   8.159   6.180 -0.9132 -1.0178 -0.5376
 5765SOL     OW18366   1.706   2.307   4.542 -0.3055  0.3399 -0.7568
 5765SOL    HW118367   1.781   2.316   4.601 -0.3297  1.0154 -0.8249
 5765SOL    HW218368   1.727   2.230   4.488 -0.9928 -1.2658  1.1578
 5766SOL     OW18369   4.760   2.012   1.196 -0.3758  0.0135  0.5147
 5766SOL    HW118370   4.698   1.996   1.268 -1.0959  0.2887 -0.0333
 5766SOL    HW218371   4.708   2.002   1.117 -0.2643  2.4401  0.0727
 5767SOL     OW18372   2.472   2.540   7.221 -0.6804  0.0064 -0.1024
 5767SOL    HW118373   2.456   2.604   7.152 -0.4820  0.4195  0.2337
 5767SOL    HW218374   2.559   2.561   7.254 -2.0299  1.9306  2.5164
 5768SOL     OW18375   0.658   7.733   3.795  0.0505 -0.0262 -0.4989
 5768SOL    HW118376   0.677   7.772   3.710 -2.1203 -1.1441 -1.5745
 5768SOL    HW218377   0.582   7.781   3.827  0.5353  0.0355  0.5920
 5769SOL     OW18378   2.188   6.619   2.601 -0.1904 -0.2150  0.4130
 5769SOL    HW118379   2.120   6.662   2.654 -0.7568 -0.0113 -0.4513
 5769SOL    HW218380   2.270   6.660   2.629 -0.2257 -1.3533  2.3845
 5770SOL     OW18381   2.041   1.505   2.930  0.0312 -0.5925 -0.3246
 5770SOL    HW118382   2.017   1.423   2.887  1.5324 -0.5794 -1.2420
 5770SOL    HW218383   2.136   1.501   2.938  1.0120  3.1960 -5.1495
 5771SOL     OW18384   3.174   4.690   2.843  0.0821 -0.2480 -0.0496
 5771SOL    HW118385   3.210   4.612   2.886 -0.1334 -0.1978  0.2264
 5771SOL    HW218386   3.100   4.656   2.792  2.3648 -0.9058 -3.2389
 5772SOL     OW18387   2.862   4.511   4.486 -0.0634  0.0626 -0.2868
 5772SOL    HW118388   2.879   4.605   4.482 -0.3309  0.0830 -1.2106
 5772SOL    HW218389   2.778   4.500   4.441  0.1982 -0.6734 -0.6132
 5773SOL     OW18390   3.147   5.079   7.654 -0.6539 -0.1708 -0.2629
 5773SOL    HW118391   3.075   5.135   7.684  1.4300  1.8419  1.3451
 5773SOL    HW218392   3.164   5.020   7.728  0.8140  0.9705  0.3646
 5774SOL     OW18393   0.316   7.606   6.302 -0.2784 -0.6823 -0.2422
 5774SOL    HW118394   0.367   7.633   6.225 -0.9001 -0.5062 -0.6030
 5774SOL    HW218395   0.349   7.519   6.323  0.0374 -0.6492 -0.5863
 5775SOL     OW18396   3.253   8.020   2.571  0.0673 -0.4043  0.3810
 5775SOL    HW118397   3.174   7.973   2.596  0.1957 -0.9580 -0.2371
 5775SOL    HW218398   3.236   8.052   2.483  1.5699 -3.0396 -1.0045
 5776SOL     OW18399   3.007   1.684   2.552  0.1372 -0.1154 -0.0696
 5776SOL    HW118400   2.991   1.766   2.599 -0.8946 -0.3151 -0.0671
 5776SOL    HW218401   3.101   1.669   2.563  0.5181  1.4933 -0.7632
 5777SOL     OW18402   5.315   3.018   0.489 -0.0940  0.0924  0.2934
 5777SOL    HW118403   5.383   3.024   0.556 -0.5873 -1.2803  0.9569
 5777SOL    HW218404   5.357   3.050   0.409  0.2043  2.7592  1.4127
 5778SOL     OW18405   7.500   3.543   4.424 -0.5943  0.8047  0.0761
 5778SOL    HW118406   7.428   3.484   4.402 -0.5390  1.3686 -1.8131
 5778SOL    HW218407   7.579   3.496   4.399 -0.3825  0.7564  0.8044
 5779SOL     OW18408   1.205   6.390   2.058 -0.1981 -0.2049  0.2277
 5779SOL    HW118409   1.249   6.333   1.996  0.6089  0.5057  0.1266
 5779SOL    HW218410   1.140   6.437   2.005  0.0488 -0.0713  0.0372
 5780SOL     OW18411   7.005   1.004   7.552 -0.2910 -0.4132  0.5675
 5780SOL    HW118412   7.029   1.063   7.480 -1.8915 -0.4584 -0.0412
 5780SOL    HW218413   7.064   0.929   7.542 -0.4122 -0.3706 -0.6514
 5781SOL     OW18414   4.662   1.314   5.684  0.0457  0.0977  0.1429
 5781SOL    HW118415   4.589   1.277   5.733 -0.2919  2.0126  1.1779
 5781SOL    HW218416   4.631   1.318   5.593  0.2624 -2.4332 -0.1188
 5782SOL     OW18417   0.044   6.847   4.342  0.0228 -0.0718 -0.1634
 5782SOL    HW118418   0.022   6.894   4.422  1.4433  0.4014 -0.0280
 5782SOL    HW218419   0.137   6.864   4.328  0.3030 -1.8456 -0.7855
 5783SOL     OW18420   4.804   7.523   7.401 -0.8697 -0.3461 -0.1354
 5783SOL    HW118421   4.801   7.484   7.488  2.1217 -0.5195 -0.0272
 5783SOL    HW218422   4.893   7.508   7.370 -1.5397  0.6124 -2.8330
 5784SOL     OW18423   4.422   5.585   1.667  0.2695  0.1754  0.5864
 5784SOL    HW118424   4.511   5.605   1.696  0.2646  1.8457 -0.4214
 5784SOL    HW218425   4.367   5.605   1.743  0.8223 -2.4478  1.7949
 5785SOL     OW18426   3.319   1.560   5.938 -0.6713  0.0343  0.2024
 5785SOL    HW118427   3.253   1.628   5.930  0.2351  0.9481  0.2703
 5785SOL    HW218428   3.308   1.527   6.028 -0.7758  0.4487  0.3424
 5786SOL     OW18429   0.735   1.582   3.693  0.3125 -0.0305 -0.2426
 5786SOL    HW118430   0.694   1.578   3.779  2.2076 -1.7901  0.6674
 5786SOL    HW218431   0.662   1.595   3.632 -1.1018  0.9455  1.5682
 5787SOL     OW18432   7.424   4.833   2.743 -0.1323  0.3837  0.0053
 5787SOL    HW118433   7.488   4.891   2.785 -0.5322  0.8473 -0.0225
 5787SOL    HW218434   7.403   4.877   2.660 -2.9228  1.9496  1.3982
 5788SOL     OW18435   3.046   7.309   3.560  0.3448  0.4604  0.7328
 5788SOL    HW118436   3.067   7.390   3.606  3.5926 -0.1065  0.4789
 5788SOL    HW218437   3.037   7.243   3.630  2.3355  0.1943  0.8053
 5789SOL     OW18438   3.059   1.029   3.197  0.3712  0.0135  0.2352
 5789SOL    HW118439   3.137   1.013   3.250  0.0461  0.4347  0.8458
 5789SOL    HW218440   3.072   1.118   3.162 -1.2414  1.3819  2.8565
 5790SOL     OW18441   6.376   0.239   3.933 -0.2525  0.2158 -0.3834
 5790SOL    HW118442   6.363   0.178   3.860  0.0282 -0.1167 -0.1565
 5790SOL    HW218443   6.452   0.291   3.906  0.6024 -0.6992  0.1869
 5791SOL     OW18444   4.850   5.202   4.794 -0.4108 -0.3356 -0.0804
 5791SOL    HW118445   4.765   5.244   4.777 -0.8176 -0.0875  2.2005
 5791SOL    HW218446   4.839   5.113   4.762 -0.0428  0.7478 -3.6320
 5792SOL     OW18447   7.838   3.835   7.720 -0.3320 -0.0860 -0.2538
 5792SOL    HW118448   7.808   3.781   7.646  1.6437  0.8411 -1.8202
 5792SOL    HW218449   7.765   3.831   7.783 -1.3967 -2.2834 -1.4823
 5793SOL     OW18450   2.711   6.245   5.510 -0.3992 -0.3391 -0.4979
 5793SOL    HW118451   2.691   6.202   5.593  0.6447 -1.2774 -0.7074
 5793SOL    HW218452   2.698   6.176   5.444  1.1719 -0.3315 -0.8564
 5794SOL     OW18453   4.503   4.985   4.713 -0.2057  0.2450  0.3945
 5794SOL    HW118454   4.598   4.980   4.724 -0.1476 -1.3719 -0.5497
 5794SOL    HW218455   4.469   4.968   4.801  0.3547  0.8548  0.7489
 5795SOL     OW18456   5.692   6.430   4.499  0.4105  0.3091 -0.1257
 5795SOL    HW118457   5.769   6.422   4.442  0.6086  0.4240  0.1215
 5795SOL    HW218458   5.651   6.513   4.473  0.7450  0.5809  0.1845
 5796SOL     OW18459   4.504   6.455   0.506  0.3592 -0.5826 -0.0821
 5796SOL    HW118460   4.467   6.541   0.486 -0.3049 -0.0851  2.7794
 5796SOL    HW218461   4.428   6.397   0.511  0.5198 -0.7589  0.4242
 5797SOL     OW18462   3.006   5.570   6.513  0.4342 -0.4254  0.4331
 5797SOL    HW118463   3.055   5.641   6.473  0.0825 -0.1450  0.4990
 5797SOL    HW218464   2.938   5.613   6.564  0.9863 -0.7733  1.4805
 5798SOL     OW18465   5.100   4.057   4.828  0.0936  0.3709  0.6433
 5798SOL    HW118466   5.161   4.112   4.878 -0.2445  1.1084  0.2731
 5798SOL    HW218467   5.041   4.021   4.893 -0.4741  1.4936  0.7753
 5799SOL     OW18468   1.018   4.707   2.441 -0.4636  0.2704 -0.4402
 5799SOL    HW118469   0.950   4.693   2.507 -0.7297  0.1714 -0.7345
 5799SOL    HW218470   0.989   4.786   2.394 -0.9904 -0.4381 -1.3370
 5800SOL     OW18471   5.480   4.217   5.139 -0.4506 -0.2734  0.1698
 5800SOL    HW118472   5.414   4.152   5.114 -0.9878  0.0264  0.7892
 5800SOL    HW218473   5.452   4.247   5.225 -0.7802  1.5190 -0.5286
 5801SOL     OW18474   2.600   4.875   4.807 -0.3139  0.2382 -0.2045
 5801SOL    HW118475   2.521   4.829   4.778 -0.2613 -0.0898  0.1733
 5801SOL    HW218476   2.672   4.815   4.786 -0.2088  0.3204 -0.0813
 5802SOL     OW18477   3.408   1.184   1.788  0.4087  0.0184 -0.5496
 5802SOL    HW118478   3.487   1.238   1.788 -0.0856  0.8819  1.9105
 5802SOL    HW218479   3.438   1.100   1.825  0.4559 -0.1467 -0.9619
 5803SOL     OW18480   4.607   8.108   1.340 -0.4324  0.2095  0.2463
 5803SOL    HW118481   4.577   8.141   1.425 -1.9212  0.7830 -0.4622
 5803SOL    HW218482   4.561   8.162   1.276  0.2290 -0.5851 -0.9305
 5804SOL     OW18483   2.973   3.195   7.569 -0.1843  0.8118 -0.4788
 5804SOL    HW118484   2.937   3.121   7.520 -1.3780  0.8158  0.3275
 5804SOL    HW218485   3.053   3.161   7.609 -0.4305  0.1189 -0.5579
 5805SOL     OW18486   6.111   4.113   7.252  0.3141  0.0517 -0.3597
 5805SOL    HW118487   6.127   4.021   7.271  1.6537  0.1794 -0.8133
 5805SOL    HW218488   6.187   4.159   7.288 -0.4146  1.0091  0.0220
 5806SOL     OW18489   7.394   4.811   4.131  0.1238 -0.1141 -0.0892
 5806SOL    HW118490   7.459   4.742   4.144  0.5324 -0.2105 -2.3110
 5806SOL    HW218491   7.432   4.869   4.064 -0.5663  1.8357  1.1011
 5807SOL     OW18492   2.470   7.936   5.716 -0.2386 -0.1609  0.0595
 5807SOL    HW118493   2.556   7.946   5.676 -0.0019 -2.4223 -0.1492
 5807SOL    HW218494   2.477   7.979   5.801  0.8160  0.4063 -0.2955
 5808SOL     OW18495   7.022   4.023   3.863 -0.3810  0.0283 -0.2126
 5808SOL    HW118496   7.020   3.929   3.881  0.3322 -0.0154 -0.3192
 5808SOL    HW218497   7.113   4.048   3.878 -0.8626  1.0129  1.3650
 5809SOL     OW18498   6.442   4.434   7.474  0.0688 -0.1516 -0.3733
 5809SOL    HW118499   6.375   4.407   7.412 -0.3621  1.0507 -0.4626
 5809SOL    HW218500   6.517   4.458   7.420  0.2717 -0.6576 -0.3232
 5810SOL     OW18501   4.365   4.648   2.503 -0.4469 -0.0238  0.0397
 5810SOL    HW118502   4.405   4.565   2.476 -1.2185 -1.1628  2.1240
 5810SOL    HW218503   4.271   4.627   2.510 -0.7313  1.1956 -0.0102
 5811SOL     OW18504   1.551   2.469   7.114 -0.5953 -0.4252 -0.3099
 5811SOL    HW118505   1.536   2.490   7.022 -0.4401 -0.9695 -0.4592
 5811SOL    HW218506   1.530   2.550   7.161 -1.9906 -0.5551 -0.6866
 5812SOL     OW18507   6.171   1.837   2.814 -0.9734  0.3550 -0.0864
 5812SOL    HW118508   6.217   1.920   2.827 -0.6206  0.1065  0.2718
 5812SOL    HW218509   6.103   1.857   2.750 -1.2154  1.0429  0.3736
 5813SOL     OW18510   5.116   5.199   0.825 -0.0007 -0.0412 -0.3718
 5813SOL    HW118511   5.045   5.140   0.799  0.4641 -0.8027  0.0755
 5813SOL    HW218512   5.126   5.257   0.749  0.1009 -1.0672 -1.1753
 5814SOL     OW18513   4.322   4.243   4.335 -0.1392  0.2108 -0.3149
 5814SOL    HW118514   4.387   4.185   4.375  1.3314  2.2375  0.3541
 5814SOL    HW218515   4.247   4.239   4.395 -1.4300 -3.3252 -1.8610
 5815SOL     OW18516   0.751   6.199   2.372 -0.0346  0.3401  0.0115
 5815SOL    HW118517   0.749   6.292   2.353 -0.1210  0.5446  0.9882
 5815SOL    HW218518   0.663   6.168   2.351 -0.5082  0.8049  1.2428
 5816SOL     OW18519   5.776   4.065   2.075  0.0538 -0.3308  0.3086
 5816SOL    HW118520   5.685   4.055   2.048  0.7589  0.9597 -3.0836
 5816SOL    HW218521   5.827   4.048   1.995  2.7502 -0.2232  1.8800
 5817SOL     OW18522   4.908   0.799   4.293 -0.7145  0.1478 -0.3935
 5817SOL    HW118523   4.908   0.722   4.351 -0.5261  1.7706  1.9163
 5817SOL    HW218524   4.998   0.831   4.298 -1.3030  1.7640  0.5348
 5818SOL     OW18525   2.623   4.628   4.192  0.0350  0.2470 -0.4672
 5818SOL    HW118526   2.570   4.652   4.116 -1.4717 -0.0533  0.4495
 5818SOL    HW218527   2.606   4.534   4.203 -0.0312  0.3651  0.4437
 5819SOL     OW18528   0.663   6.828   8.024  0.0228 -0.2073 -0.4249
 5819SOL    HW118529   0.576   6.837   8.062 -0.1128  0.4999 -0.8894
 5819SOL    HW218530   0.672   6.734   8.007  0.6765 -0.8000  2.6847
 5820SOL     OW18531   5.530   0.399   1.492 -0.5136  0.1405  0.0425
 5820SOL    HW118532   5.455   0.458   1.487 -1.8041 -1.1572  2.1330
 5820SOL    HW218533   5.495   0.314   1.464  0.3682 -0.3289  0.3364
 5821SOL     OW18534   4.307   2.905   0.708  0.1610 -0.2652 -0.2529
 5821SOL    HW118535   4.352   2.987   0.690  0.9395 -0.6875 -0.2447
 5821SOL    HW218536   4.256   2.923   0.787 -0.5211  0.5250 -0.8420
 5822SOL     OW18537   5.854   4.903   6.774  0.3358  0.2636 -0.5858
 5822SOL    HW118538   5.775   4.957   6.769 -1.7481 -2.5307 -0.5237
 5822SOL    HW218539   5.879   4.890   6.682  0.2201  0.4844 -0.6494
 5823SOL     OW18540   2.476   4.294   2.755 -0.0322  0.1501  0.3016
 5823SOL    HW118541   2.518   4.380   2.749  3.9474 -1.5930 -0.0000
 5823SOL    HW218542   2.516   4.253   2.831 -0.4273 -2.1125 -0.6392
 5824SOL     OW18543   5.935   4.313   7.062 -0.2043 -0.2792 -0.2718
 5824SOL    HW118544   5.953   4.298   6.969 -0.2075 -1.7769 -0.0473
 5824SOL    HW218545   5.945   4.227   7.103  0.7260  0.5256  1.2803
 5825SOL     OW18546   3.081   6.295   3.916 -0.2391  0.8269  0.0683
 5825SOL    HW118547   3.066   6.225   3.853 -1.4110  1.7222 -0.6800
 5825SOL    HW218548   3.155   6.344   3.880 -0.0413  0.5528  0.0964
 5826SOL     OW18549   3.149   3.974   3.749 -0.4851 -0.1348 -0.0634
 5826SOL    HW118550   3.091   4.015   3.813  0.8008  0.0685  1.0149
 5826SOL    HW218551   3.197   3.908   3.799  1.6694  1.0727 -0.4290
 5827SOL     OW18552   8.037   0.164   4.668 -0.4064 -0.0343  0.3608
 5827SOL    HW118553   8.093   0.178   4.592  0.4622  0.7377  1.1185
 5827SOL    HW218554   8.097   0.136   4.737 -0.8949  1.0842  1.2658
 5828SOL     OW18555   1.090   3.467   6.851  0.1015 -0.0683  0.4319
 5828SOL    HW118556   1.126   3.409   6.918 -1.1230 -1.5044 -0.0839
 5828SOL    HW218557   1.166   3.501   6.805  0.9799  1.0874  2.6079
 5829SOL     OW18558   7.945   0.208   7.343  0.4633  0.5561 -0.0092
 5829SOL    HW118559   7.936   0.184   7.251  2.2832 -0.2838 -0.0130
 5829SOL    HW218560   7.855   0.210   7.376 -0.1410 -0.4804 -1.4674
 5830SOL     OW18561   4.416   5.694   7.508 -0.6440 -0.8094  0.3067
 5830SOL    HW118562   4.442   5.605   7.484 -0.6980 -0.5905 -0.5820
 5830SOL    HW218563   4.324   5.701   7.480 -0.7701 -0.6092  0.7582
 5831SOL     OW18564   7.937   5.369   7.289 -0.5983 -0.1070 -0.0471
 5831SOL    HW118565   7.841   5.371   7.286 -0.5951  0.8182  0.3941
 5831SOL    HW218566   7.964   5.455   7.257  0.0437  0.1916  1.2554
 5832SOL     OW18567   7.091   5.448   6.485 -0.0062 -0.4111  0.0704
 5832SOL    HW118568   7.042   5.530   6.491  0.9591  0.0889  1.7593
 5832SOL    HW218569   7.155   5.464   6.416 -0.1931  0.0539 -0.0021
 5833SOL     OW18570   4.055   2.986   0.528 -0.3329  0.0295 -0.0909
 5833SOL    HW118571   4.082   3.039   0.602 -2.2265  0.7425  0.1549
 5833SOL    HW218572   4.018   2.906   0.567  0.0945 -0.2953 -0.3427
 5834SOL     OW18573   2.614   6.496   6.038 -0.0703  0.2713  0.1027
 5834SOL    HW118574   2.606   6.511   6.133 -2.0644 -1.4061  0.2738
 5834SOL    HW218575   2.585   6.577   5.998 -0.0895  0.6755  0.9248
 5835SOL     OW18576   4.989   2.908   6.632 -0.1082  0.2708  0.3639
 5835SOL    HW118577   4.942   2.971   6.578  0.5327  1.1626  0.8204
 5835SOL    HW218578   5.006   2.954   6.714  0.4098 -0.4809  0.6918
 5836SOL     OW18579   7.208   4.058   0.115 -0.0554 -0.1248 -0.2879
 5836SOL    HW118580   7.145   3.992   0.144 -0.1137  0.1697  0.2564
 5836SOL    HW218581   7.217   4.042   0.021 -0.2412 -0.7601 -0.2021
 5837SOL     OW18582   5.692   1.235   2.898 -0.2813  1.0665 -0.0838
 5837SOL    HW118583   5.751   1.284   2.954 -2.1099  0.8473  2.1857
 5837SOL    HW218584   5.638   1.184   2.958 -1.5751 -0.1343 -2.1202
 5838SOL     OW18585   0.278   5.833   3.416 -0.0598  0.3802 -0.6015
 5838SOL    HW118586   0.369   5.861   3.413 -0.1625  0.7016 -0.7965
 5838SOL    HW218587   0.238   5.889   3.483 -0.0788  0.1343 -0.4065
 5839SOL     OW18588   3.896   6.096   1.698  0.4731  0.0579  0.2302
 5839SOL    HW118589   3.837   6.099   1.622 -0.1937  1.8492  0.7595
 5839SOL    HW218590   3.968   6.154   1.674  0.9198 -0.3884  0.4752
 5840SOL     OW18591   2.424   0.979   3.471  0.1110 -0.4122 -0.1113
 5840SOL    HW118592   2.400   0.993   3.563 -1.9251 -0.2388 -0.6166
 5840SOL    HW218593   2.439   1.067   3.436 -0.6215 -0.3460 -0.2884
 5841SOL     OW18594   1.050   2.774   2.233  0.0219  0.1585 -0.2578
 5841SOL    HW118595   0.966   2.781   2.278 -0.7219 -0.4384 -1.4877
 5841SOL    HW218596   1.046   2.841   2.165  0.7619  0.4699  0.0004
 5842SOL     OW18597   6.735   3.660   0.294 -0.4588 -0.1428 -0.4510
 5842SOL    HW118598   6.734   3.672   0.199  1.2347 -0.0434 -0.4876
 5842SOL    HW218599   6.825   3.634   0.314 -0.3561  1.3976  1.3219
 5843SOL     OW18600   8.162   2.661   6.820 -0.6003  0.0407  0.1290
 5843SOL    HW118601   8.110   2.586   6.791  1.8525 -1.7254 -0.0197
 5843SOL    HW218602   8.164   2.720   6.745  0.1138 -1.3127 -0.9517
 5844SOL     OW18603   0.872   6.915   3.719  0.4909  0.2506  0.0905
 5844SOL    HW118604   0.802   6.960   3.672 -0.6433 -0.1393  1.3593
 5844SOL    HW218605   0.951   6.936   3.669 -0.6168  0.0239 -1.8418
 5845SOL     OW18606   2.889   1.555   1.654  0.1122  0.3016  0.0355
 5845SOL    HW118607   2.959   1.602   1.608  2.5420  0.2961  3.3501
 5845SOL    HW218608   2.869   1.611   1.729  0.3153 -2.0487  1.9696
 5846SOL     OW18609   3.196   4.560   5.550 -0.1678  0.1243 -0.2156
 5846SOL    HW118610   3.277   4.592   5.512  0.3023 -0.9044 -0.1061
 5846SOL    HW218611   3.129   4.580   5.484  0.1730  0.9043 -0.3380
 5847SOL     OW18612   6.746   4.119   7.006 -0.5856 -0.7450  0.5253
 5847SOL    HW118613   6.839   4.104   6.986  0.7518  5.2009  0.4463
 5847SOL    HW218614   6.733   4.078   7.091  2.8309  0.1156  1.6110
 5848SOL     OW18615   4.637   0.549   2.151  0.4470 -0.0097  0.1283
 5848SOL    HW118616   4.569   0.569   2.087 -0.5621  1.5247  1.5840
 5848SOL    HW218617   4.598   0.481   2.206  0.5122  0.1126  0.3246
 5849SOL     OW18618   7.459   6.829   6.948  0.0013  0.2986 -0.5619
 5849SOL    HW118619   7.544   6.867   6.967 -0.1591  0.6589 -0.5634
 5849SOL    HW218620   7.474   6.734   6.949 -0.0257  0.2736  1.5082
 5850SOL     OW18621   7.615   7.484   2.097 -0.2844  0.5066  0.0474
 5850SOL    HW118622   7.654   7.523   2.175 -1.4872 -0.7710  1.3365
 5850SOL    HW218623   7.649   7.394   2.096 -2.0936 -0.2099  0.4545
 5851SOL     OW18624   2.664   5.821   3.023 -0.5320 -0.0093 -0.1289
 5851SOL    HW118625   2.606   5.897   3.022  0.7221  0.9952 -2.0937
 5851SOL    HW218626   2.671   5.794   2.932  0.7597 -1.1472  0.2673
 5852SOL     OW18627   2.293   2.593   7.791  0.6548 -0.0339  0.5174
 5852SOL    HW118628   2.336   2.675   7.767  3.2354 -1.3738  0.2130
 5852SOL    HW218629   2.282   2.598   7.886 -0.0971  1.0136  0.3937
 5853SOL     OW18630   7.104   4.121   6.461 -0.0477 -0.1125  0.2426
 5853SOL    HW118631   7.091   4.129   6.555 -0.5130 -1.0267  0.2681
 5853SOL    HW218632   7.158   4.197   6.438  0.6282 -0.2239  1.3491
 5854SOL     OW18633   0.879   3.610   3.912  0.0632  0.1610  0.6154
 5854SOL    HW118634   0.805   3.634   3.856  0.5716 -1.8071 -1.0352
 5854SOL    HW218635   0.908   3.525   3.878  2.1934  0.2040  2.1178
 5855SOL     OW18636   7.815   3.320   2.413  0.4031  0.4105 -0.1491
 5855SOL    HW118637   7.750   3.295   2.479  1.4386 -1.2830  0.3293
 5855SOL    HW218638   7.882   3.367   2.463  0.4664  0.4461 -0.2681
 5856SOL     OW18639   3.087   3.495   5.897 -0.3747  0.5685 -0.2932
 5856SOL    HW118640   3.069   3.440   5.973  1.9522 -1.1745 -0.8726
 5856SOL    HW218641   3.022   3.565   5.901 -1.0667 -0.1218  2.6069
 5857SOL     OW18642   7.436   0.332   1.545 -0.0932  0.1352 -0.0732
 5857SOL    HW118643   7.430   0.237   1.531 -0.6984 -0.0128  1.0871
 5857SOL    HW218644   7.346   0.363   1.538  0.2178  0.7957 -1.4394
 5858SOL     OW18645   5.515   2.018   7.878 -0.5519 -0.0527  0.1102
 5858SOL    HW118646   5.555   2.008   7.964 -2.0555 -0.3994  0.7876
 5858SOL    HW218647   5.566   2.088   7.837  1.8429 -1.5965  0.2441
 5859SOL     OW18648   0.044   6.509   5.880 -0.3281  0.0876 -0.2769
 5859SOL    HW118649   0.049   6.535   5.788 -0.8379 -1.2833 -0.7286
 5859SOL    HW218650   0.079   6.583   5.929  0.2240  0.7175 -1.5965
 5860SOL     OW18651   0.173   3.851   8.140 -0.5032 -0.1936 -0.7339
 5860SOL    HW118652   0.103   3.893   8.090 -1.6104  0.1759  1.0478
 5860SOL    HW218653   0.204   3.919   8.200  1.1017 -0.4987 -1.1530
 5861SOL     OW18654   4.192   6.039   6.906  0.7940  0.4198 -0.3390
 5861SOL    HW118655   4.232   6.126   6.911  1.6261 -0.0110  1.2023
 5861SOL    HW218656   4.266   5.979   6.913  0.2584 -0.4384 -1.6630
 5862SOL     OW18657   2.575   5.494   6.657 -0.0996 -0.0462 -0.2937
 5862SOL    HW118658   2.521   5.464   6.584 -1.4958  0.5407  0.4511
 5862SOL    HW218659   2.513   5.504   6.730  0.7542  1.9640  0.2312
 5863SOL     OW18660   3.334   2.415   4.872  0.1396  0.2670  0.0785
 5863SOL    HW118661   3.348   2.321   4.869 -3.5208 -0.4024 -0.9399
 5863SOL    HW218662   3.386   2.450   4.800  2.2669 -0.7700  1.0265
 5864SOL     OW18663   7.441   7.142   3.863  0.1139  0.1521  0.5296
 5864SOL    HW118664   7.411   7.220   3.816  0.6777  0.4405  0.6344
 5864SOL    HW218665   7.535   7.156   3.873  0.0606 -0.0857  1.4132
 5865SOL     OW18666   6.337   1.458   1.878  0.4539  0.1783 -0.4734
 5865SOL    HW118667   6.269   1.523   1.893  0.6084  0.2725 -0.1533
 5865SOL    HW218668   6.317   1.387   1.939  1.3380  0.7577  0.5309
 5866SOL     OW18669   6.523   0.878   0.383 -0.0695  0.0313 -0.7442
 5866SOL    HW118670   6.434   0.843   0.378  0.0510 -0.5430  0.6581
 5866SOL    HW218671   6.576   0.812   0.337 -0.3571  0.4351 -1.6926
 5867SOL     OW18672   5.154   7.610   8.040 -0.5638  0.2435  0.0612
 5867SOL    HW118673   5.140   7.643   7.951  0.0098 -1.5838 -0.7540
 5867SOL    HW218674   5.133   7.517   8.035 -0.2955  0.0480  1.7984
 5868SOL     OW18675   4.067   2.448   0.395 -0.1297  0.2815  0.4559
 5868SOL    HW118676   4.159   2.431   0.416  0.8505  3.2316 -0.9800
 5868SOL    HW218677   4.038   2.511   0.462 -0.5012  0.8605 -0.2376
 5869SOL     OW18678   0.894   6.147   1.233  0.0564 -0.3994  0.7903
 5869SOL    HW118679   0.817   6.174   1.283  0.0154 -0.3708  0.7116
 5869SOL    HW218680   0.884   6.191   1.149 -0.4239 -1.3063  0.3574
 5870SOL     OW18681   7.401   1.632   7.700 -0.9073 -0.6482 -0.9459
 5870SOL    HW118682   7.449   1.628   7.783  0.0714  1.6595 -1.3200
 5870SOL    HW218683   7.395   1.540   7.671  0.1251 -1.3413  0.8703
 5871SOL     OW18684   4.367   5.693   6.779  0.0197  0.2207 -0.0038
 5871SOL    HW118685   4.412   5.767   6.739  1.5478 -0.2793  0.7202
 5871SOL    HW218686   4.380   5.620   6.718  1.3812 -0.2571  0.8213
 5872SOL     OW18687   0.639   7.166   0.315  0.0482  0.2344  0.5396
 5872SOL    HW118688   0.615   7.073   0.307  0.7984  0.0714  0.1691
 5872SOL    HW218689   0.734   7.167   0.312  0.0634  1.2861 -2.6573
 5873SOL     OW18690   5.946   4.879   4.522  0.0285 -0.4521  0.3379
 5873SOL    HW118691   5.996   4.806   4.556  1.0540  0.8703  1.8285
 5873SOL    HW218692   5.971   4.954   4.577 -1.4291  0.8955 -0.7075
 5874SOL     OW18693   1.601   0.386   2.895  0.6327  0.6360  0.1124
 5874SOL    HW118694   1.693   0.411   2.904  0.9940 -0.4623 -0.3660
 5874SOL    HW218695   1.586   0.385   2.800 -0.6431  3.3866  0.1654
 5875SOL     OW18696   2.473   0.035   2.481  0.0946 -0.0490 -0.8128
 5875SOL    HW118697   2.474  -0.053   2.441 -0.5435 -0.2962 -0.2965
 5875SOL    HW218698   2.473   0.018   2.575  0.6281  0.5217 -0.7071
 5876SOL     OW18699   2.585   1.101   0.635  0.0591 -0.0905  0.1841
 5876SOL    HW118700   2.587   1.006   0.646  1.2766 -0.4831 -2.5761
 5876SOL    HW218701   2.603   1.136   0.723  0.4452 -2.4035  1.1006
 5877SOL     OW18702   3.202   0.234   4.478 -0.1996 -0.4285 -0.7049
 5877SOL    HW118703   3.153   0.282   4.544 -0.9483  0.0214 -1.5534
 5877SOL    HW218704   3.193   0.287   4.399  0.6557 -0.9619 -1.1688
 5878SOL     OW18705   7.226   4.267   6.710  0.2048 -0.3180  0.6133
 5878SOL    HW118706   7.293   4.199   6.714 -0.1077 -0.6191  0.7819
 5878SOL    HW218707   7.210   4.290   6.801  0.1446 -0.1816  0.5681
 5879SOL     OW18708   5.688   1.435   0.378 -0.1243  0.0614  0.0900
 5879SOL    HW118709   5.772   1.395   0.402 -0.2751 -1.4407 -1.6723
 5879SOL    HW218710   5.622   1.386   0.426 -0.1598 -0.4193 -0.4450
 5880SOL     OW18711   1.627   4.973   2.043 -0.0937  0.5018 -0.5040
 5880SOL    HW118712   1.662   5.061   2.028 -0.4211  0.6610 -0.3534
 5880SOL    HW218713   1.637   4.958   2.137  1.9888 -0.5106 -0.8456
 5881SOL     OW18714   5.441   1.545   4.464 -0.3401 -0.5568 -0.0053
 5881SOL    HW118715   5.381   1.493   4.411  0.8614  0.1349 -2.1460
 5881SOL    HW218716   5.383   1.602   4.516 -1.5815  0.0242 -1.9161
 5882SOL     OW18717   0.042   3.797   0.783  0.1526  0.4129 -0.3000
 5882SOL    HW118718  -0.012   3.836   0.715 -1.8088  0.2010  1.0429
 5882SOL    HW218719   0.005   3.709   0.795 -2.1506  1.6809  3.5569
 5883SOL     OW18720   6.777   2.581   6.718  0.6916 -0.5141  0.1401
 5883SOL    HW118721   6.724   2.509   6.753 -1.9125  0.4206 -1.5200
 5883SOL    HW218722   6.745   2.658   6.765  0.4760  0.0897 -0.9729
 5884SOL     OW18723   2.297   2.539   6.765  0.1657 -0.2500  0.4710
 5884SOL    HW118724   2.280   2.626   6.801 -0.2258 -0.4619  0.8081
 5884SOL    HW218725   2.360   2.499   6.825  0.9512  0.0904 -0.1190
 5885SOL     OW18726   7.295   5.861   1.414 -0.1696  0.1166  0.5451
 5885SOL    HW118727   7.335   5.780   1.445 -2.4506 -2.4716 -2.5200
 5885SOL    HW218728   7.203   5.854   1.439 -0.6275  1.2092 -0.6928
 5886SOL     OW18729   5.761   5.583   6.211 -0.1293  0.6531  0.7177
 5886SOL    HW118730   5.742   5.491   6.199 -1.4488  0.9870  0.1409
 5886SOL    HW218731   5.810   5.609   6.133  2.2587 -0.0289  1.8704
 5887SOL     OW18732   3.151   4.702   0.131  0.3466 -0.4888 -0.4173
 5887SOL    HW118733   3.156   4.607   0.123  1.5581 -0.5770  0.9717
 5887SOL    HW218734   3.241   4.731   0.140 -0.0362  0.7500 -0.2965
 5888SOL     OW18735   4.766   1.196   1.772 -0.2677  0.6182 -0.1302
 5888SOL    HW118736   4.767   1.259   1.700 -0.0848  3.1245  1.8902
 5888SOL    HW218737   4.857   1.189   1.799 -0.5821  1.5503  1.2793
 5889SOL     OW18738   2.854   7.847   3.481  0.3010 -0.0364 -0.5675
 5889SOL    HW118739   2.944   7.856   3.450  0.8634 -1.8411  0.3530
 5889SOL    HW218740   2.859   7.775   3.545 -2.1311 -1.4873 -1.8853
 5890SOL     OW18741   4.563   2.491   4.973 -0.0779 -0.3289  0.2968
 5890SOL    HW118742   4.503   2.449   5.035  0.1204 -0.3194  0.4963
 5890SOL    HW218743   4.637   2.518   5.026  0.8702 -1.8103 -0.1962
 5891SOL     OW18744   4.923   2.404   4.076 -0.1502 -0.2218  0.8349
 5891SOL    HW118745   4.927   2.460   3.999  1.6670  0.5902  1.4555
 5891SOL    HW218746   4.835   2.418   4.112 -0.4415  0.6451 -0.1759
 5892SOL     OW18747   3.879   6.509   2.477 -0.2211  0.3757  0.1515
 5892SOL    HW118748   3.828   6.495   2.397  0.4296  2.2248 -0.6400
 5892SOL    HW218749   3.829   6.575   2.526 -0.3340 -0.3423  1.0390
 5893SOL     OW18750   2.065   2.621   8.068  0.4731  0.4851  0.6561
 5893SOL    HW118751   2.014   2.548   8.035  1.9867 -0.7363  0.8734
 5893SOL    HW218752   2.020   2.648   8.148  1.1977 -1.8691  1.9507
 5894SOL     OW18753   0.988   7.638   1.012 -0.5903  0.2945  0.1338
 5894SOL    HW118754   1.010   7.672   0.925 -0.1933 -1.7096 -0.6106
 5894SOL    HW218755   0.998   7.713   1.070  2.6138  0.9197 -1.0061
 5895SOL     OW18756   2.609   5.281   7.486  0.6276  0.3863  0.3603
 5895SOL    HW118757   2.617   5.215   7.554  1.2098  0.3872  0.2940
 5895SOL    HW218758   2.523   5.264   7.446 -0.2661  1.1306  1.8647
 5896SOL     OW18759   1.228   7.046   7.883  0.0326  0.1017  0.3528
 5896SOL    HW118760   1.292   7.101   7.928  1.2980  0.3307 -1.5803
 5896SOL    HW218761   1.143   7.077   7.914  0.7698  1.8876  0.7322
 5897SOL     OW18762   5.367   1.155   2.207 -0.0335  0.4115  0.8395
 5897SOL    HW118763   5.377   1.245   2.175 -0.5721  0.3225  0.4006
 5897SOL    HW218764   5.448   1.111   2.181 -0.5968  0.2420 -0.7927
 5898SOL     OW18765   7.950   5.571   4.325  0.1762 -0.1443  0.0341
 5898SOL    HW118766   8.027   5.582   4.381  0.1620 -0.1988  0.0641
 5898SOL    HW218767   7.884   5.531   4.382 -0.1930  0.7714  0.2800
 5899SOL     OW18768   1.354   6.714   0.341  0.3405 -0.2332 -0.3064
 5899SOL    HW118769   1.418   6.767   0.387 -0.0124 -1.3029  1.5001
 5899SOL    HW218770   1.386   6.624   0.352 -1.0694 -0.7123 -0.0091
 5900SOL     OW18771   5.243   5.782   1.366  1.3915 -0.3237 -0.0142
 5900SOL    HW118772   5.278   5.861   1.326  0.6065 -0.0487 -0.1695
 5900SOL    HW218773   5.268   5.789   1.458  0.7918  0.4197  0.1028
 5901SOL     OW18774   5.736   4.869   2.898 -0.0881 -0.1020 -0.5463
 5901SOL    HW118775   5.688   4.898   2.820  0.0667 -0.7301 -0.8792
 5901SOL    HW218776   5.820   4.839   2.865  0.6120  1.1238  0.0564
 5902SOL     OW18777   0.172   1.743   6.793 -0.6140 -0.1304 -0.3999
 5902SOL    HW118778   0.240   1.694   6.839  0.3314  0.7093 -0.8608
 5902SOL    HW218779   0.092   1.729   6.844  0.3724  0.6939  1.4557
 5903SOL     OW18780   4.861   5.717   3.651  0.1855  0.2219  0.3823
 5903SOL    HW118781   4.862   5.797   3.705  0.1672 -0.4137  1.3528
 5903SOL    HW218782   4.916   5.655   3.699 -1.0425 -0.8551  0.4461
 5904SOL     OW18783   0.622   2.011   2.480 -0.5486  0.0536 -0.1880
 5904SOL    HW118784   0.698   1.957   2.501 -0.4193  0.6813  1.0377
 5904SOL    HW218785   0.623   2.017   2.384 -0.5166 -2.0130 -0.3688
 5905SOL     OW18786   2.866   1.267   6.772  0.6409 -0.0616 -0.1676
 5905SOL    HW118787   2.825   1.310   6.848  0.5262 -0.5631  0.0554
 5905SOL    HW218788   2.870   1.336   6.705 -0.4353  0.0292 -0.1466
 5906SOL     OW18789   1.545   4.285   8.147  0.2389 -0.1528 -0.2145
 5906SOL    HW118790   1.461   4.240   8.152 -0.0861  0.4024 -0.5935
 5906SOL    HW218791   1.565   4.287   8.054 -0.4672  1.7659 -0.3647
 5907SOL     OW18792   2.860   6.563   2.407  0.7195  0.0628  0.5499
 5907SOL    HW118793   2.798   6.635   2.397  0.6392  0.0718  1.0728
 5907SOL    HW218794   2.874   6.530   2.318  0.4917  0.4987  0.3510
 5908SOL     OW18795   7.685   7.098   4.754 -0.4417  0.5292  0.0834
 5908SOL    HW118796   7.739   7.160   4.705  2.1342 -0.8105  1.0008
 5908SOL    HW218797   7.645   7.043   4.687  1.4010  0.0016 -0.6618
 5909SOL     OW18798   4.183   2.176   0.014 -0.3698  0.3275  0.3095
 5909SOL    HW118799   4.144   2.142  -0.066 -0.4500  1.0767  0.0262
 5909SOL    HW218800   4.128   2.251   0.037 -1.2711 -0.7574  1.8916
 5910SOL     OW18801   5.797   6.436   0.745  0.5069  0.0975  0.2849
 5910SOL    HW118802   5.863   6.452   0.678 -0.7862  0.5210 -0.9453
 5910SOL    HW218803   5.847   6.411   0.823  2.1254  0.9040 -0.4422
 5911SOL     OW18804   5.299   6.011   0.369 -0.3307 -0.3708 -0.9240
 5911SOL    HW118805   5.219   6.011   0.422 -0.5218 -0.6916 -1.2091
 5911SOL    HW218806   5.291   5.933   0.314 -0.0738 -0.1076 -1.3361
 5912SOL     OW18807   6.007   3.415   6.308  0.6345 -0.0025 -0.1951
 5912SOL    HW118808   5.918   3.446   6.326  1.1042  0.6439  1.1951
 5912SOL    HW218809   6.014   3.333   6.357  0.1233 -1.2315 -2.0778
 5913SOL     OW18810   2.276   7.172   7.122  0.6208  0.5503  0.0219
 5913SOL    HW118811   2.200   7.181   7.064 -0.0732 -0.4216  0.7408
 5913SOL    HW218812   2.351   7.195   7.067 -0.0441 -0.0381 -1.1779
 5914SOL     OW18813   3.006   0.397   0.039  0.5088 -0.4010 -0.4751
 5914SOL    HW118814   3.030   0.372  -0.050 -0.7309  1.1630 -1.3142
 5914SOL    HW218815   2.940   0.466   0.027  0.0821 -0.3719  1.6607
 5915SOL     OW18816   2.683   3.765   1.209  0.3739 -0.1308 -0.0105
 5915SOL    HW118817   2.644   3.808   1.285 -0.5457  0.2814 -0.6899
 5915SOL    HW218818   2.745   3.703   1.246 -1.5871 -1.4976  1.2127
 5916SOL     OW18819   0.432   1.151   5.853  0.1132  0.4672 -0.0722
 5916SOL    HW118820   0.445   1.083   5.786 -0.5221  0.8497 -0.5915
 5916SOL    HW218821   0.377   1.109   5.919  2.2258 -0.5169  1.1575
 5917SOL     OW18822   0.283   3.418   0.747  0.4689  0.1365 -0.0608
 5917SOL    HW118823   0.203   3.397   0.698 -0.4237  0.2606  1.2837
 5917SOL    HW218824   0.328   3.334   0.756  0.5883  0.0891 -0.9466
 5918SOL     OW18825   0.956   7.649   1.317 -0.5686  0.8164 -0.5126
 5918SOL    HW118826   0.954   7.583   1.387 -0.1166  0.1745 -1.0879
 5918SOL    HW218827   0.894   7.716   1.346 -0.2613  0.6518  0.5817
 5919SOL     OW18828   3.056   4.058   1.400 -0.0306  0.2114  0.0472
 5919SOL    HW118829   3.053   3.974   1.446  0.6266 -0.0163 -0.3145
 5919SOL    HW218830   3.053   4.123   1.470  2.3495 -0.1289  0.5557
 5920SOL     OW18831   2.019   4.514   5.335 -0.0549 -0.0739 -0.6694
 5920SOL    HW118832   2.100   4.523   5.386  0.1349  1.8645 -1.2378
 5920SOL    HW218833   1.950   4.542   5.396 -0.1681 -0.5623 -0.5697
 5921SOL     OW18834   1.152   7.322   6.314 -0.3555  0.3905  0.5179
 5921SOL    HW118835   1.096   7.280   6.248  0.5884  0.7546 -0.5429
 5921SOL    HW218836   1.115   7.410   6.323  0.8093  1.1124 -1.2090
 5922SOL     OW18837   5.681   4.347   4.912  0.2987  0.0479  0.2069
 5922SOL    HW118838   5.702   4.319   4.823 -0.7542 -1.7494  0.4639
 5922SOL    HW218839   5.707   4.273   4.967  0.0867  0.7551  1.2974
 5923SOL     OW18840   2.776   2.424   4.596 -0.1580 -0.9028  0.4722
 5923SOL    HW118841   2.804   2.343   4.638  1.2188  0.9545  3.4451
 5923SOL    HW218842   2.856   2.460   4.557 -1.0256 -1.5699 -2.0822
 5924SOL     OW18843   7.502   1.366   5.204  0.3834  0.1576 -0.5667
 5924SOL    HW118844   7.560   1.380   5.129 -0.2986  0.2092 -1.0934
 5924SOL    HW218845   7.542   1.418   5.275  0.9786  0.1841 -0.9147
 5925SOL     OW18846   3.283   1.761   1.274 -0.3586  0.3338  0.2711
 5925SOL    HW118847   3.195   1.785   1.246  0.2267  1.4185 -0.6557
 5925SOL    HW218848   3.299   1.815   1.351  0.2788  1.6978 -0.7841
 5926SOL     OW18849   4.887   3.119   6.797 -0.3395  0.3479  0.2736
 5926SOL    HW118850   4.799   3.122   6.834 -0.2780  2.5392  0.3760
 5926SOL    HW218851   4.945   3.123   6.873 -0.1269 -0.6717  0.1830
 5927SOL     OW18852   4.762   4.582   6.685  0.1557  0.3142 -0.3221
 5927SOL    HW118853   4.699   4.550   6.620 -1.2491  0.8507  0.7085
 5927SOL    HW218854   4.797   4.504   6.727 -1.4138  0.0227  0.5093
 5928SOL     OW18855   4.234   4.772   3.264  0.3829  0.0156  0.2598
 5928SOL    HW118856   4.328   4.769   3.248  0.1612  0.5466 -1.2279
 5928SOL    HW218857   4.208   4.680   3.273  1.2600 -0.0948  2.2762
 5929SOL     OW18858   3.701   2.553   5.497 -0.1333 -0.5363  0.9744
 5929SOL    HW118859   3.749   2.634   5.476  1.4596 -1.0971  2.2120
 5929SOL    HW218860   3.613   2.568   5.462  0.6811  0.8999 -0.6350
 5930SOL     OW18861   1.444   5.494   5.950  0.2651  0.1810  0.6644
 5930SOL    HW118862   1.535   5.467   5.950 -0.2401 -1.7085  0.0567
 5930SOL    HW218863   1.413   5.477   6.039  0.2246 -0.2659  0.5671
 5931SOL     OW18864   0.297   3.418   7.968 -0.1912 -0.0401  0.2093
 5931SOL    HW118865   0.211   3.378   7.967  0.1645 -1.0611  2.4880
 5931SOL    HW218866   0.297   3.472   8.048  1.2814 -0.1274  0.3007
 5932SOL     OW18867   5.877   1.300   0.528 -0.0715 -0.5534  0.0767
 5932SOL    HW118868   5.904   1.217   0.489 -0.3622 -0.4641 -0.3264
 5932SOL    HW218869   5.897   1.291   0.621 -0.2711 -1.1484  0.0635
 5933SOL     OW18870   8.037   0.428   7.111 -0.7164  0.6732  0.5631
 5933SOL    HW118871   7.967   0.365   7.126 -0.1986 -0.0349  0.0858
 5933SOL    HW218872   8.086   0.429   7.193  0.6297 -1.3053 -0.1425
 5934SOL     OW18873   5.692   4.356   7.236  0.9198 -0.3160 -0.0045
 5934SOL    HW118874   5.685   4.437   7.285  1.3163 -0.3640  0.1390
 5934SOL    HW218875   5.767   4.369   7.178 -0.6015  0.4142 -1.9102
 5935SOL     OW18876   4.933   3.423   7.327 -0.0410  0.5621 -0.4627
 5935SOL    HW118877   4.888   3.507   7.336 -0.2144  0.4315 -0.0406
 5935SOL    HW218878   4.863   3.358   7.334  0.1445  0.3724 -0.3362
 5936SOL     OW18879   1.120   7.795   5.730  0.0252 -0.0627  0.2289
 5936SOL    HW118880   1.186   7.811   5.797  0.9436 -0.9869 -0.4322
 5936SOL    HW218881   1.039   7.781   5.779  0.9243 -2.0452  1.2511
 5937SOL     OW18882   6.319   4.392   1.517  1.3157 -0.0172  0.1228
 5937SOL    HW118883   6.343   4.474   1.475  1.5260  0.4125  1.0737
 5937SOL    HW218884   6.236   4.411   1.561 -0.2693 -1.1605 -2.1603
 5938SOL     OW18885   3.263   3.498   5.301  0.0132 -0.0171  0.2474
 5938SOL    HW118886   3.186   3.546   5.329 -0.0541 -0.2228  0.4152
 5938SOL    HW218887   3.336   3.542   5.343 -0.0263  0.0898  0.2032
 5939SOL     OW18888   2.831   6.566   3.172 -0.6379  0.2788 -0.0476
 5939SOL    HW118889   2.861   6.478   3.148 -0.1070  1.1687 -3.0493
 5939SOL    HW218890   2.755   6.581   3.116 -0.3146  1.9671 -0.0794
 5940SOL     OW18891   0.313   3.931   5.674  0.1805 -0.0025 -0.0197
 5940SOL    HW118892   0.304   3.875   5.751 -0.6809  1.9854  1.4086
 5940SOL    HW218893   0.255   3.892   5.609 -0.9270 -0.4078  1.1639
 5941SOL     OW18894   5.069   2.312   0.469  0.2313 -0.1989  0.4390
 5941SOL    HW118895   5.114   2.267   0.541  1.2047 -0.0301 -0.0479
 5941SOL    HW218896   5.030   2.242   0.417  1.7014 -0.5053 -0.2919
 5942SOL     OW18897   2.085   7.148   2.786  0.7197 -0.3283  0.5428
 5942SOL    HW118898   2.015   7.173   2.725  1.2390 -0.1390  0.0167
 5942SOL    HW218899   2.054   7.180   2.871  1.0418  1.5351  0.0128
 5943SOL     OW18900   1.730   3.733   0.739  0.1135  0.0658  0.2869
 5943SOL    HW118901   1.647   3.693   0.765 -1.4070  0.9245 -2.7189
 5943SOL    HW218902   1.743   3.803   0.803 -0.3256 -1.3743  2.0433
 5944SOL     OW18903   5.361   5.194   4.165 -0.5575  0.0791  0.1087
 5944SOL    HW118904   5.427   5.206   4.097 -0.1910  1.7820  0.7226
 5944SOL    HW218905   5.284   5.162   4.118  0.4561 -1.2852 -0.7046
 5945SOL     OW18906   7.043   3.058   2.842  0.5247 -0.4883 -0.1022
 5945SOL    HW118907   7.019   3.129   2.901 -2.6468 -1.8906  0.5096
 5945SOL    HW218908   7.026   3.093   2.754  0.6379  0.0294  0.0778
 5946SOL     OW18909   1.677   2.949   0.069  0.4509 -0.2020  0.2710
 5946SOL    HW118910   1.763   2.966   0.031  0.4056 -1.6497 -0.5788
 5946SOL    HW218911   1.682   2.858   0.100 -0.6304 -0.1679  0.5823
 5947SOL     OW18912   0.428   1.091   4.326  0.1639  0.0204  0.3831
 5947SOL    HW118913   0.488   1.152   4.370  2.6434 -1.1887 -1.1178
 5947SOL    HW218914   0.451   1.098   4.233 -1.4569 -1.1368 -0.1448
 5948SOL     OW18915   1.664   1.597   6.049  0.4178 -0.0529  0.2009
 5948SOL    HW118916   1.726   1.669   6.050 -0.4210  0.7092  2.0065
 5948SOL    HW218917   1.665   1.563   6.138  0.1261 -1.7132 -0.3833
 5949SOL     OW18918   1.527   6.976   0.187  0.1486 -0.3707  0.1463
 5949SOL    HW118919   1.520   6.888   0.151 -0.4976 -1.6982  3.2854
 5949SOL    HW218920   1.619   7.001   0.172  0.6677 -2.0957  0.3276
 5950SOL     OW18921   1.877   1.684   1.343 -0.0851 -0.1182 -0.1270
 5950SOL    HW118922   1.887   1.602   1.295 -2.2424 -0.2046 -0.5256
 5950SOL    HW218923   1.849   1.747   1.277 -0.7806  0.3376  0.5820
 5951SOL     OW18924   6.003   7.641   1.754 -0.8239 -0.2934  0.8981
 5951SOL    HW118925   6.009   7.714   1.816 -1.5447  0.2790  0.3133
 5951SOL    HW218926   5.982   7.682   1.671  0.2596 -1.0413  0.2296
 5952SOL     OW18927   5.609   1.989   4.488 -0.2596 -0.6641  0.7824
 5952SOL    HW118928   5.646   1.934   4.419  0.5714 -0.2765  0.9020
 5952SOL    HW218929   5.617   2.079   4.455 -1.0547 -0.5618  0.8381
 5953SOL     OW18930   2.885   5.358   3.030  0.4202 -0.0600 -0.3331
 5953SOL    HW118931   2.974   5.331   3.011  0.8669  0.3575  0.9992
 5953SOL    HW218932   2.865   5.425   2.965  0.7201 -0.8179 -1.2190
 5954SOL     OW18933   5.784   0.789   3.314 -1.2506 -0.5380  0.1271
 5954SOL    HW118934   5.858   0.736   3.285 -0.2384  0.8806 -0.0434
 5954SOL    HW218935   5.716   0.775   3.248 -0.4231 -0.4149 -0.7743
 5955SOL     OW18936   4.878   4.779   4.295 -0.1426  0.2650 -0.1642
 5955SOL    HW118937   4.895   4.871   4.316 -1.7233  0.6841 -0.6304
 5955SOL    HW218938   4.923   4.731   4.363 -0.9761  1.4483  1.2821
 5956SOL     OW18939   6.970   3.996   2.164  0.4746 -0.1525 -0.2029
 5956SOL    HW118940   6.909   3.963   2.230 -0.5436  0.4580 -0.8181
 5956SOL    HW218941   6.945   4.087   2.151  1.6103  0.1499 -0.3746
 5957SOL     OW18942   2.071   1.831   0.394  0.3937  0.1578 -0.8899
 5957SOL    HW118943   2.049   1.745   0.359  0.8709  1.2241 -4.1022
 5957SOL    HW218944   2.020   1.837   0.475 -1.1938 -2.3442 -1.5758
 5958SOL     OW18945   6.159   2.243   0.675 -0.6496 -0.3493 -0.5153
 5958SOL    HW118946   6.174   2.180   0.606 -0.8370  0.4464 -1.3008
 5958SOL    HW218947   6.235   2.301   0.672  0.1012 -1.1909  0.9707
 5959SOL     OW18948   2.164   2.079   6.218  0.4452 -0.0865 -0.8633
 5959SOL    HW118949   2.083   2.028   6.227 -1.3827  2.5686 -1.0293
 5959SOL    HW218950   2.134   2.165   6.190  3.1626  1.7117  1.3065
 5960SOL     OW18951   1.593   1.683   0.770 -0.3835 -0.1737  0.5647
 5960SOL    HW118952   1.536   1.606   0.773 -2.2839  0.9288 -2.5851
 5960SOL    HW218953   1.534   1.756   0.788  0.2919  0.8938 -1.3605
 5961SOL     OW18954   7.753   5.054   7.541  0.2775 -0.2919  0.0624
 5961SOL    HW118955   7.843   5.087   7.543 -0.2686  1.2544  0.5706
 5961SOL    HW218956   7.699   5.131   7.554 -1.1674 -1.0863 -0.8967
 5962SOL     OW18957   6.785   0.538   1.689 -0.4067  0.1411 -0.0002
 5962SOL    HW118958   6.749   0.626   1.694 -2.9499 -0.8283  0.0497
 5962SOL    HW218959   6.836   0.528   1.769  1.1305  1.9937 -0.6633
 5963SOL     OW18960   3.684   6.174   6.577 -0.5884  0.1659 -0.1598
 5963SOL    HW118961   3.639   6.102   6.620 -2.1923  1.1209 -0.1395
 5963SOL    HW218962   3.766   6.184   6.625 -0.4480 -1.4567 -0.0134
 5964SOL     OW18963   0.725   4.515   6.655  0.0468  0.0594 -0.6812
 5964SOL    HW118964   0.737   4.545   6.745 -0.7182  0.7203 -0.7836
 5964SOL    HW218965   0.650   4.455   6.659 -0.9922  1.2671 -1.0870
 5965SOL     OW18966   2.676   5.966   7.845  0.1490  0.3063  0.5596
 5965SOL    HW118967   2.749   5.903   7.848 -0.4434 -0.3615  1.5473
 5965SOL    HW218968   2.604   5.917   7.806  0.4639  1.2486 -1.2903
 5966SOL     OW18969   7.073   7.911   4.494 -0.3893 -0.0568 -0.5322
 5966SOL    HW118970   7.164   7.900   4.523 -0.4232 -0.1660 -0.4689
 5966SOL    HW218971   7.031   7.959   4.566 -0.1594  0.7964 -0.9498
 5967SOL     OW18972   3.192   2.837   2.340  0.2485 -0.4033 -0.1527
 5967SOL    HW118973   3.218   2.879   2.259 -0.8276 -1.4875 -1.0987
 5967SOL    HW218974   3.265   2.779   2.362  1.2677  1.0821  0.5892
 5968SOL     OW18975   6.871   4.138   4.086  0.1971 -0.0069 -0.0944
 5968SOL    HW118976   6.785   4.128   4.128  0.2489 -1.4843 -0.2776
 5968SOL    HW218977   6.884   4.056   4.038  2.1771 -0.3134  0.8230
 5969SOL     OW18978   2.085   7.401   5.748  0.1917 -0.2730  0.5607
 5969SOL    HW118979   2.116   7.344   5.819 -1.5560 -3.2053 -0.8282
 5969SOL    HW218980   2.012   7.449   5.787  0.4369 -0.4573  1.2615
 5970SOL     OW18981   0.638   0.209   3.025 -0.0443 -0.2410 -0.3866
 5970SOL    HW118982   0.634   0.269   3.099  0.2696  0.8955 -1.2601
 5970SOL    HW218983   0.687   0.133   3.058 -1.6875 -0.6825  1.1585
 5971SOL     OW18984   4.917   4.492   6.114 -0.7615 -0.3987  0.7358
 5971SOL    HW118985   4.982   4.451   6.056 -0.5171 -0.9469  1.3762
 5971SOL    HW218986   4.870   4.418   6.153 -1.6772 -0.0124  0.4051
 5972SOL     OW18987   6.685   2.007   3.589 -0.9043  0.0491 -0.0927
 5972SOL    HW118988   6.657   2.012   3.680  1.7327 -2.0425  0.9587
 5972SOL    HW218989   6.746   2.080   3.578  2.0449 -2.0267  1.2407
 5973SOL     OW18990   2.614   2.612   5.350  0.1527 -0.4632 -0.2918
 5973SOL    HW118991   2.613   2.664   5.270  1.2064 -0.2648 -0.1947
 5973SOL    HW218992   2.698   2.633   5.391 -1.1777  0.9768  1.8870
 5974SOL     OW18993   4.322   3.263   6.492 -0.2812  0.4746 -0.0882
 5974SOL    HW118994   4.315   3.203   6.418 -0.4298  1.7832 -1.1905
 5974SOL    HW218995   4.329   3.350   6.451 -0.9216  1.2875  1.4509
 5975SOL     OW18996   4.776   2.770   7.444  0.2797 -0.1209 -0.4459
 5975SOL    HW118997   4.785   2.824   7.366  1.9328  0.2959 -0.0065
 5975SOL    HW218998   4.781   2.680   7.412  1.6516  0.0537 -0.7780
 5976SOL     OW18999   0.422   6.834   3.185  0.4648 -0.3631  0.6252
 5976SOL    HW119000   0.440   6.919   3.145  1.1957  0.0683  1.8232
 5976SOL    HW219001   0.353   6.796   3.130  1.3038  0.2604 -0.9209
 5977SOL     OW19002   2.978   7.872   5.040  0.1602  0.2901  0.6689
 5977SOL    HW119003   2.900   7.895   5.091 -0.2181  0.7978 -0.1223
 5977SOL    HW219004   2.986   7.777   5.052  1.0657  0.5976  3.0229
 5978SOL     OW19005   5.330   6.799   3.442  0.2473  0.0621 -0.1525
 5978SOL    HW119006   5.256   6.794   3.381  0.8253 -2.0956 -0.7628
 5978SOL    HW219007   5.297   6.762   3.523  0.1760  0.7488  0.1450
 5979SOL     OW19008   3.348   1.075   2.993  0.2573 -0.0563  0.5442
 5979SOL    HW119009   3.376   0.991   3.030  1.3394 -0.2905 -0.7718
 5979SOL    HW219010   3.396   1.140   3.043  0.7613 -0.3098  0.3945
 5980SOL     OW19011   0.794   2.447   7.632 -0.1495  0.5555 -0.1557
 5980SOL    HW119012   0.786   2.507   7.558  0.1230  0.8689  0.0631
 5980SOL    HW219013   0.704   2.431   7.660 -0.2207  0.9364 -0.1621
 5981SOL     OW19014   6.161   4.335   6.167  0.3065 -0.0863  0.0711
 5981SOL    HW119015   6.083   4.314   6.218 -0.6335  1.3151 -0.6950
 5981SOL    HW219016   6.185   4.253   6.125 -1.1898 -0.4218 -0.2076
 5982SOL     OW19017   0.326   7.314   2.554  0.2594 -0.4418 -0.1280
 5982SOL    HW119018   0.286   7.315   2.641 -0.8261  1.8251 -0.5813
 5982SOL    HW219019   0.315   7.224   2.524 -1.2646 -0.7613  1.2382
 5983SOL     OW19020   3.429   4.782   0.805  0.3908 -0.0851  0.1242
 5983SOL    HW119021   3.407   4.857   0.750  2.5646  0.0122 -0.7392
 5983SOL    HW219022   3.355   4.773   0.865 -0.1297  2.4607 -0.0280
 5984SOL     OW19023   4.492   7.963   4.799 -0.8704  1.4837  0.3623
 5984SOL    HW119024   4.403   7.973   4.835 -1.0151  2.3311 -0.1934
 5984SOL    HW219025   4.482   7.985   4.707 -0.6685 -1.4613 -0.4498
 5985SOL     OW19026   2.110   2.859   0.522 -0.1057 -0.8275 -0.1073
 5985SOL    HW119027   2.189   2.857   0.468  1.1687 -1.1123  1.6496
 5985SOL    HW219028   2.079   2.768   0.522  2.0625 -1.7213  2.4998
 5986SOL     OW19029   0.407   3.517   5.247 -0.1154  0.3118 -0.2555
 5986SOL    HW119030   0.393   3.493   5.155 -0.3959 -1.2127  0.1580
 5986SOL    HW219031   0.335   3.474   5.294  1.4412 -1.0718  0.9747
 5987SOL     OW19032   7.353   7.828   2.232  0.1247  0.1957  0.1398
 5987SOL    HW119033   7.430   7.800   2.183  0.4619  0.2240  0.6436
 5987SOL    HW219034   7.379   7.911   2.273 -0.1252  0.1393  0.4158
 5988SOL     OW19035   5.268   1.752   1.593 -0.6785  0.0659 -0.1880
 5988SOL    HW119036   5.274   1.763   1.498 -0.5509  0.4787 -0.1323
 5988SOL    HW219037   5.306   1.832   1.630 -2.2318  0.6700  0.2052
 5989SOL     OW19038   7.104   0.615   0.699  0.0927 -0.2115 -0.0293
 5989SOL    HW119039   7.104   0.574   0.612  0.0639  1.1557 -0.7053
 5989SOL    HW219040   7.031   0.574   0.745 -0.9358  0.1916 -1.2298
 5990SOL     OW19041   7.048   6.688   0.219  0.3969  0.5990 -0.3033
 5990SOL    HW119042   7.040   6.769   0.269 -0.4544 -0.1807  0.8737
 5990SOL    HW219043   6.983   6.696   0.149 -0.1698  0.6449  0.2232
 5991SOL     OW19044   7.875   0.121   4.951  0.0619 -0.1770 -0.3610
 5991SOL    HW119045   7.823   0.114   4.870 -1.8640 -0.5489  0.8396
 5991SOL    HW219046   7.921   0.204   4.943 -0.5865  0.0889 -1.5717
 5992SOL     OW19047   1.473   6.808   7.342 -0.0633 -0.0177  0.9338
 5992SOL    HW119048   1.525   6.735   7.309  0.4192  1.0386 -0.7106
 5992SOL    HW219049   1.434   6.774   7.423  2.2349 -1.2078  1.6204
 5993SOL     OW19050   5.465   6.412   6.996 -0.1739 -0.3016  0.4993
 5993SOL    HW119051   5.430   6.332   6.958 -1.3670  0.3529  0.1773
 5993SOL    HW219052   5.560   6.399   6.996 -0.1066 -0.4634 -2.4261
 5994SOL     OW19053   7.780   2.684   1.313 -0.4790  0.1349  0.3698
 5994SOL    HW119054   7.867   2.714   1.339  0.0453 -1.0938  0.1130
 5994SOL    HW219055   7.728   2.764   1.305  0.8269  0.9556 -0.2152
 5995SOL     OW19056   4.144   4.625   4.786  0.4280  0.2188  0.4830
 5995SOL    HW119057   4.113   4.552   4.840  1.6622 -0.3053  0.5245
 5995SOL    HW219058   4.121   4.600   4.697 -0.2731  0.3734  0.6166
 5996SOL     OW19059   4.254   5.911   6.558 -0.1827 -0.0394 -0.1510
 5996SOL    HW119060   4.177   5.957   6.591 -0.9141 -1.0419 -0.3954
 5996SOL    HW219061   4.328   5.966   6.584 -1.0404  1.6540 -1.1067
 5997SOL     OW19062   6.336   5.343   6.885 -0.7194  0.3998  0.0942
 5997SOL    HW119063   6.287   5.369   6.963 -1.9698 -0.6542 -0.3076
 5997SOL    HW219064   6.278   5.283   6.839  2.2119 -3.8688  1.3969
 5998SOL     OW19065   2.727   7.477   5.749  0.3031  0.3047 -0.1846
 5998SOL    HW119066   2.703   7.438   5.665  0.6619 -1.9002  0.6824
 5998SOL    HW219067   2.821   7.494   5.742  0.2014  0.7879 -0.4553
 5999SOL     OW19068   0.711   7.207   4.444 -0.1872 -0.1877 -0.4609
 5999SOL    HW119069   0.748   7.120   4.464  2.0251  0.8168  0.1220
 5999SOL    HW219070   0.784   7.267   4.456 -1.8834  1.8921 -0.0109
 6000SOL     OW19071   3.538   6.570   3.387  0.9226  0.3386 -0.0410
 6000SOL    HW119072   3.627   6.578   3.351  0.6152  0.2036 -0.8676
 6000SOL    HW219073   3.487   6.535   3.314  0.0980  0.8316  0.2906
 6001SOL     OW19074   5.745   3.187   6.024  0.2401  0.0827 -0.1165
 6001SOL    HW119075   5.673   3.158   5.967  1.4185 -0.1100 -1.5617
 6001SOL    HW219076   5.821   3.139   5.993  1.1626  0.8333  0.9067
 6002SOL     OW19077   8.080   2.633   5.670 -0.0877 -0.2044  0.2259
 6002SOL    HW119078   8.017   2.562   5.686 -0.1581 -0.1955 -0.0095
 6002SOL    HW219079   8.090   2.635   5.575 -0.7446  0.6563  0.1586
 6003SOL     OW19080   2.204   5.802   3.507  0.2261  0.1289 -0.2206
 6003SOL    HW119081   2.250   5.882   3.533  0.0993 -0.1602  0.9682
 6003SOL    HW219082   2.111   5.827   3.504  0.3264  0.3967 -1.3643
 6004SOL     OW19083   4.937   0.071   7.558 -0.6273  0.3789 -0.0656
 6004SOL    HW119084   4.938   0.151   7.610  0.8074  0.1031  0.3704
 6004SOL    HW219085   4.863   0.083   7.498 -2.1499  0.8141  1.8214
 6005SOL     OW19086   6.631   4.031   1.005  0.0507  0.2108 -0.8161
 6005SOL    HW119087   6.564   4.030   1.073  0.3915  2.6737 -0.3567
 6005SOL    HW219088   6.583   4.046   0.923  0.0051  2.7228 -0.4002
 6006SOL     OW19089   0.330   7.756   3.670  0.5362  0.4392  0.4978
 6006SOL    HW119090   0.312   7.665   3.696  1.8605 -0.0574 -0.2492
 6006SOL    HW219091   0.296   7.762   3.581  1.6587  0.2473  0.0364
 6007SOL     OW19092   6.491   7.032   1.459  0.1483 -0.5202 -0.0255
 6007SOL    HW119093   6.499   7.112   1.512  0.1412 -1.1492  0.9524
 6007SOL    HW219094   6.573   7.029   1.409  0.3840 -0.1806  0.3303
 6008SOL     OW19095   1.229   7.640   2.489  0.4013 -0.2994  0.2440
 6008SOL    HW119096   1.138   7.669   2.482  0.9046  1.3390 -0.0521
 6008SOL    HW219097   1.280   7.721   2.485  1.8958 -1.2137  0.0269
 6009SOL     OW19098   3.299   0.561   2.225 -0.3222  0.1935  0.6736
 6009SOL    HW119099   3.289   0.495   2.156  0.8749 -1.2123  1.7614
 6009SOL    HW219100   3.217   0.555   2.275  0.0894 -1.1319  1.2555
 6010SOL     OW19101   5.026   0.492   3.348  0.2397 -0.6044  0.6497
 6010SOL    HW119102   5.042   0.561   3.283 -0.5590 -1.5678 -0.5987
 6010SOL    HW219103   5.081   0.518   3.422 -0.8376  1.9541  0.6713
 6011SOL     OW19104   7.608   2.414   2.380  0.2470  0.1164 -0.4554
 6011SOL    HW119105   7.522   2.446   2.354  0.2488  0.0283 -0.5722
 6011SOL    HW219106   7.589   2.338   2.437  0.2512 -0.5252 -1.2891
 6012SOL     OW19107   1.971   1.669   4.312 -0.4407 -0.6067 -0.0415
 6012SOL    HW119108   2.015   1.709   4.387  0.3288 -1.1251 -0.2011
 6012SOL    HW219109   1.878   1.682   4.329 -0.2695 -0.5147  0.8921
 6013SOL     OW19110   5.087   3.652   2.253 -0.3416  0.3315  0.2989
 6013SOL    HW119111   5.099   3.702   2.173  0.6241 -0.7720 -0.2716
 6013SOL    HW219112   5.167   3.600   2.261 -0.3525  0.5151  2.0538
 6014SOL     OW19113   4.318   6.294   6.789  0.0716 -0.1121  0.4959
 6014SOL    HW119114   4.375   6.341   6.851 -2.2441 -0.5694  3.1763
 6014SOL    HW219115   4.239   6.347   6.784 -0.4142 -0.9132 -0.8796
 6015SOL     OW19116   1.922   6.678   7.954 -0.2010  0.2628 -0.3061
 6015SOL    HW119117   1.909   6.628   7.874 -2.1335  0.2781 -0.0424
 6015SOL    HW219118   1.917   6.612   8.024  0.2330  0.4192 -0.1246
 6016SOL     OW19119   5.215   0.705   1.800 -0.0285 -0.1252 -0.2404
 6016SOL    HW119120   5.169   0.722   1.718  0.8888 -0.4771 -0.8457
 6016SOL    HW219121   5.202   0.611   1.815  1.2308 -0.4241 -0.9008
 6017SOL     OW19122   2.615   1.778   7.884  0.4530 -0.0918  0.0993
 6017SOL    HW119123   2.668   1.771   7.805  1.3778  1.4317  0.5540
 6017SOL    HW219124   2.551   1.846   7.864 -1.1225 -1.6240 -0.2957
 6018SOL     OW19125   4.177   1.399   5.865 -0.0705 -0.0481  1.0828
 6018SOL    HW119126   4.082   1.408   5.863 -0.0727 -0.1483 -0.3018
 6018SOL    HW219127   4.193   1.305   5.856  0.1585  0.0758  0.0455
 6019SOL     OW19128   3.328   1.277   1.286 -0.3233  0.2230  0.0299
 6019SOL    HW119129   3.389   1.331   1.234 -0.9096 -0.0481 -0.9631
 6019SOL    HW219130   3.257   1.337   1.308 -0.0131  0.3703  0.6272
 6020SOL     OW19131   1.108   7.029   7.002 -0.0565 -0.1750 -0.3251
 6020SOL    HW119132   1.083   6.943   6.967  0.1977 -0.5695  0.4292
 6020SOL    HW219133   1.152   7.009   7.085 -0.7144  0.7258  0.2671
 6021SOL     OW19134   6.211   4.445   7.280  0.3072  0.1854 -0.1813
 6021SOL    HW119135   6.288   4.467   7.229  0.5500  0.3822  0.2622
 6021SOL    HW219136   6.139   4.489   7.235  0.3740 -0.3941 -0.8726
 6022SOL     OW19137   1.022   1.143   2.540  0.3078 -0.1300  0.1485
 6022SOL    HW119138   1.072   1.083   2.596 -0.3147  0.8688  1.8304
 6022SOL    HW219139   1.089   1.194   2.495  0.8199 -0.9777 -0.0839
 6023SOL     OW19140   3.617   7.769   1.944 -0.4795  0.2527 -0.2963
 6023SOL    HW119141   3.567   7.765   2.026  1.2303  0.0265  0.7910
 6023SOL    HW219142   3.610   7.680   1.908 -3.0081  0.8870 -1.5718
 6024SOL     OW19143   1.997   0.829   5.204  0.1119 -0.2767  0.9937
 6024SOL    HW119144   2.030   0.755   5.255 -3.2236 -1.7388  1.2687
 6024SOL    HW219145   2.020   0.808   5.114 -1.4045 -2.1158  0.9698
 6025SOL     OW19146   1.916   7.088   1.758 -0.1344 -0.2102  0.6704
 6025SOL    HW119147   1.877   7.114   1.841  0.9986  0.4818  1.0031
 6025SOL    HW219148   2.010   7.089   1.774  0.0897 -0.2990 -0.5521
 6026SOL     OW19149   0.292   2.168   7.793 -0.1468 -0.0389  0.5109
 6026SOL    HW119150   0.216   2.221   7.815 -2.1265 -1.7307 -1.7395
 6026SOL    HW219151   0.315   2.124   7.875  0.5652  2.8774  2.0228
 6027SOL     OW19152   0.133   1.514   5.598 -0.7244 -0.1038 -0.5963
 6027SOL    HW119153   0.074   1.575   5.643 -1.5673  0.4416 -2.3477
 6027SOL    HW219154   0.147   1.554   5.512  0.0837 -1.5524 -1.1650
 6028SOL     OW19155   7.062   3.135   3.292  0.1868  0.5387  0.4306
 6028SOL    HW119156   7.044   3.195   3.220  2.7781  1.7985  0.7053
 6028SOL    HW219157   6.987   3.076   3.294 -0.8116  1.5892 -2.1140
 6029SOL     OW19158   2.576   2.121   4.576 -0.6206  0.0086 -0.3407
 6029SOL    HW119159   2.584   2.066   4.498 -1.5302 -0.7493  0.0727
 6029SOL    HW219160   2.657   2.172   4.579  0.0256 -0.9551 -1.0242
 6030SOL     OW19161   5.636   6.993   4.567  0.2406 -0.3104 -0.1448
 6030SOL    HW119162   5.662   7.085   4.555 -0.2705 -0.1477 -0.0342
 6030SOL    HW219163   5.715   6.951   4.601  0.7276 -0.0943 -0.9822
 6031SOL     OW19164   0.157   5.741   1.160 -0.2669 -0.3158 -0.4655
 6031SOL    HW119165   0.122   5.783   1.081 -0.1075 -0.1583 -0.4536
 6031SOL    HW219166   0.131   5.649   1.152 -0.0542 -0.3473 -0.8139
 6032SOL     OW19167   1.910   5.331   2.433 -0.3722 -0.5813 -0.0789
 6032SOL    HW119168   1.956   5.291   2.359 -2.1441 -1.1303 -0.9470
 6032SOL    HW219169   1.980   5.367   2.487  1.0040 -0.0245 -2.0769
 6033SOL     OW19170   4.907   6.690   0.790  0.2855  0.1703 -0.1735
 6033SOL    HW119171   4.913   6.696   0.695 -2.3749  0.4109 -0.3962
 6033SOL    HW219172   4.851   6.614   0.807  2.5952 -1.3238  1.3448
 6034SOL     OW19173   5.905   5.155   5.626  0.3255  0.3851  0.2240
 6034SOL    HW119174   5.881   5.073   5.669 -1.2388  1.2405  1.0697
 6034SOL    HW219175   5.836   5.171   5.562 -0.3025  1.8250  1.1963
 6035SOL     OW19176   5.812   0.124   3.886 -0.0002 -0.0142 -0.5414
 6035SOL    HW119177   5.891   0.089   3.843 -0.0344  1.1788 -1.6270
 6035SOL    HW219178   5.744   0.060   3.865  0.0955  0.2934 -1.8987
 6036SOL     OW19179   3.424   5.296   8.078  0.1270 -0.6631  0.0539
 6036SOL    HW119180   3.448   5.205   8.098 -1.0814 -1.3459 -1.4376
 6036SOL    HW219181   3.440   5.305   7.984 -0.0714  0.5887  0.1246
 6037SOL     OW19182   0.871   2.124   2.659 -0.4635 -0.2867 -0.5244
 6037SOL    HW119183   0.853   2.041   2.615 -2.7545 -0.8636  1.3136
 6037SOL    HW219184   0.921   2.100   2.737 -1.1678  0.0095  0.0370
 6038SOL     OW19185   7.838   1.958   6.543  0.5192  0.0594 -0.2392
 6038SOL    HW119186   7.748   1.991   6.536  0.4614 -0.3656 -1.6505
 6038SOL    HW219187   7.865   1.941   6.453  1.7887 -0.4502  0.2160
 6039SOL     OW19188   3.518   0.021   0.550 -0.6365 -0.0115  0.0731
 6039SOL    HW119189   3.472  -0.052   0.591  1.0899  0.2173  2.7436
 6039SOL    HW219190   3.600  -0.017   0.517 -0.7760  0.3206 -0.6834
 6040SOL     OW19191   6.724   1.051   4.017  0.6372 -0.4769  0.3096
 6040SOL    HW119192   6.806   1.097   4.003  0.0290  0.7302  0.6007
 6040SOL    HW219193   6.719   0.990   3.943  2.0386 -0.9643  0.5849
 6041SOL     OW19194   6.362   3.668   4.901 -0.7051  0.0051  0.3983
 6041SOL    HW119195   6.368   3.762   4.884  2.3567 -0.2384 -0.4047
 6041SOL    HW219196   6.279   3.641   4.861 -0.2134  1.8437 -2.0669
 6042SOL     OW19197   7.092   5.255   7.744 -0.1096  0.2696  0.3221
 6042SOL    HW119198   7.167   5.214   7.787  0.9031  1.4838 -0.2347
 6042SOL    HW219199   7.082   5.339   7.788  0.1789  1.0091 -0.9771
 6043SOL     OW19200   4.263   5.216   3.258 -0.8546 -0.3574  0.3079
 6043SOL    HW119201   4.266   5.256   3.171  0.0156 -1.4892 -0.2116
 6043SOL    HW219202   4.341   5.250   3.302 -2.0769  1.4129  1.2436
 6044SOL     OW19203   4.062   0.396   7.963  0.1831  0.5409 -0.3065
 6044SOL    HW119204   4.139   0.341   7.950 -0.0242  0.0018  0.6845
 6044SOL    HW219205   4.009   0.349   8.028 -0.7395  1.1531 -0.5895
 6045SOL     OW19206   5.140   0.650   4.113 -0.3667  0.2218  0.0546
 6045SOL    HW119207   5.148   0.722   4.176  1.9024 -0.1949  0.3133
 6045SOL    HW219208   5.230   0.629   4.089 -1.1198 -0.4372 -2.4666
 6046SOL     OW19209   7.912   1.817   5.499  0.0674  0.1776 -0.0922
 6046SOL    HW119210   7.926   1.723   5.489  2.6496  0.5261 -0.4958
 6046SOL    HW219211   7.894   1.848   5.410 -1.7822 -0.0170  0.1761
 6047SOL     OW19212   0.061   4.096   6.585 -0.0744  0.0902 -0.0461
 6047SOL    HW119213   0.046   4.016   6.635 -0.7033  1.2058  1.6401
 6047SOL    HW219214   0.100   4.066   6.503 -2.0259 -2.1116 -0.2808
 6048SOL     OW19215   2.277   6.745   2.996 -0.1966  0.0341 -0.0932
 6048SOL    HW119216   2.309   6.819   2.943  0.3590 -0.5207 -0.5479
 6048SOL    HW219217   2.205   6.708   2.944  0.0404 -0.2197 -0.2470
 6049SOL     OW19218   3.258   7.126   5.707 -0.3230 -0.6238  0.2199
 6049SOL    HW119219   3.319   7.191   5.671  0.0481 -0.5928  0.8831
 6049SOL    HW219220   3.176   7.142   5.661  1.0840 -3.2725 -3.7970
 6050SOL     OW19221   5.423   0.746   1.577  0.5727 -0.0909  0.1347
 6050SOL    HW119222   5.364   0.821   1.568  1.3717  0.4999 -0.4356
 6050SOL    HW219223   5.366   0.670   1.581 -0.2092  0.4143 -0.9848
 6051SOL     OW19224   0.652   0.440   4.795  0.0447 -0.1554  0.1918
 6051SOL    HW119225   0.593   0.393   4.737  1.9540 -0.0696 -1.9551
 6051SOL    HW219226   0.594   0.493   4.851 -1.8974 -0.6904 -1.2179
 6052SOL     OW19227   6.716   0.642   3.210  0.4184 -0.1482  0.3605
 6052SOL    HW119228   6.669   0.647   3.293 -0.3157 -2.7364  0.1861
 6052SOL    HW219229   6.791   0.585   3.228  0.7992  0.0555 -0.5098
 6053SOL     OW19230   0.344   4.326   7.197  0.0104 -0.2011 -0.3374
 6053SOL    HW119231   0.420   4.334   7.139  0.7146 -2.0000  0.2518
 6053SOL    HW219232   0.331   4.414   7.232  1.9772  0.1072 -0.2737
 6054SOL     OW19233   7.088   2.592   0.686 -0.1223  0.6769 -0.1639
 6054SOL    HW119234   7.155   2.656   0.712 -1.2336  0.9966  2.2561
 6054SOL    HW219235   7.008   2.625   0.727 -1.2233 -1.0450 -0.8380
 6055SOL     OW19236   1.653   4.118   6.152 -0.1214 -0.0544 -0.1036
 6055SOL    HW119237   1.733   4.170   6.158 -0.9640  1.4406 -1.0719
 6055SOL    HW219238   1.623   4.131   6.062 -0.2216 -2.5067 -0.4685
 6056SOL     OW19239   7.718   7.844   6.674 -0.0868  0.6107 -0.2787
 6056SOL    HW119240   7.717   7.863   6.768 -0.1575  0.6815 -0.2931
 6056SOL    HW219241   7.784   7.903   6.638  1.1271 -0.5511 -0.0407
 6057SOL     OW19242   2.333   5.152   5.974 -0.1622 -0.2168  0.2899
 6057SOL    HW119243   2.350   5.089   5.904 -0.2090  0.4300 -0.3201
 6057SOL    HW219244   2.375   5.114   6.051  0.6292 -0.5486 -0.2811
 6058SOL     OW19245   6.860   2.448   5.284 -0.3242  0.1062 -0.4020
 6058SOL    HW119246   6.919   2.522   5.268  0.7657 -0.5689  0.2919
 6058SOL    HW219247   6.887   2.382   5.220  0.3287 -0.5469  0.5167
 6059SOL     OW19248   0.929   6.794   0.073  0.0593  0.4990  0.2343
 6059SOL    HW119249   1.014   6.761   0.102  0.4663  0.6448 -0.7651
 6059SOL    HW219250   0.948   6.844  -0.006 -1.0392  0.0499 -0.3301
 6060SOL     OW19251   2.981   6.622   4.750  0.8127  0.2826  0.2791
 6060SOL    HW119252   2.997   6.688   4.683  1.6941 -0.6218 -0.4403
 6060SOL    HW219253   2.900   6.579   4.723  0.2374  1.0563  0.7502
 6061SOL     OW19254   1.711   5.068   3.370 -0.2712  0.2394  0.0621
 6061SOL    HW119255   1.689   5.057   3.277  0.0174 -1.9465  0.1847
 6061SOL    HW219256   1.777   5.000   3.387  0.1474  1.0080  1.7327
 6062SOL     OW19257   7.184   5.434   2.153  0.2973  0.6072 -0.2519
 6062SOL    HW119258   7.117   5.466   2.214 -1.7375 -3.2439 -0.1843
 6062SOL    HW219259   7.140   5.434   2.068  0.2138 -1.6177 -0.2711
 6063SOL     OW19260   8.077   0.872   2.010 -0.4570  0.0961 -0.6723
 6063SOL    HW119261   8.122   0.838   1.932 -1.4808  1.2748 -1.8285
 6063SOL    HW219262   7.989   0.892   1.979 -0.5792  1.5747  0.5448
 6064SOL     OW19263   0.269   2.017   7.566 -0.3829 -0.0399  0.2639
 6064SOL    HW119264   0.273   2.078   7.639  0.0452  1.6874 -1.1459
 6064SOL    HW219265   0.327   1.945   7.593 -0.1585  0.5879  1.5712
 6065SOL     OW19266   1.106   3.732   3.320  0.5088  0.3736 -0.4558
 6065SOL    HW119267   1.023   3.771   3.349  0.9500  2.1758 -1.4257
 6065SOL    HW219268   1.087   3.701   3.231  1.1844  2.1048 -1.2566
 6066SOL     OW19269   5.768   5.610   1.566 -0.2016  0.3756  0.1168
 6066SOL    HW119270   5.676   5.626   1.547 -0.0691  1.1490  0.1274
 6066SOL    HW219271   5.771   5.518   1.595 -1.1482  0.7074  1.3288
 6067SOL     OW19272   3.630   4.711   3.696  0.1906  0.1333 -0.1858
 6067SOL    HW119273   3.618   4.773   3.624 -1.8124 -0.2164 -0.2040
 6067SOL    HW219274   3.605   4.760   3.775  0.3818 -0.0946  0.0185
 6068SOL     OW19275   7.441   0.585   5.109  0.1146  0.2605 -0.0353
 6068SOL    HW119276   7.527   0.551   5.134 -0.0612  0.7764  1.3313
 6068SOL    HW219277   7.447   0.679   5.125 -0.8405  0.2454  0.5194
 6069SOL     OW19278   2.087   1.043   4.264  0.0056  0.5582  0.6720
 6069SOL    HW119279   2.036   1.096   4.203 -1.3213 -2.2225 -0.8115
 6069SOL    HW219280   2.023   0.983   4.303  1.5880 -0.7707  1.3404
 6070SOL     OW19281   4.042   6.529   5.558  0.5454  0.4710  0.3441
 6070SOL    HW119282   4.052   6.562   5.469 -0.4353 -0.5840 -0.1951
 6070SOL    HW219283   3.972   6.464   5.551  1.2498 -0.4783  1.6545
 6071SOL     OW19284   7.846   0.618   4.033 -0.4987 -0.2978  0.0470
 6071SOL    HW119285   7.820   0.537   4.077 -2.1473  0.4244  0.5094
 6071SOL    HW219286   7.884   0.590   3.950 -0.3808 -1.5663  0.5145
 6072SOL     OW19287   6.436   4.230   3.271 -0.3660 -0.5001 -0.3327
 6072SOL    HW119288   6.379   4.253   3.197 -1.1302  0.2835  0.4625
 6072SOL    HW219289   6.387   4.259   3.348  0.9094 -0.2470  0.4149
 6073SOL     OW19290   4.559   0.715   1.093  0.1058 -0.2177  0.1699
 6073SOL    HW119291   4.568   0.727   1.188  0.7913 -0.7104  0.1809
 6073SOL    HW219292   4.641   0.749   1.057 -0.3933  0.5082 -0.3091
 6074SOL     OW19293   1.511   0.195   0.850 -0.1072  0.5611  0.0228
 6074SOL    HW119294   1.530   0.254   0.777 -0.0114 -1.4935 -1.7146
 6074SOL    HW219295   1.530   0.247   0.928  1.2844  2.3707 -1.4121
 6075SOL     OW19296   6.874   3.692   4.769 -0.1794 -0.5328 -0.4881
 6075SOL    HW119297   6.964   3.674   4.743  0.3623  1.1656  0.0554
 6075SOL    HW219298   6.824   3.617   4.737  1.5500 -1.9504 -0.0270
 6076SOL     OW19299   5.558   4.826   1.039 -0.5025 -0.2971  0.3363
 6076SOL    HW119300   5.572   4.732   1.047  0.8358 -0.1106  0.5150
 6076SOL    HW219301   5.611   4.852   0.963 -0.6246  0.3447  0.4623
 6077SOL     OW19302   4.147   6.352   1.796 -0.0319  0.8059  0.0345
 6077SOL    HW119303   4.191   6.366   1.712  0.0488  2.8407  0.3698
 6077SOL    HW219304   4.072   6.411   1.793 -0.8846 -0.2008  0.8172
 6078SOL     OW19305   5.403   4.007   2.541 -0.0575 -0.4963  0.4290
 6078SOL    HW119306   5.421   3.948   2.468  1.0684  0.0271  0.2649
 6078SOL    HW219307   5.450   4.087   2.520 -2.3409  0.8679  0.1608
 6079SOL     OW19308   1.063   7.596   6.282 -0.4640  0.3345 -0.2725
 6079SOL    HW119309   1.119   7.618   6.208 -0.3731  0.5040 -0.1522
 6079SOL    HW219310   1.109   7.629   6.358  0.3757 -1.4935  0.0753
 6080SOL     OW19311   5.818   4.950   1.882 -0.3031  0.6413 -0.2819
 6080SOL    HW119312   5.832   4.979   1.792 -1.5156 -0.0766 -0.7281
 6080SOL    HW219313   5.760   5.016   1.920  0.1988  0.9377 -0.0254
 6081SOL     OW19314   6.314   8.123   1.982  0.8823 -0.1387  0.2247
 6081SOL    HW119315   6.343   8.097   2.070  2.2873 -0.5643 -0.3340
 6081SOL    HW219316   6.293   8.041   1.938 -0.2106  0.1005  0.2733
 6082SOL     OW19317   7.358   5.202   7.596  0.6744  0.1082  0.3163
 6082SOL    HW119318   7.354   5.169   7.686 -1.9629  1.0240  0.6093
 6082SOL    HW219319   7.445   5.241   7.589  0.8431  0.2773  2.5580
 6083SOL     OW19320   5.598   1.287   0.146 -0.7947 -0.4785 -0.6354
 6083SOL    HW119321   5.653   1.318   0.074 -0.6777  1.5459  0.2462
 6083SOL    HW219322   5.615   1.349   0.217 -1.6912 -1.7999  0.7950
 6084SOL     OW19323   0.718   2.818   3.321  0.2581  0.1185 -0.0656
 6084SOL    HW119324   0.778   2.750   3.353  0.7965  0.1749 -0.9292
 6084SOL    HW219325   0.639   2.769   3.295  0.3393 -0.0813  0.0555
 6085SOL     OW19326   6.637   6.988   0.083  0.3978  0.8668 -0.3397
 6085SOL    HW119327   6.580   6.971   0.159  1.3477 -1.3991 -0.0443
 6085SOL    HW219328   6.706   7.045   0.117 -0.0032  1.0964  0.1013
 6086SOL     OW19329   5.126   4.827   0.653  0.0606  0.3677  0.4566
 6086SOL    HW119330   5.075   4.805   0.731 -0.6993  0.8223  0.0990
 6086SOL    HW219331   5.200   4.878   0.687  0.0121  0.1294  0.9284
 6087SOL     OW19332   5.997   4.815   6.380 -0.0631 -0.5472  0.0522
 6087SOL    HW119333   6.062   4.885   6.384  0.4334 -0.9462 -0.8115
 6087SOL    HW219334   6.026   4.751   6.445  1.6616 -1.7303 -1.7432
 6088SOL     OW19335   5.115   4.691   1.421  0.5513  0.8329  0.0519
 6088SOL    HW119336   5.112   4.676   1.326 -1.1373  0.7594  0.0728
 6088SOL    HW219337   5.078   4.779   1.432 -0.1011  0.4854  0.6926
 6089SOL     OW19338   7.369   2.169   6.365  0.2077  0.4134  0.0987
 6089SOL    HW119339   7.323   2.252   6.351  0.9287  0.8082  0.0084
 6089SOL    HW219340   7.313   2.121   6.426  0.1414  1.2797  0.7543
 6090SOL     OW19341   2.449   4.891   5.892  0.7125  0.1342 -0.2435
 6090SOL    HW119342   2.492   4.860   5.971  2.1017  0.8009 -0.7041
 6090SOL    HW219343   2.370   4.837   5.885  2.2289 -2.2731 -0.1984
 6091SOL     OW19344   6.247   4.290   3.053  0.3240 -0.1480 -0.6728
 6091SOL    HW119345   6.272   4.370   3.005  2.3775  0.9498  1.9647
 6091SOL    HW219346   6.152   4.298   3.065  0.4896  1.9846 -0.4071
 6092SOL     OW19347   7.630   4.452   2.263 -0.0247  0.3134  1.1087
 6092SOL    HW119348   7.604   4.522   2.324  0.3922  1.1490  0.3420
 6092SOL    HW219349   7.580   4.469   2.184  1.4622  0.8705  0.2506
 6093SOL     OW19350   7.816   5.583   0.114 -0.4681 -0.4972  0.0458
 6093SOL    HW119351   7.883   5.639   0.154 -1.2259  1.3499 -1.0937
 6093SOL    HW219352   7.739   5.595   0.170 -0.4921 -0.7802  0.0710
 6094SOL     OW19353   5.518   5.616   4.000  0.8501  0.2872  0.0560
 6094SOL    HW119354   5.537   5.569   4.081  0.3034  0.9320  0.5722
 6094SOL    HW219355   5.448   5.564   3.959  0.0970  0.7510  0.7288
 6095SOL     OW19356   2.626   6.399   3.731  0.3120 -0.0515  0.4056
 6095SOL    HW119357   2.593   6.309   3.728 -0.3238  0.1539  0.8864
 6095SOL    HW219358   2.547   6.453   3.731  0.6846  0.5019  0.4257
 6096SOL     OW19359   7.000   6.918   0.411 -0.1246  0.1292 -0.4084
 6096SOL    HW119360   6.937   6.853   0.441  1.2180 -0.5402  1.0706
 6096SOL    HW219361   6.981   6.996   0.464  1.7360 -0.8110  1.8386
 6097SOL     OW19362   7.565   5.283   4.750 -0.3530 -0.2035  0.1030
 6097SOL    HW119363   7.478   5.247   4.769  0.2753 -1.7731  0.1601
 6097SOL    HW219364   7.586   5.247   4.664  0.6151 -0.5994  0.4967
 6098SOL     OW19365   6.545   2.951   2.389 -0.0543  0.5800 -0.8040
 6098SOL    HW119366   6.559   3.041   2.360 -1.4218  0.3668 -2.2779
 6098SOL    HW219367   6.498   2.960   2.472 -0.4321  1.2299 -1.0820
 6099SOL     OW19368   0.063   4.414   5.668 -0.6758  0.2492  0.5187
 6099SOL    HW119369   0.124   4.407   5.741  0.8679  0.1590 -0.7369
 6099SOL    HW219370   0.081   4.338   5.613  0.0015  1.6185 -1.2623
 6100SOL     OW19371   6.951   1.390   4.922  0.6281 -0.3516  0.3915
 6100SOL    HW119372   6.888   1.330   4.960  2.7924 -2.0596  1.4539
 6100SOL    HW219373   6.923   1.399   4.830 -1.6204 -0.3149  1.0207
 6101SOL     OW19374   5.739   6.280   4.062 -0.0535  0.2463  0.0480
 6101SOL    HW119375   5.832   6.300   4.066  0.1185 -0.6745  2.1227
 6101SOL    HW219376   5.722   6.228   4.141 -2.3416  0.4476 -0.2341
 6102SOL     OW19377   2.300   6.971   3.831 -0.1107  0.0188  0.8082
 6102SOL    HW119378   2.328   7.002   3.745 -1.4705 -1.2926 -0.1705
 6102SOL    HW219379   2.261   7.048   3.873 -0.0985  0.5125 -0.0536
 6103SOL     OW19380   2.094   6.802   5.402  0.2016  0.0567  0.1696
 6103SOL    HW119381   2.171   6.772   5.354 -0.2607  1.5084 -1.5892
 6103SOL    HW219382   2.104   6.765   5.490  1.4420 -2.1389 -0.8210
 6104SOL     OW19383   7.108   0.563   1.777  0.1447  0.7175  0.4312
 6104SOL    HW119384   7.030   0.525   1.815  2.3658 -1.7925  2.8886
 6104SOL    HW219385   7.087   0.573   1.684 -2.1113 -2.6828  0.4074
 6105SOL     OW19386   7.967   2.522   5.962 -0.1991  0.1633 -0.0929
 6105SOL    HW119387   7.929   2.494   5.878 -0.1181 -0.5071  0.0829
 6105SOL    HW219388   7.892   2.523   6.022 -0.6280  2.5267 -0.5876
 6106SOL     OW19389   4.624   1.272   3.943  0.4606  0.1626 -0.3053
 6106SOL    HW119390   4.595   1.180   3.941 -2.7883  1.0509 -2.7420
 6106SOL    HW219391   4.552   1.318   3.987  2.2339  1.5951  1.2674
 6107SOL     OW19392   5.067   0.319   1.259 -0.5223  0.4099  0.3122
 6107SOL    HW119393   5.162   0.315   1.274 -0.6447  2.0292  1.9134
 6107SOL    HW219394   5.029   0.273   1.334 -1.0377 -0.3236 -0.3774
 6108SOL     OW19395   7.723   7.673   8.103  0.1436 -0.1267 -0.5262
 6108SOL    HW119396   7.661   7.606   8.134 -0.5784  0.8427  0.1818
 6108SOL    HW219397   7.670   7.730   8.048 -0.1450  1.8248  1.5959
 6109SOL     OW19398   5.758   6.880   2.209  0.0021 -0.7216  0.1842
 6109SOL    HW119399   5.799   6.833   2.136  0.5197 -1.8212  1.1584
 6109SOL    HW219400   5.832   6.915   2.259 -0.3133 -0.8611  0.7499
 6110SOL     OW19401   1.074   7.783   2.732 -0.5129  0.2426 -0.2304
 6110SOL    HW119402   1.136   7.828   2.674  0.1779 -1.2047 -0.6589
 6110SOL    HW219403   0.992   7.782   2.682 -0.5161  0.9290 -0.2487
 6111SOL     OW19404   4.285   5.806   3.714 -0.1106  0.9449 -0.7177
 6111SOL    HW119405   4.369   5.807   3.668  0.7700 -1.0078  0.6460
 6111SOL    HW219406   4.308   5.825   3.805 -0.5017 -2.7704  0.3530
 6112SOL     OW19407   7.992   2.178   0.514 -0.0214 -0.4988 -0.0353
 6112SOL    HW119408   7.930   2.188   0.442 -0.4681 -1.4178  0.2009
 6112SOL    HW219409   8.077   2.198   0.476 -0.4844  1.1412 -0.2834
 6113SOL     OW19410   0.360   6.110   2.521  0.1336  0.7730 -0.5817
 6113SOL    HW119411   0.324   6.046   2.583  0.1729  0.9892 -0.3323
 6113SOL    HW219412   0.432   6.150   2.568  1.4999 -0.4911 -1.5007
 6114SOL     OW19413   4.361   6.235   2.620  0.2767 -0.0572  0.0605
 6114SOL    HW119414   4.395   6.325   2.614 -0.4940  0.2433  0.0509
 6114SOL    HW219415   4.268   6.243   2.595  0.3607 -0.9613 -0.6024
 6115SOL     OW19416   1.505   1.412   0.104 -0.4849  0.3470  0.6103
 6115SOL    HW119417   1.452   1.482   0.140  0.3425  2.0525 -1.2526
 6115SOL    HW219418   1.453   1.377   0.031  0.1018  0.7149 -0.0018
 6116SOL     OW19419   6.437   4.251   4.478  0.3610  0.3941  0.0550
 6116SOL    HW119420   6.477   4.334   4.453  1.5831  0.1648  1.1267
 6116SOL    HW219421   6.405   4.266   4.568 -1.1455  0.2709 -0.4240
 6117SOL     OW19422   6.640   2.473   7.262  0.4866  0.2006  0.2305
 6117SOL    HW119423   6.697   2.544   7.292  1.4844  0.0010 -1.0962
 6117SOL    HW219424   6.620   2.423   7.342  0.5032  1.4338  1.0357
 6118SOL     OW19425   1.637   7.801   7.632  0.1339  0.2603  0.1375
 6118SOL    HW119426   1.687   7.853   7.569 -0.0489  0.9805  0.5858
 6118SOL    HW219427   1.689   7.721   7.642  0.1454  0.1182 -0.9517
 6119SOL     OW19428   3.522   2.500   1.358 -0.1377 -0.3682  0.2481
 6119SOL    HW119429   3.505   2.469   1.269 -0.7770 -0.1494  0.2851
 6119SOL    HW219430   3.538   2.421   1.409  1.4180 -0.4234 -0.2954
 6120SOL     OW19431   5.812   2.811   2.645  0.1829  0.0715 -0.0564
 6120SOL    HW119432   5.852   2.819   2.558  3.7247  1.9625  1.5329
 6120SOL    HW219433   5.776   2.898   2.663  0.3833 -0.0087  0.7715
 6121SOL     OW19434   0.076   5.514   8.042  0.2769 -0.2121 -0.3672
 6121SOL    HW119435   0.162   5.517   8.000 -0.6502  0.9575 -2.2953
 6121SOL    HW219436   0.013   5.517   7.970 -1.4208 -1.1880  0.9825
 6122SOL     OW19437   5.274   2.602   1.364 -0.0486  0.1518  0.0082
 6122SOL    HW119438   5.230   2.635   1.443  0.7459 -1.8093  1.3560
 6122SOL    HW219439   5.205   2.598   1.298 -0.9152  1.0973  0.8126
 6123SOL     OW19440   3.952   2.565   1.242  0.5869  0.0506 -0.2434
 6123SOL    HW119441   3.912   2.517   1.314  1.5580 -0.3268  0.0545
 6123SOL    HW219442   3.973   2.651   1.279 -0.6712  0.5560 -0.6322
 6124SOL     OW19443   4.452   4.405   4.548 -0.3218  0.1816  0.1313
 6124SOL    HW119444   4.471   4.329   4.603 -0.6963  0.3986  0.5666
 6124SOL    HW219445   4.383   4.453   4.595 -0.0323  0.8374 -0.0895
 6125SOL     OW19446   4.302   6.176   4.720 -0.1761  0.1695 -0.5626
 6125SOL    HW119447   4.370   6.241   4.734  0.0365  0.0739 -1.1188
 6125SOL    HW219448   4.350   6.096   4.699 -0.4221  0.7513 -3.9112
 6126SOL     OW19449   3.758   4.333   2.451  0.4358 -0.4188  0.8083
 6126SOL    HW119450   3.771   4.322   2.546  0.4307 -1.1561  0.7310
 6126SOL    HW219451   3.666   4.359   2.442  0.7370  0.7992  1.0788
 6127SOL     OW19452   6.691   1.880   0.405 -0.5425  0.3543 -0.1968
 6127SOL    HW119453   6.662   1.969   0.421 -1.5510 -0.3309  2.3016
 6127SOL    HW219454   6.614   1.826   0.422  0.1939 -1.0428 -1.0870
 6128SOL     OW19455   2.148   3.200   7.076  0.4128  0.1272  0.1179
 6128SOL    HW119456   2.112   3.166   7.157  0.8432  1.5816  0.9514
 6128SOL    HW219457   2.127   3.294   7.077  1.9392  0.5183 -0.5858
 6129SOL     OW19458   1.328   0.011   0.150  0.5244 -0.1993 -0.4726
 6129SOL    HW119459   1.366   0.006   0.238  2.3222  0.5182 -1.1657
 6129SOL    HW219460   1.250  -0.043   0.155  1.0274 -0.8362  1.3455
 6130SOL     OW19461   2.156   3.946   0.860  0.0247 -0.7315 -0.2456
 6130SOL    HW119462   2.118   3.902   0.936 -2.5219  0.5211 -0.7002
 6130SOL    HW219463   2.139   3.886   0.787  2.8845 -2.1543  0.1256
 6131SOL     OW19464   1.180   4.470   4.758 -0.3022 -0.7476  0.0867
 6131SOL    HW119465   1.269   4.505   4.770 -0.1297 -1.0202 -0.3568
 6131SOL    HW219466   1.177   4.444   4.666 -1.0060 -0.3071 -0.0190
 6132SOL     OW19467   4.409   0.436   8.052  0.0895 -0.0103  0.8323
 6132SOL    HW119468   4.370   0.461   8.136  0.8081  1.0498  0.8625
 6132SOL    HW219469   4.402   0.514   7.998  1.4996 -0.0155  0.5973
 6133SOL     OW19470   7.607   4.228   0.858  0.1640 -0.4825  0.6658
 6133SOL    HW119471   7.653   4.159   0.810 -1.5252 -2.5073  1.8175
 6133SOL    HW219472   7.540   4.259   0.797  0.2206 -0.6130  0.5368
 6134SOL     OW19473   2.232   5.885   3.787 -0.1289 -0.5497  0.3576
 6134SOL    HW119474   2.239   5.829   3.710 -0.7319  0.2139 -0.2729
 6134SOL    HW219475   2.323   5.902   3.812  0.2354  1.5131 -1.9501
 6135SOL     OW19476   5.438   1.496   4.796 -0.2094  0.5023 -0.4260
 6135SOL    HW119477   5.520   1.518   4.841 -0.4133 -0.2615  0.3608
 6135SOL    HW219478   5.417   1.574   4.745 -0.1922  1.5918  1.1605
 6136SOL     OW19479   4.812   3.783   5.621 -0.1878 -0.1963 -0.1495
 6136SOL    HW119480   4.811   3.863   5.569 -0.8924  0.2564  0.5378
 6136SOL    HW219481   4.756   3.722   5.573 -1.2714  0.3960  0.3359
 6137SOL     OW19482   4.035   6.024   6.682 -0.1950 -0.4378 -0.3338
 6137SOL    HW119483   4.088   6.023   6.761  0.5271  0.8979 -0.7686
 6137SOL    HW219484   4.014   6.117   6.668 -1.1438 -0.7531 -1.1594
 6138SOL     OW19485   6.007   2.627   6.316  0.0406  0.0494 -0.1349
 6138SOL    HW119486   6.094   2.626   6.356 -0.2884 -3.0974  0.7887
 6138SOL    HW219487   5.951   2.671   6.380  0.3213 -1.2024  1.0164
 6139SOL     OW19488   3.787   0.878   6.976 -0.1894 -0.2670 -0.3140
 6139SOL    HW119489   3.808   0.848   7.065 -0.0180 -0.0504 -0.2814
 6139SOL    HW219490   3.864   0.928   6.949  0.6256 -1.9958 -1.3407
 6140SOL     OW19491   8.020   7.459   1.368  0.6983  0.4071 -0.4479
 6140SOL    HW119492   8.005   7.540   1.319  0.7044  0.6938  0.0148
 6140SOL    HW219493   8.004   7.484   1.459  1.1958  0.0072 -0.2509
 6141SOL     OW19494   2.947   6.815   1.045 -0.1685 -0.6786  0.1785
 6141SOL    HW119495   2.880   6.822   0.977  0.8035  0.1958 -0.7241
 6141SOL    HW219496   2.945   6.724   1.072 -1.5515 -0.7241 -0.0018
 6142SOL     OW19497   7.397   5.195   3.360 -0.0665 -0.5584  0.3644
 6142SOL    HW119498   7.307   5.218   3.383  0.3092  0.3500  0.9983
 6142SOL    HW219499   7.403   5.211   3.266  0.5306  3.5015  0.8989
 6143SOL     OW19500   2.230   2.467   7.556 -0.0887  0.4378 -0.3808
 6143SOL    HW119501   2.229   2.516   7.638 -0.5654 -1.0320  0.5209
 6143SOL    HW219502   2.142   2.428   7.550  0.2513 -0.2535 -1.1055
 6144SOL     OW19503   6.077   4.625   3.911 -0.1028 -0.2948 -0.1554
 6144SOL    HW119504   6.159   4.667   3.885  0.0913 -1.6677 -1.9154
 6144SOL    HW219505   6.100   4.576   3.990 -0.1017  2.0037  1.3657
 6145SOL     OW19506   1.254   5.129   3.806  0.0062  0.1332 -0.2347
 6145SOL    HW119507   1.320   5.067   3.776  0.5925  1.1792 -1.1859
 6145SOL    HW219508   1.171   5.083   3.792  0.3946 -0.2561 -1.4364
 6146SOL     OW19509   6.801   5.395   7.750 -0.2960 -0.0326 -0.2536
 6146SOL    HW119510   6.883   5.399   7.800 -0.2897  0.0342 -0.2690
 6146SOL    HW219511   6.748   5.330   7.796 -0.7675  0.8839  0.5382
 6147SOL     OW19512   4.091   2.615   3.703  0.6512 -0.6530 -0.1572
 6147SOL    HW119513   4.073   2.692   3.650 -0.4105 -0.7528  0.0154
 6147SOL    HW219514   4.117   2.547   3.641 -2.3511 -1.3200 -0.8723
 6148SOL     OW19515   4.290   4.481   3.769  0.2443  0.0085  0.0886
 6148SOL    HW119516   4.363   4.421   3.756  0.8781  0.4278  1.5703
 6148SOL    HW219517   4.330   4.568   3.764 -0.6221  0.3462 -1.7978
 6149SOL     OW19518   6.491   7.400   5.123  0.0803  0.2452 -0.4878
 6149SOL    HW119519   6.459   7.483   5.087  0.8951  0.5846 -0.4596
 6149SOL    HW219520   6.510   7.346   5.046 -0.0728  0.2301 -0.5152
 6150SOL     OW19521   2.004   6.343   0.391 -0.7230  0.0968 -0.5712
 6150SOL    HW119522   1.936   6.302   0.338  0.7375 -1.2701 -1.4806
 6150SOL    HW219523   1.979   6.435   0.394 -2.3540 -0.2886 -1.2553
 6151SOL     OW19524   7.281   2.457   4.959 -0.5352 -0.0196  0.3240
 6151SOL    HW119525   7.303   2.546   4.986  0.8559  0.1205 -1.1722
 6151SOL    HW219526   7.246   2.416   5.039  0.6544  1.2551  1.5439
 6152SOL     OW19527   1.996   3.063   1.933  0.2061 -0.4682 -0.1896
 6152SOL    HW119528   2.068   3.127   1.935 -0.2486  0.1203  2.8362
 6152SOL    HW219529   1.943   3.089   1.858 -1.0119  4.0789  1.9084
 6153SOL     OW19530   6.204   4.121   1.575  0.3474 -0.0029  0.4142
 6153SOL    HW119531   6.208   4.190   1.509 -0.8032  1.3749  1.6978
 6153SOL    HW219532   6.243   4.045   1.533 -1.6735  0.3632 -2.3979
 6154SOL     OW19533   3.729   6.859   8.152  0.6154  0.0027 -0.2226
 6154SOL    HW119534   3.813   6.837   8.191  0.4403  0.7493  0.6255
 6154SOL    HW219535   3.744   6.856   8.057  2.4354  3.0068 -0.1590
 6155SOL     OW19536   2.147   3.027   6.871 -0.0215  0.8151  0.0470
 6155SOL    HW119537   2.155   3.085   6.947 -1.5283  1.2388 -0.0740
 6155SOL    HW219538   2.120   3.086   6.800  0.0528  0.2112 -0.4843
 6156SOL     OW19539   6.047   7.785   4.916  0.1169  0.0162 -0.1722
 6156SOL    HW119540   6.031   7.721   4.986  0.0999 -1.5016 -1.5221
 6156SOL    HW219541   5.967   7.838   4.913 -0.2222 -0.4540  0.3646
 6157SOL     OW19542   0.213   4.121   0.833 -0.7929 -0.0098  0.4220
 6157SOL    HW119543   0.307   4.108   0.848 -0.5723  1.5158  0.4710
 6157SOL    HW219544   0.205   4.121   0.737 -1.1306 -2.5049  0.3897
 6158SOL     OW19545   2.548   2.081   5.894 -0.1783  0.1048  0.5234
 6158SOL    HW119546   2.521   2.151   5.954  0.2805  0.1802  0.6506
 6158SOL    HW219547   2.616   2.122   5.840  1.2738 -0.6756  1.6633
 6159SOL     OW19548   3.473   4.694   1.389 -0.6043  0.0087 -0.0579
 6159SOL    HW119549   3.518   4.730   1.312 -0.9079 -0.3188 -0.3961
 6159SOL    HW219550   3.406   4.758   1.411 -1.0466 -0.2687 -0.5671
 6160SOL     OW19551   1.213   5.474   5.255 -0.4229 -0.3292 -0.2071
 6160SOL    HW119552   1.189   5.527   5.179 -2.0610 -1.4285 -0.5133
 6160SOL    HW219553   1.240   5.537   5.321 -0.5335  0.7582 -1.1723
 6161SOL     OW19554   7.752   7.131   5.823 -0.0886  0.1755 -0.0766
 6161SOL    HW119555   7.703   7.149   5.904 -0.7849 -1.8143 -0.0153
 6161SOL    HW219556   7.686   7.104   5.760  0.8352 -2.3722 -0.0588
 6162SOL     OW19557   7.902   5.278   3.450 -0.8031  0.5151 -1.1084
 6162SOL    HW119558   7.987   5.315   3.425  0.4297 -0.8343  0.7819
 6162SOL    HW219559   7.881   5.217   3.380 -0.0960  0.7255 -1.5138
 6163SOL     OW19560   6.164   4.384   7.718  0.8097 -0.1956  0.4181
 6163SOL    HW119561   6.115   4.353   7.641  2.1336  0.1372 -0.5970
 6163SOL    HW219562   6.111   4.456   7.752 -0.6119 -1.3850  0.8158
 6164SOL     OW19563   7.283   3.527   7.690  0.2207 -0.0823 -0.3611
 6164SOL    HW119564   7.309   3.441   7.657  0.1965 -0.0314 -0.5152
 6164SOL    HW219565   7.336   3.589   7.640  0.7839 -0.0384  0.2761
 6165SOL     OW19566   6.255   0.880   6.512 -0.0543 -0.4642 -0.1574
 6165SOL    HW119567   6.188   0.922   6.567 -0.7426 -1.4698 -0.2130
 6165SOL    HW219568   6.337   0.920   6.540 -0.5413 -0.0710  0.7404
 6166SOL     OW19569   2.059   4.261   6.819 -0.8687 -0.0007 -0.3035
 6166SOL    HW119570   1.969   4.229   6.827 -0.6162 -0.4247  0.9808
 6166SOL    HW219571   2.050   4.345   6.775 -1.9641  0.2496  0.3563
 6167SOL     OW19572   2.181   1.015   0.357  0.3464  0.1869 -0.4833
 6167SOL    HW119573   2.255   0.971   0.401 -0.9150 -3.4242 -1.6104
 6167SOL    HW219574   2.133   1.058   0.428  2.3796  0.9231  0.5344
 6168SOL     OW19575   7.617   1.716   7.400  0.2350  0.1739 -0.6003
 6168SOL    HW119576   7.663   1.635   7.376  0.8063  0.2372  0.2397
 6168SOL    HW219577   7.569   1.740   7.321 -2.6216 -2.7166  0.0535
 6169SOL     OW19578   6.856   8.129   6.227 -0.5649  0.7586  0.0129
 6169SOL    HW119579   6.933   8.172   6.190  0.4768 -1.0513 -0.0361
 6169SOL    HW219580   6.827   8.070   6.157 -1.5742  0.9030  0.3012
 6170SOL     OW19581   1.397   4.733   1.185  0.0939  0.3132 -0.2585
 6170SOL    HW119582   1.388   4.642   1.213 -1.0639  0.3005 -0.6418
 6170SOL    HW219583   1.378   4.731   1.091 -0.7354  1.0593 -0.1180
 6171SOL     OW19584   0.746   3.742   7.342 -0.0880 -0.3165  0.0829
 6171SOL    HW119585   0.659   3.719   7.376  0.4263 -2.0218  0.3190
 6171SOL    HW219586   0.785   3.797   7.409 -1.0860  0.7264 -0.1622
 6172SOL     OW19587   0.916   4.171   7.990 -0.0315 -0.1615 -0.5611
 6172SOL    HW119588   0.899   4.137   7.902 -0.9763  1.0034 -0.8461
 6172SOL    HW219589   0.997   4.221   7.981 -0.7236  0.8994 -1.0504
 6173SOL     OW19590   1.706   0.675   6.996 -0.3263 -0.2219  0.0154
 6173SOL    HW119591   1.623   0.665   6.950  0.2491 -0.0196 -1.1007
 6173SOL    HW219592   1.772   0.671   6.927  0.5983 -0.4467  0.8897
 6174SOL     OW19593   6.568   0.082   3.732  0.0715 -0.3055  0.2071
 6174SOL    HW119594   6.608   0.128   3.658  0.5288  2.6841  2.1243
 6174SOL    HW219595   6.642   0.062   3.790 -0.6455  1.5706  1.8866
 6175SOL     OW19596   6.283   3.505   6.339  0.0525  0.5372  0.4667
 6175SOL    HW119597   6.311   3.437   6.399  0.7279 -1.4787 -1.9712
 6175SOL    HW219598   6.194   3.479   6.313  0.4300  0.3774 -0.7114
 6176SOL     OW19599   6.536   4.828   0.916 -0.0615  0.4176 -0.3385
 6176SOL    HW119600   6.591   4.904   0.901 -0.3463  0.5274 -0.8681
 6176SOL    HW219601   6.590   4.754   0.888 -0.3750  0.5725 -1.3704
 6177SOL     OW19602   5.814   7.332   4.242 -0.1203  0.3575  0.2708
 6177SOL    HW119603   5.785   7.363   4.157  2.8973 -2.0675 -1.8495
 6177SOL    HW219604   5.894   7.381   4.260  1.1197 -1.4610 -0.0073
 6178SOL     OW19605   4.635   7.177   3.511  0.0647  0.0982 -0.4369
 6178SOL    HW119606   4.686   7.225   3.577  1.4369 -0.9307 -0.6901
 6178SOL    HW219607   4.553   7.155   3.555 -0.1835  1.7983 -0.0042
 6179SOL     OW19608   1.458   2.745   3.714  0.0893  0.5167 -0.2941
 6179SOL    HW119609   1.413   2.737   3.798  1.0525 -1.9663  0.0645
 6179SOL    HW219610   1.418   2.679   3.659  0.7953  0.8014 -1.1631
 6180SOL     OW19611   6.649   3.560   4.594 -0.2544 -0.2705 -0.3267
 6180SOL    HW119612   6.575   3.500   4.589 -0.9286  0.4701  0.6808
 6180SOL    HW219613   6.611   3.647   4.591  0.7491  0.1689 -2.2986
 6181SOL     OW19614   0.546   5.472   3.436 -0.5252  0.5017  0.2649
 6181SOL    HW119615   0.528   5.466   3.343 -2.0607 -0.6158  0.5787
 6181SOL    HW219616   0.466   5.507   3.474  0.5049  2.1122  1.0694
 6182SOL     OW19617   4.360   5.861   7.021  0.0175  0.6519 -0.3749
 6182SOL    HW119618   4.368   5.839   7.114 -2.4910  0.7275 -0.0501
 6182SOL    HW219619   4.410   5.793   6.975  0.1529 -0.2147  0.9951
 6183SOL     OW19620   1.223   1.869   7.753 -0.1248 -0.3588 -0.1216
 6183SOL    HW119621   1.263   1.821   7.681  1.3149  0.7130 -0.0675
 6183SOL    HW219622   1.135   1.831   7.761 -0.0169 -1.0638 -1.8796
 6184SOL     OW19623   7.897   7.987   0.164  0.3619  0.0578  0.3555
 6184SOL    HW119624   7.986   8.010   0.190  0.2474  0.7384  0.1615
 6184SOL    HW219625   7.866   8.064   0.116  0.4092 -0.9627 -1.3973
 6185SOL     OW19626   3.746   0.452   4.216  0.0104 -0.5740  0.8189
 6185SOL    HW119627   3.798   0.495   4.148 -1.7629 -1.4019 -1.1663
 6185SOL    HW219628   3.791   0.369   4.232 -0.7421 -1.3928 -1.0606
 6186SOL     OW19629   6.090   2.281   7.012  0.2564 -0.7277 -0.3784
 6186SOL    HW119630   6.080   2.376   7.017  0.6167 -0.7528  1.9187
 6186SOL    HW219631   6.153   2.268   6.940  1.5406  0.8956  0.3744
 6187SOL     OW19632   4.021   8.036   0.277  0.4343  0.3141 -0.5682
 6187SOL    HW119633   3.995   8.113   0.328  0.8291 -0.0625  0.2262
 6187SOL    HW219634   4.030   7.966   0.342  1.2632 -0.1065 -1.1090
 6188SOL     OW19635   6.389   3.414   1.591 -0.0904 -0.1936  0.0929
 6188SOL    HW119636   6.478   3.381   1.585  0.7828  1.4933  2.1272
 6188SOL    HW219637   6.334   3.336   1.596  1.1089 -1.2794 -2.2528
 6189SOL     OW19638   1.293   7.747   7.249 -0.4698 -0.0634 -0.7022
 6189SOL    HW119639   1.294   7.842   7.240  1.6282  0.0244 -0.0118
 6189SOL    HW219640   1.304   7.715   7.160 -1.9080  0.2855 -1.0356
 6190SOL     OW19641   4.569   6.640   1.715  0.1008  0.4166 -0.3022
 6190SOL    HW119642   4.627   6.611   1.644 -1.3320 -0.9083 -0.9874
 6190SOL    HW219643   4.600   6.594   1.792  1.6668  1.8591 -0.0053
 6191SOL     OW19644   6.849   0.765   1.119  0.3195  0.0295  0.2668
 6191SOL    HW119645   6.834   0.734   1.208  0.7605 -1.1541 -0.0549
 6191SOL    HW219646   6.763   0.762   1.077  0.4894 -1.7518 -0.0410
 6192SOL     OW19647   1.841   3.984   0.621  0.4722 -1.0485  0.4222
 6192SOL    HW119648   1.751   3.966   0.650 -0.1718  0.7909 -0.2479
 6192SOL    HW219649   1.839   3.970   0.527  0.6521 -0.1800  0.2822
 6193SOL     OW19650   2.487   3.024   0.628  0.0918 -0.4749  0.2483
 6193SOL    HW119651   2.393   3.039   0.633 -0.4147 -2.0683 -2.3891
 6193SOL    HW219652   2.520   3.094   0.571  0.4364 -0.3085  0.6365
 6194SOL     OW19653   2.294   1.793   5.803 -0.2529  0.1359  0.0634
 6194SOL    HW119654   2.202   1.788   5.828 -0.7753  2.2340 -1.2290
 6194SOL    HW219655   2.315   1.705   5.771 -1.2301 -0.9011  2.0924
 6195SOL     OW19656   2.235   0.746   5.604  0.5670 -0.1596 -0.7305
 6195SOL    HW119657   2.327   0.769   5.595  0.8155 -1.2076 -1.0042
 6195SOL    HW219658   2.212   0.705   5.521 -0.3479  0.7211 -0.9300
 6196SOL     OW19659   3.290   6.613   5.685  0.0585  0.3231 -0.6774
 6196SOL    HW119660   3.196   6.623   5.669 -0.2805  0.6194  1.2362
 6196SOL    HW219661   3.326   6.587   5.600 -1.6537  0.7751 -1.5950
 6197SOL     OW19662   4.675   3.077   0.814  0.4672 -0.0969  0.0399
 6197SOL    HW119663   4.695   3.012   0.881 -1.7338 -0.7470  0.1587
 6197SOL    HW219664   4.749   3.075   0.754  0.3872 -2.9018 -0.0752
 6198SOL     OW19665   6.310   3.532   0.027 -0.2764  0.1918  0.2718
 6198SOL    HW119666   6.274   3.518   0.115  0.6473  3.8280  1.4199
 6198SOL    HW219667   6.383   3.470   0.021 -0.8564 -0.6818  1.7261
 6199SOL     OW19668   4.290   2.177   4.221  0.0245  0.7042 -0.1137
 6199SOL    HW119669   4.222   2.110   4.217 -0.8259  1.4476  1.3015
 6199SOL    HW219670   4.333   2.162   4.305  0.7306  1.0921 -0.3996
 6200SOL     OW19671   0.332   7.170   5.763  0.0358  0.2273 -0.1840
 6200SOL    HW119672   0.328   7.221   5.682  0.0848  1.0721  0.3326
 6200SOL    HW219673   0.251   7.193   5.810 -0.5202 -1.0732 -0.4589
 6201SOL     OW19674   4.244   2.523   1.354 -0.3006  0.3531  0.2133
 6201SOL    HW119675   4.313   2.526   1.421 -0.9245  1.3524  0.8351
 6201SOL    HW219676   4.172   2.475   1.397 -0.0770 -0.5211 -0.3650
 6202SOL     OW19677   7.504   7.643   5.548  0.3122  0.3551  0.4348
 6202SOL    HW119678   7.536   7.608   5.464  0.0477  1.3267 -0.0924
 6202SOL    HW219679   7.450   7.573   5.584 -0.4411  0.3119 -0.7301
 6203SOL     OW19680   7.122   5.194   1.757  0.4622 -0.6186 -0.4263
 6203SOL    HW119681   7.083   5.121   1.805 -0.2478  0.3916  0.5552
 6203SOL    HW219682   7.215   5.174   1.755  0.3552 -1.2312  0.3883
 6204SOL     OW19683   3.950   1.499   6.304  0.2093  0.7598  0.1929
 6204SOL    HW119684   4.030   1.532   6.345  0.2619 -1.3464  2.0209
 6204SOL    HW219685   3.886   1.498   6.375 -1.0375  1.0904 -0.8962
 6205SOL     OW19686   2.870   1.098   6.247 -0.0109  0.1832 -0.0298
 6205SOL    HW119687   2.953   1.074   6.288 -0.5476 -0.6996  0.5901
 6205SOL    HW219688   2.820   1.139   6.317 -0.6371 -0.6166  0.0071
 6206SOL     OW19689   0.688   0.709   3.305 -0.3004 -0.3405 -0.0061
 6206SOL    HW119690   0.697   0.661   3.387  0.5509 -1.9937 -1.0030
 6206SOL    HW219691   0.673   0.799   3.331  0.3610 -0.7490  1.9537
 6207SOL     OW19692   0.448   4.843   8.158  0.7694 -0.1899 -0.3500
 6207SOL    HW119693   0.405   4.794   8.088  3.5935 -3.5479 -0.0100
 6207SOL    HW219694   0.513   4.897   8.113  0.2757  0.2898 -0.4948
 6208SOL     OW19695   4.530   6.675   2.958  0.0900 -0.5382 -0.2957
 6208SOL    HW119696   4.534   6.751   3.016 -0.3228  0.6485 -1.7616
 6208SOL    HW219697   4.442   6.640   2.970 -0.5765  0.6848 -1.3475
 6209SOL     OW19698   4.719   1.280   4.437  0.7438  0.3530  0.3156
 6209SOL    HW119699   4.683   1.367   4.420  1.1866  0.2392 -1.4160
 6209SOL    HW219700   4.807   1.282   4.398  1.1640 -0.5487  1.1606
 6210SOL     OW19701   3.806   3.571   4.093 -0.2047 -0.0744 -0.2131
 6210SOL    HW119702   3.887   3.587   4.141 -1.2335  0.3048  1.4710
 6210SOL    HW219703   3.784   3.480   4.113 -0.4428 -0.0323 -0.2820
 6211SOL     OW19704   0.229   6.513   2.587  0.0700  0.1373 -0.8870
 6211SOL    HW119705   0.220   6.572   2.512 -3.5301  2.1292  0.8343
 6211SOL    HW219706   0.294   6.556   2.644  1.3148 -0.3460 -1.9019
 6212SOL     OW19707   4.925   3.913   5.845  0.0695  0.3466  0.2316
 6212SOL    HW119708   4.852   3.855   5.868 -0.2795  0.4507 -0.5613
 6212SOL    HW219709   4.996   3.853   5.820  0.4911  0.2307  1.6210
 6213SOL     OW19710   6.172   0.983   1.032 -0.1161 -0.3008 -0.4467
 6213SOL    HW119711   6.153   1.019   0.945  1.5063  0.8043 -0.3828
 6213SOL    HW219712   6.118   1.036   1.092 -1.2147 -1.0474 -0.7514
 6214SOL     OW19713   4.225   0.617   7.689  0.4076 -0.2140 -0.0782
 6214SOL    HW119714   4.130   0.619   7.703  0.1242  1.9491 -1.7225
 6214SOL    HW219715   4.257   0.551   7.750 -1.9623  0.1234  1.6796
 6215SOL     OW19716   5.744   7.414   2.620 -0.5042  0.4306 -0.7178
 6215SOL    HW119717   5.779   7.413   2.531  0.1635  0.4000 -0.4591
 6215SOL    HW219718   5.785   7.338   2.663 -0.7969  0.4626 -0.3747
 6216SOL     OW19719   1.295   3.457   3.688 -0.0962  0.5094 -0.5022
 6216SOL    HW119720   1.311   3.371   3.728  2.3352  0.7488 -0.7886
 6216SOL    HW219721   1.299   3.518   3.761  1.6055  0.6670 -0.6760
 6217SOL     OW19722   4.626   2.679   2.357  0.2961  0.0762 -0.1286
 6217SOL    HW119723   4.636   2.662   2.263  2.3032 -1.7208  0.3140
 6217SOL    HW219724   4.546   2.731   2.364 -0.0424  0.0549 -2.7992
 6218SOL     OW19725   3.674   7.562   3.751 -0.4696 -0.1340 -0.5655
 6218SOL    HW119726   3.717   7.485   3.788 -0.6029  0.6425  1.3315
 6218SOL    HW219727   3.737   7.633   3.765 -0.2568  0.1180 -2.4725
 6219SOL     OW19728   5.422   0.203   6.880  0.1097 -0.2899  0.1470
 6219SOL    HW119729   5.467   0.125   6.849  0.5792  0.4360 -1.0505
 6219SOL    HW219730   5.335   0.199   6.840  0.8477  0.8485 -1.7017
 6220SOL     OW19731   6.227   4.403   3.696  0.1526  0.0967 -0.0013
 6220SOL    HW119732   6.289   4.353   3.749  0.5994  0.7796  0.1266
 6220SOL    HW219733   6.160   4.432   3.758  0.6163  0.8021  0.1776
 6221SOL     OW19734   7.866   7.090   1.114  0.3696 -0.2097 -0.2895
 6221SOL    HW119735   7.936   7.033   1.083 -0.4901 -0.9317 -0.9671
 6221SOL    HW219736   7.908   7.176   1.125  0.8949 -0.0401 -2.9012
 6222SOL     OW19737   4.624   2.135   0.736  0.0876 -0.0577  0.6481
 6222SOL    HW119738   4.611   2.094   0.651  0.0576  1.0463  0.0960
 6222SOL    HW219739   4.553   2.200   0.742  0.6134  0.4893  1.1123
 6223SOL     OW19740   7.313   2.464   5.453 -0.8508 -0.0752  0.3665
 6223SOL    HW119741   7.262   2.465   5.533  0.5098 -0.3296  1.2706
 6223SOL    HW219742   7.283   2.387   5.405 -2.7347  0.9126 -0.1170
 6224SOL     OW19743   4.031   3.510   0.010  0.1520  0.5559 -0.2904
 6224SOL    HW119744   4.041   3.573  -0.061 -0.0831 -2.1055 -2.8732
 6224SOL    HW219745   3.938   3.490   0.011  0.3654 -0.4931 -0.2553
 6225SOL     OW19746   4.887   8.076   0.105 -0.1558 -0.5240 -0.4404
 6225SOL    HW119747   4.850   8.065   0.017  1.1343 -0.5194 -1.0159
 6225SOL    HW219748   4.843   8.153   0.140  0.2684  0.2941 -1.6294
 6226SOL     OW19749   0.837   1.474   5.453 -0.4608  0.1950 -0.1289
 6226SOL    HW119750   0.908   1.537   5.442  0.2151  0.3599  3.6028
 6226SOL    HW219751   0.758   1.522   5.431  0.2944  1.3326 -0.4363
 6227SOL     OW19752   5.616   7.257   6.030 -0.0481 -0.0551  0.0774
 6227SOL    HW119753   5.553   7.187   6.049 -2.9389  1.7329 -2.1614
 6227SOL    HW219754   5.603   7.321   6.099  0.6771 -0.4660  0.6153
 6228SOL     OW19755   1.687   3.221   7.018 -0.3561  0.0754  0.4460
 6228SOL    HW119756   1.748   3.161   6.976 -1.0748 -1.0900  0.9993
 6228SOL    HW219757   1.724   3.237   7.105  0.6631  1.7662 -0.2414
 6229SOL     OW19758   6.038   3.394   2.583  0.0869  0.0437  0.2819
 6229SOL    HW119759   6.100   3.385   2.655 -2.4285 -1.3453  2.4303
 6229SOL    HW219760   6.074   3.338   2.514  1.8330  0.2803  0.9498
 6230SOL     OW19761   5.470   6.021   3.041 -0.0281  0.5123 -0.5315
 6230SOL    HW119762   5.399   6.067   2.998 -0.2536  2.1334  1.4278
 6230SOL    HW219763   5.427   5.960   3.101  0.2064  1.3609  0.5219
 6231SOL     OW19764   1.528   1.716   5.818  0.1632  0.5013  0.2552
 6231SOL    HW119765   1.565   1.647   5.872  0.2326  1.3758  1.3545
 6231SOL    HW219766   1.601   1.745   5.762  1.1232  1.9842  2.1728
 6232SOL     OW19767   7.640   0.473   7.867 -0.8258 -0.5341 -0.5986
 6232SOL    HW119768   7.581   0.402   7.892 -1.9916  0.3538 -0.7738
 6232SOL    HW219769   7.724   0.429   7.851 -1.4456 -1.8278 -0.4478
 6233SOL     OW19770   4.217   2.996   4.440  0.1032  0.2167 -0.4898
 6233SOL    HW119771   4.272   3.065   4.476  1.6521 -1.1258 -0.1631
 6233SOL    HW219772   4.270   2.956   4.372 -0.7278 -0.6941 -0.6189
 6234SOL     OW19773   7.998   3.581   4.732  0.4599 -1.0294 -0.1270
 6234SOL    HW119774   7.995   3.629   4.649  0.7253 -1.7539 -0.5688
 6234SOL    HW219775   8.056   3.633   4.787 -1.3103  0.5611  0.3505
 6235SOL     OW19776   7.020   2.164   2.980 -0.4513 -0.0816  0.3437
 6235SOL    HW119777   7.084   2.209   3.035  0.3950 -0.4291 -0.3326
 6235SOL    HW219778   6.980   2.234   2.928  2.4957 -0.1974 -2.4086
 6236SOL     OW19779   3.756   4.543   6.303 -0.1545 -0.1448 -0.2625
 6236SOL    HW119780   3.723   4.630   6.281  0.2610 -0.0975 -0.7116
 6236SOL    HW219781   3.836   4.534   6.252  0.6649 -0.1782  0.9848
 6237SOL     OW19782   4.223   1.346   7.085 -0.3224 -0.1861 -0.2261
 6237SOL    HW119783   4.151   1.409   7.082 -1.4174 -1.2143  1.7913
 6237SOL    HW219784   4.183   1.267   7.123  1.5651 -1.2602 -0.3683
 6238SOL     OW19785   5.121   6.467   1.623 -0.3298 -0.1048 -0.1543
 6238SOL    HW119786   5.054   6.399   1.614  0.1665 -0.5130 -0.9658
 6238SOL    HW219787   5.135   6.497   1.533  0.2662  0.2699  0.0638
 6239SOL     OW19788   2.608   2.811   5.945 -0.2122  0.3616 -0.4806
 6239SOL    HW119789   2.654   2.749   6.003 -0.0000  2.1294  1.3739
 6239SOL    HW219790   2.527   2.766   5.922  0.4800 -1.0924 -0.2135
 6240SOL     OW19791   4.830   3.241   3.731 -0.0274  0.4361  0.2736
 6240SOL    HW119792   4.763   3.307   3.717 -0.8499 -0.2400  0.9183
 6240SOL    HW219793   4.881   3.242   3.650 -1.4532  0.2502 -0.6714
 6241SOL     OW19794   6.104   2.488   3.221  0.8201 -0.1974 -0.8710
 6241SOL    HW119795   6.194   2.501   3.194  0.2695  1.8923 -1.8847
 6241SOL    HW219796   6.058   2.568   3.194 -0.9031 -0.2549  1.5036
 6242SOL     OW19797   7.328   0.538   0.793 -0.3779 -0.4361 -0.2185
 6242SOL    HW119798   7.378   0.620   0.794 -0.9738 -0.0734  0.1704
 6242SOL    HW219799   7.253   0.557   0.737 -0.6388 -0.6425  0.0606
 6243SOL     OW19800   1.528   3.703   1.064  0.0623  0.3646 -0.2958
 6243SOL    HW119801   1.434   3.718   1.050 -0.0284 -0.1310 -0.2136
 6243SOL    HW219802   1.534   3.672   1.155  0.4728  1.9659  0.2613
 6244SOL     OW19803   3.098   3.848   6.457  0.0597 -0.1692 -0.0323
 6244SOL    HW119804   3.133   3.775   6.406 -1.9158  0.6187 -2.7617
 6244SOL    HW219805   3.157   3.921   6.440 -1.1776  0.3922 -2.2775
 6245SOL     OW19806   7.412   3.627   5.933 -0.2928 -0.2065 -0.3626
 6245SOL    HW119807   7.343   3.569   5.903  0.3849 -0.3037 -1.7986
 6245SOL    HW219808   7.370   3.713   5.940 -1.3833 -0.8522  2.0829
 6246SOL     OW19809   2.526   4.464   6.377  0.2806  0.3313 -0.2497
 6246SOL    HW119810   2.457   4.415   6.422  0.8466  0.3076  0.6243
 6246SOL    HW219811   2.528   4.549   6.422  1.6123 -0.0930  0.5575
 6247SOL     OW19812   4.006   6.190   3.306  0.4983  0.0196  0.4785
 6247SOL    HW119813   3.985   6.243   3.383  0.1258  0.3561  0.1534
 6247SOL    HW219814   3.989   6.100   3.333  0.4055  0.1335  0.8004
 6248SOL     OW19815   7.421   2.914   7.846 -0.4670  0.5110 -0.1378
 6248SOL    HW119816   7.368   2.840   7.818 -0.7115  1.0239 -1.1032
 6248SOL    HW219817   7.507   2.877   7.866 -0.9546 -0.2066  0.6441
 6249SOL     OW19818   4.829   3.102   1.213 -0.1893  0.4543  0.6680
 6249SOL    HW119819   4.817   3.197   1.203 -1.3654  0.2138 -0.6044
 6249SOL    HW219820   4.775   3.079   1.288 -1.6603  0.5130 -0.3327
 6250SOL     OW19821   3.458   7.358   3.045  0.0247 -0.0425  0.2504
 6250SOL    HW119822   3.478   7.362   2.951 -1.5521 -0.5702 -0.1349
 6250SOL    HW219823   3.486   7.443   3.079 -0.1236  0.4712 -0.8575
 6251SOL     OW19824   6.888   2.927   3.260  0.1591 -0.6405 -0.0592
 6251SOL    HW119825   6.804   2.970   3.245  0.9940  2.4086  2.7797
 6251SOL    HW219826   6.917   2.899   3.173 -4.1466 -2.8734 -1.0363
 6252SOL     OW19827   0.609   3.003   3.119 -0.4905 -0.3412 -0.0488
 6252SOL    HW119828   0.662   2.941   3.169  0.3178 -0.2111 -0.7296
 6252SOL    HW219829   0.527   3.010   3.169  0.0465 -0.6964  0.9070
 6253SOL     OW19830   6.171   3.182   1.300 -0.1974 -0.4993  0.1711
 6253SOL    HW119831   6.081   3.210   1.283 -0.2842 -0.9777 -0.2028
 6253SOL    HW219832   6.223   3.261   1.289 -0.4189 -0.4892 -0.9813
 6254SOL     OW19833   4.908   5.964   4.328  0.0106 -0.5191  0.8804
 6254SOL    HW119834   4.980   5.902   4.339  0.3017 -0.6013 -1.0952
 6254SOL    HW219835   4.830   5.909   4.315 -0.4195 -0.4299  2.7564
 6255SOL     OW19836   3.250   6.812   6.265  0.0977  0.3591 -0.3306
 6255SOL    HW119837   3.216   6.737   6.315  0.1737  0.5802  0.0529
 6255SOL    HW219838   3.256   6.779   6.175  1.4447 -0.5363  0.0549
 6256SOL     OW19839   3.233   7.376   2.756  0.0946  0.2880  0.6973
 6256SOL    HW119840   3.231   7.434   2.680 -1.1439 -0.3784  0.1996
 6256SOL    HW219841   3.162   7.406   2.811 -0.5193 -0.6965  0.4657
 6257SOL     OW19842   7.866   5.861   5.656  0.1000  0.6232 -0.0222
 6257SOL    HW119843   7.961   5.851   5.666  0.1202  0.9487  0.1308
 6257SOL    HW219844   7.828   5.809   5.726  0.1806  0.8823  0.2187
 6258SOL     OW19845   7.889   8.140   6.103  0.8246 -0.0322 -0.4417
 6258SOL    HW119846   7.943   8.179   6.173  0.5292 -0.5503  0.0801
 6258SOL    HW219847   7.814   8.199   6.095  1.8130  1.1151 -1.6932
 6259SOL     OW19848   2.386   7.847   4.004 -0.2982  0.0165 -0.2664
 6259SOL    HW119849   2.430   7.774   3.960 -0.0130 -0.1212  0.2398
 6259SOL    HW219850   2.295   7.840   3.976 -0.2015 -0.3193 -0.5051
 6260SOL     OW19851   2.237   7.694   3.072  0.2218 -0.0784  0.0612
 6260SOL    HW119852   2.157   7.652   3.039  0.8041 -0.7048 -0.5827
 6260SOL    HW219853   2.308   7.647   3.029  0.9821 -0.3504  1.5639
 6261SOL     OW19854   7.483   7.112   6.514  0.1121  0.2394  0.0420
 6261SOL    HW119855   7.505   7.163   6.435  0.3573 -0.1602 -0.1514
 6261SOL    HW219856   7.422   7.168   6.562  1.1518  1.1688  0.3405
 6262SOL     OW19857   8.150   7.302   0.708 -0.4985  0.1907 -0.2395
 6262SOL    HW119858   8.159   7.216   0.749 -0.3566  1.1068  1.7471
 6262SOL    HW219859   8.240   7.328   0.688 -0.5984 -0.4465 -1.6071
 6263SOL     OW19860   4.698   2.395   4.258 -0.0244  0.3007  0.2330
 6263SOL    HW119861   4.682   2.331   4.328  0.0389 -1.3471 -1.2025
 6263SOL    HW219862   4.613   2.406   4.216 -0.0663  1.3000  0.5569
 6264SOL     OW19863   1.166   2.150   6.922  0.2662  0.0220  0.1328
 6264SOL    HW119864   1.098   2.104   6.871 -0.9928  0.8035  1.0423
 6264SOL    HW219865   1.241   2.154   6.863 -0.4091 -1.0550 -0.8444
 6265SOL     OW19866   7.076   1.292   1.743 -0.4056 -0.0941 -0.1476
 6265SOL    HW119867   7.035   1.259   1.823  2.3180 -0.5546  1.1580
 6265SOL    HW219868   7.121   1.372   1.771  0.9291 -0.4855 -1.0866
 6266SOL     OW19869   3.989   7.161   0.722  0.1083  0.1963 -0.1988
 6266SOL    HW119870   4.049   7.136   0.652 -2.1220 -1.9490 -1.5110
 6266SOL    HW219871   3.906   7.178   0.678 -0.8666  0.8451  1.7461
 6267SOL     OW19872   6.494   4.534   2.640 -0.0604  0.1927  0.0444
 6267SOL    HW119873   6.562   4.539   2.707  1.6558 -0.2304 -1.5944
 6267SOL    HW219874   6.477   4.440   2.631  0.5972  0.1663 -0.9563
 6268SOL     OW19875   7.850   3.658   2.557  0.2322 -0.2332  0.3536
 6268SOL    HW119876   7.818   3.712   2.485 -0.8586 -1.3351 -0.0150
 6268SOL    HW219877   7.944   3.651   2.542  0.2723  0.8975 -0.0268
 6269SOL     OW19878   5.907   1.625   4.023  0.0020  0.0685 -0.2946
 6269SOL    HW119879   5.862   1.540   4.022  0.1488 -0.0226 -2.2102
 6269SOL    HW219880   5.997   1.605   4.049 -0.3390 -0.1176  0.8161
 6270SOL     OW19881   4.642   2.615   7.920  0.1936 -0.2186 -0.2691
 6270SOL    HW119882   4.596   2.537   7.950 -0.9970  1.0910  1.5701
 6270SOL    HW219883   4.640   2.609   7.824 -1.2833 -1.6514 -0.1990
 6271SOL     OW19884   0.453   7.250   3.444  0.2117  0.0558 -0.0183
 6271SOL    HW119885   0.471   7.340   3.470 -0.8911  1.2274 -2.8718
 6271SOL    HW219886   0.526   7.200   3.478  2.8665  2.6612 -1.4446
 6272SOL     OW19887   0.054   7.471   4.489  0.0534  0.4554 -0.3161
 6272SOL    HW119888   0.122   7.428   4.438 -1.2170 -0.3467 -1.4135
 6272SOL    HW219889   0.085   7.561   4.500  1.3551  0.0606 -0.6357
 6273SOL     OW19890   1.247   6.488   2.313 -0.3039 -0.2549 -0.2300
 6273SOL    HW119891   1.341   6.483   2.298 -0.3918 -0.1249 -0.8438
 6273SOL    HW219892   1.208   6.436   2.243 -0.7641  1.1540 -1.0491
 6274SOL     OW19893   0.450   2.822   1.787 -0.0276 -0.4771 -0.3170
 6274SOL    HW119894   0.448   2.727   1.779  0.4016 -0.3844 -1.7240
 6274SOL    HW219895   0.543   2.845   1.790 -0.1275 -0.1308  0.6341
 6275SOL     OW19896   5.491   2.760   5.613 -0.0942  0.1002 -0.1673
 6275SOL    HW119897   5.459   2.675   5.583  0.5242  0.2348 -1.2726
 6275SOL    HW219898   5.483   2.756   5.708 -1.2339 -0.7173 -0.2733
 6276SOL     OW19899   8.050   5.248   3.907  0.5243 -0.4446 -0.4466
 6276SOL    HW119900   8.033   5.307   3.980  0.0719 -1.4141  0.2439
 6276SOL    HW219901   7.995   5.282   3.836 -1.5466 -1.3479  0.6330
 6277SOL     OW19902   0.574   4.477   4.528  0.0405  0.1962  0.1326
 6277SOL    HW119903   0.540   4.398   4.487  1.1979 -0.5548  0.5705
 6277SOL    HW219904   0.594   4.451   4.618 -0.0331  1.1297  0.4372
 6278SOL     OW19905   1.583   4.347   5.043 -0.3571 -0.3744  0.1703
 6278SOL    HW119906   1.593   4.296   5.123  1.2916  0.9657  0.8688
 6278SOL    HW219907   1.664   4.334   4.995 -0.0416  1.2724  0.2051
 6279SOL     OW19908   0.536   5.308   6.800 -0.0669  0.0603 -0.2220
 6279SOL    HW119909   0.606   5.259   6.756  0.7212  0.3927  0.6446
 6279SOL    HW219910   0.484   5.344   6.728 -0.9690 -2.4257 -0.9079
 6280SOL     OW19911   5.343   5.326   3.355 -0.2021  0.2663 -0.2116
 6280SOL    HW119912   5.430   5.314   3.317  0.5393  1.2355  1.0928
 6280SOL    HW219913   5.358   5.326   3.450 -1.7317 -0.2671  0.0596
 6281SOL     OW19914   1.251   0.416   2.587  0.4811 -0.2295  0.5034
 6281SOL    HW119915   1.206   0.333   2.573 -1.5593  1.0145 -0.8235
 6281SOL    HW219916   1.330   0.393   2.636 -0.4568 -2.8148  0.9277
 6282SOL     OW19917   0.214   5.654   5.230  0.0602 -0.6132  0.0703
 6282SOL    HW119918   0.178   5.609   5.306 -0.3318  0.8436  0.7856
 6282SOL    HW219919   0.307   5.629   5.229  0.1449 -0.4168  1.2353
 6283SOL     OW19920   6.595   3.896   2.256  0.0725  0.1837 -0.2169
 6283SOL    HW119921   6.562   3.913   2.344  2.4160  0.1049  0.7434
 6283SOL    HW219922   6.533   3.940   2.198 -2.5141 -1.1986  1.2988
 6284SOL     OW19923   3.189   6.919   8.008 -0.1131 -0.3448  0.5297
 6284SOL    HW119924   3.144   6.993   8.050 -1.5489 -1.0283  0.2795
 6284SOL    HW219925   3.202   6.856   8.079  1.5929  0.3214  0.8560
 6285SOL     OW19926   2.614   1.128   4.899  0.2098  0.2822 -0.0818
 6285SOL    HW119927   2.572   1.122   4.985  1.0583  0.2281  0.3387
 6285SOL    HW219928   2.542   1.118   4.836 -0.3921  0.1356  0.6187
 6286SOL     OW19929   1.443   1.912   4.624  0.1249 -0.0397  0.5664
 6286SOL    HW119930   1.437   1.842   4.689 -2.3256  0.3671  0.8914
 6286SOL    HW219931   1.463   1.990   4.676  1.0725 -0.1905  0.4365
 6287SOL     OW19932   1.175   3.053   0.854  0.1473 -0.2326 -0.5790
 6287SOL    HW119933   1.191   2.972   0.903  0.8026 -0.7928 -1.6698
 6287SOL    HW219934   1.259   3.075   0.815 -0.1591  0.6751 -0.7568
 6288SOL     OW19935   5.107   5.205   6.565 -0.0352  0.2433 -0.3440
 6288SOL    HW119936   5.072   5.238   6.648 -1.3102 -0.7415 -0.4673
 6288SOL    HW219937   5.029   5.182   6.514  0.7460  0.4670 -1.6666
 6289SOL     OW19938   5.356   2.760   3.960 -0.2896 -0.1853 -0.1324
 6289SOL    HW119939   5.438   2.783   4.005 -0.9501  0.8315  0.6172
 6289SOL    HW219940   5.370   2.786   3.869  1.2269 -2.6651 -0.6728
 6290SOL     OW19941   0.345   2.778   1.447  0.1366 -0.2321  0.1389
 6290SOL    HW119942   0.342   2.725   1.367 -0.1973 -1.6681  1.0591
 6290SOL    HW219943   0.408   2.847   1.427 -2.0558  1.2399 -2.3899
 6291SOL     OW19944   6.447   8.121   7.537  0.3653 -0.1632 -0.3155
 6291SOL    HW119945   6.411   8.199   7.578 -1.3069 -0.8177 -0.4910
 6291SOL    HW219946   6.508   8.155   7.471  1.0419  0.9310  0.8216
 6292SOL     OW19947   6.859   1.970   0.734  0.0417 -0.1010  0.1221
 6292SOL    HW119948   6.811   1.887   0.725  2.2291 -1.3659 -0.6934
 6292SOL    HW219949   6.904   1.961   0.818 -1.0911  1.0829  0.8927
 6293SOL     OW19950   5.783   2.824   6.777 -0.0257  0.0886  0.0172
 6293SOL    HW119951   5.841   2.895   6.804  0.9749 -1.2212  1.4069
 6293SOL    HW219952   5.720   2.816   6.849  1.0743 -1.6945  0.8511
 6294SOL     OW19953   0.888   6.799   1.247  0.1843 -0.3853 -0.2918
 6294SOL    HW119954   0.872   6.706   1.265 -1.3742 -0.4534 -1.8028
 6294SOL    HW219955   0.805   6.842   1.265  1.1672  0.9191  1.3705
 6295SOL     OW19956   0.972   3.633   2.445 -0.2688 -0.0922 -0.0302
 6295SOL    HW119957   0.941   3.723   2.440 -1.0884 -0.3781 -0.3458
 6295SOL    HW219958   1.066   3.639   2.435 -0.5362  0.5268 -3.0563
 6296SOL     OW19959   0.743   5.497   8.157 -0.6893  0.0465 -0.2266
 6296SOL    HW119960   0.795   5.511   8.078 -0.9949  0.2354 -0.3979
 6296SOL    HW219961   0.766   5.409   8.186 -0.7514 -0.1137 -0.6596
 6297SOL     OW19962   5.920   5.159   1.609 -0.3139  0.1045 -0.0230
 6297SOL    HW119963   5.909   5.244   1.651  3.2323  1.3508 -1.2659
 6297SOL    HW219964   5.883   5.170   1.522  1.6090  1.0226 -0.7748
 6298SOL     OW19965   6.192   3.605   6.919  0.6744 -0.6210 -0.1330
 6298SOL    HW119966   6.159   3.641   6.836 -0.3105 -0.7829  0.1714
 6298SOL    HW219967   6.210   3.682   6.973 -0.2981 -0.5392  0.0942
 6299SOL     OW19968   6.872   0.900   4.296  0.0322 -0.1309 -0.1238
 6299SOL    HW119969   6.895   0.807   4.297 -0.0101 -0.1558 -0.9197
 6299SOL    HW219970   6.817   0.910   4.218 -2.0374  0.0776  1.2954
 6300SOL     OW19971   6.922   2.942   4.850 -1.0030  0.5430 -0.2850
 6300SOL    HW119972   6.909   2.858   4.893  1.7678  0.5389  0.8009
 6300SOL    HW219973   6.980   2.923   4.777 -0.5052  1.4569 -0.1479
 6301SOL     OW19974   1.467   3.779   7.736  0.2091 -0.1763  0.5595
 6301SOL    HW119975   1.393   3.839   7.725  0.0185 -0.6716 -1.2555
 6301SOL    HW219976   1.544   3.836   7.734 -0.0549  0.2188  1.1916
 6302SOL     OW19977   7.872   0.235   1.956 -0.5687  0.6187  0.3933
 6302SOL    HW119978   7.941   0.251   1.892 -0.3187 -2.7354 -0.3639
 6302SOL    HW219979   7.790   0.253   1.909 -0.3076  0.5388 -0.0928
 6303SOL     OW19980   6.624   1.803   8.026 -0.6884  0.6581 -0.0695
 6303SOL    HW119981   6.630   1.856   7.947 -1.7564  1.1233  0.1448
 6303SOL    HW219982   6.696   1.833   8.080 -0.4491  0.9183 -0.5264
 6304SOL     OW19983   3.598   7.180   5.707  0.1538  0.1286 -0.2147
 6304SOL    HW119984   3.635   7.253   5.755 -2.7370  1.6069 -0.0553
 6304SOL    HW219985   3.553   7.220   5.632  1.3623 -1.8052 -2.1064
 6305SOL     OW19986   3.193   2.347   5.096 -0.2000  0.2535 -0.4366
 6305SOL    HW119987   3.162   2.257   5.086 -0.4168  0.3575 -0.7051
 6305SOL    HW219988   3.271   2.351   5.040 -0.1130  0.1964 -0.3208
 6306SOL     OW19989   5.362   6.640   2.799 -0.0979 -0.1815 -0.3326
 6306SOL    HW119990   5.453   6.655   2.773  0.8475 -1.5493  1.9114
 6306SOL    HW219991   5.317   6.720   2.775  1.7677  0.6931 -1.1428
 6307SOL     OW19992   7.768   8.010   7.983  1.1170  0.5862  0.4519
 6307SOL    HW119993   7.858   7.991   8.006  0.6317  0.0099  1.9892
 6307SOL    HW219994   7.770   8.028   7.889  2.2023 -3.7808 -0.5875
 6308SOL     OW19995   5.826   6.405   1.477  0.6719 -0.6274 -0.1005
 6308SOL    HW119996   5.766   6.466   1.434  0.6965 -0.3600  0.2380
 6308SOL    HW219997   5.900   6.459   1.505  1.1248 -0.9726 -0.6114
 6309SOL     OW19998   3.215   2.457   1.441 -0.1053  0.5568  0.1423
 6309SOL    HW119999   3.305   2.425   1.453  0.3797  1.0416 -1.8768
 6309SOL    HW220000   3.171   2.435   1.523  1.9507  0.6445  1.3462
 6310SOL     OW20001   3.491   6.887   6.996 -0.3545  0.4284  0.1224
 6310SOL    HW120002   3.501   6.852   7.085  0.6352 -0.9798 -0.5071
 6310SOL    HW220003   3.427   6.829   6.955  0.0397  0.3696 -0.4230
 6311SOL     OW20004   3.978   7.492   0.424  0.1819  0.4409 -1.1526
 6311SOL    HW120005   3.885   7.514   0.432 -0.1885 -1.2728 -0.0758
 6311SOL    HW220006   4.001   7.516   0.335 -0.7224  2.8484 -0.7991
 6312SOL     OW20007   0.049   6.161   4.448 -0.1970 -0.0989 -0.5033
 6312SOL    HW120008   0.097   6.156   4.531  0.7281 -2.1344 -1.1121
 6312SOL    HW220009   0.048   6.255   4.427  0.0829  0.3884  1.4875
 6313SOL     OW20010   0.479   6.527   5.638  0.1591 -0.1163 -0.4528
 6313SOL    HW120011   0.449   6.436   5.647  0.4707 -0.2965 -1.1802
 6313SOL    HW220012   0.573   6.519   5.620  0.2752  0.3735 -0.0954
 6314SOL     OW20013   4.786   1.146   6.980  0.3670 -0.4270  0.2731
 6314SOL    HW120014   4.740   1.103   6.908  0.2911  0.7783 -0.4221
 6314SOL    HW220015   4.874   1.161   6.947  0.4668 -0.2752  0.6050
 6315SOL     OW20016   6.891   2.405   0.440 -0.3156  0.1146  0.1751
 6315SOL    HW120017   6.942   2.468   0.388  0.1672  1.0535  1.7331
 6315SOL    HW220018   6.874   2.333   0.379  0.9411  0.7930 -1.0473
 6316SOL     OW20019   2.563   5.293   0.880 -0.2589 -0.5513 -0.0596
 6316SOL    HW120020   2.484   5.299   0.934 -0.7770  0.8578 -0.9258
 6316SOL    HW220021   2.632   5.330   0.934 -0.6467  0.2426 -0.0878
 6317SOL     OW20022   4.534   0.347   7.032  0.5729  0.0409  0.4105
 6317SOL    HW120023   4.552   0.384   6.946 -0.1031  0.7245  0.5547
 6317SOL    HW220024   4.457   0.395   7.064  0.2800 -0.8102  1.0217
 6318SOL     OW20025   0.307   6.444   0.134 -0.1099 -0.1525  0.1146
 6318SOL    HW120026   0.250   6.515   0.164 -2.7561 -2.0112 -0.1136
 6318SOL    HW220027   0.281   6.430   0.043 -1.1463 -2.6325  0.7033
 6319SOL     OW20028   0.954   2.926   6.059  0.5841  0.1518  0.1169
 6319SOL    HW120029   0.970   3.016   6.085  2.7029  0.4999 -2.0838
 6319SOL    HW220030   1.035   2.879   6.080  0.2512 -0.7804 -0.5744
 6320SOL     OW20031   2.016   2.037   5.950 -0.3459  0.4126 -0.5868
 6320SOL    HW120032   2.069   2.023   5.872 -1.1924  0.3686 -1.1620
 6320SOL    HW220033   2.003   2.132   5.954  0.1666  0.4714 -0.1755
 6321SOL     OW20034   7.878   7.749   7.021  0.0616  0.2402  1.0374
 6321SOL    HW120035   7.945   7.774   6.958  0.2759 -1.6209  0.4735
 6321SOL    HW220036   7.818   7.823   7.023  0.7163  0.8465 -0.4299
 6322SOL     OW20037   7.474   7.468   4.411 -0.2189  0.1143  0.1197
 6322SOL    HW120038   7.442   7.505   4.329 -1.3557  0.3737  0.6558
 6322SOL    HW220039   7.523   7.539   4.452 -2.3441  1.0911  1.1196
 6323SOL     OW20040   7.472   0.837   5.275  0.6843  0.1818  0.1477
 6323SOL    HW120041   7.386   0.871   5.302  0.0575 -0.4480 -0.9789
 6323SOL    HW220042   7.496   0.776   5.344  1.1654  1.7928  1.4719
 6324SOL     OW20043   1.525   4.680   3.197  0.4713  0.4986 -0.0336
 6324SOL    HW120044   1.617   4.686   3.221  0.1819  0.2939  1.1676
 6324SOL    HW220045   1.489   4.613   3.255 -0.8076  1.7834  0.6884
 6325SOL     OW20046   3.976   5.235   1.577 -0.1485 -0.2460 -0.0399
 6325SOL    HW120047   3.977   5.324   1.614  0.3311  0.0629 -0.7781
 6325SOL    HW220048   4.063   5.200   1.597  0.6975  0.4921 -2.1779
 6326SOL     OW20049   3.674   5.334   0.126 -0.4322  0.2491 -0.0783
 6326SOL    HW120050   3.660   5.254   0.176 -1.6345  0.2443 -0.3889
 6326SOL    HW220051   3.680   5.305   0.035 -0.2901  0.4475 -0.1323
 6327SOL     OW20052   0.098   1.339   5.931 -0.2207 -1.3501 -0.4811
 6327SOL    HW120053   0.074   1.431   5.921  0.0082 -1.3835 -1.4353
 6327SOL    HW220054   0.190   1.341   5.959 -0.1089 -1.2900 -0.8461
 6328SOL     OW20055   1.657   7.999   6.321  0.6417 -0.0765  0.5739
 6328SOL    HW120056   1.627   8.084   6.353  1.4404  0.2152  0.5790
 6328SOL    HW220057   1.734   8.020   6.268 -2.0863 -0.2014 -3.9124
 6329SOL     OW20058   7.107   2.109   4.274  0.5811 -0.1444  0.2177
 6329SOL    HW120059   7.143   2.196   4.293 -2.3186  1.6340 -1.5390
 6329SOL    HW220060   7.107   2.064   4.358  0.9370  2.0621  1.4980
 6330SOL     OW20061   6.221   7.174   6.728  0.2287 -0.1751  0.5320
 6330SOL    HW120062   6.151   7.137   6.782 -2.9194  2.0607 -1.6567
 6330SOL    HW220063   6.247   7.254   6.775  0.2034 -0.2091  0.6044
 6331SOL     OW20064   4.547   2.475   3.927  0.3557  0.7414  0.0994
 6331SOL    HW120065   4.496   2.541   3.880  0.5781  1.6432  1.1011
 6331SOL    HW220066   4.499   2.459   4.008  1.8106  1.9266  1.2695
 6332SOL     OW20067   1.716   6.219   2.357 -0.1021  0.1777  0.6038
 6332SOL    HW120068   1.767   6.260   2.426  0.8535  1.3141 -0.7170
 6332SOL    HW220069   1.781   6.180   2.299 -0.8099  0.3510 -0.3270
 6333SOL     OW20070   2.245   1.237   5.622  0.2306 -0.5696  0.0590
 6333SOL    HW120071   2.250   1.161   5.679  0.6168 -1.0271 -0.5772
 6333SOL    HW220072   2.337   1.256   5.599  0.2087  0.5756  0.8541
 6334SOL     OW20073   7.900   1.099   6.311  0.5424 -0.1169  0.1473
 6334SOL    HW120074   7.823   1.087   6.256  0.2239  0.3691  0.4851
 6334SOL    HW220075   7.967   1.133   6.251 -0.2414  1.8565  0.3206
 6335SOL     OW20076   1.029   7.781   5.995  0.0316 -0.5923  0.0100
 6335SOL    HW120077   1.028   7.867   6.036  0.8495 -0.4261 -0.2937
 6335SOL    HW220078   0.938   7.753   5.995 -0.5111  0.9694 -1.3147
 6336SOL     OW20079   4.731   5.413   1.266 -0.6403  0.0467  0.3431
 6336SOL    HW120080   4.778   5.448   1.191 -1.0130  0.2463  0.1994
 6336SOL    HW220081   4.798   5.366   1.316 -0.0843  1.0713  0.6147
 6337SOL     OW20082   3.240   3.621   5.693  0.1283 -0.4503  0.1555
 6337SOL    HW120083   3.327   3.580   5.694  0.2802 -0.1307  1.1492
 6337SOL    HW220084   3.188   3.568   5.754 -0.9454 -1.7933 -1.8401
 6338SOL     OW20085   0.436   1.797   4.478 -0.1951 -0.7383  0.0962
 6338SOL    HW120086   0.426   1.737   4.552  1.3309 -0.4887  0.5502
 6338SOL    HW220087   0.396   1.879   4.508 -0.5124 -0.9404  0.2358
 6339SOL     OW20088   1.947   5.932   1.972  0.1465 -0.3496  0.1087
 6339SOL    HW120089   1.895   5.936   1.892 -1.0793 -0.2685  0.8877
 6339SOL    HW220090   1.989   6.018   1.978  1.1348 -0.7173 -0.9885
 6340SOL     OW20091   2.178   4.806   3.401  0.3510  0.5891 -0.1628
 6340SOL    HW120092   2.230   4.762   3.333 -0.6510 -0.3684 -0.3551
 6340SOL    HW220093   2.219   4.892   3.411 -0.3144  1.3683 -3.0415
 6341SOL     OW20094   1.358   7.826   6.267 -0.2324  0.2669 -0.5268
 6341SOL    HW120095   1.414   7.858   6.338  0.0978 -1.6919  0.1735
 6341SOL    HW220096   1.278   7.796   6.310 -0.9744  1.1054 -1.2748
 6342SOL     OW20097   3.784   8.137   4.522 -0.1261  0.2647 -0.3303
 6342SOL    HW120098   3.696   8.137   4.560  0.0754 -0.2729  0.1508
 6342SOL    HW220099   3.770   8.109   4.431 -0.3585 -0.8248  0.0194
 6343SOL     OW20100   7.537   5.715   5.544  0.4261 -0.0686  0.0939
 6343SOL    HW120101   7.632   5.709   5.533  0.4168  1.8717 -2.0499
 6343SOL    HW220102   7.524   5.778   5.615  0.7599 -0.2448  0.3068
 6344SOL     OW20103   4.413   5.956   7.418  0.0174 -0.0617  0.3898
 6344SOL    HW120104   4.417   5.866   7.385  0.5819 -0.2387  0.9298
 6344SOL    HW220105   4.353   5.952   7.492 -0.4566  0.1392  0.0226
 6345SOL     OW20106   2.519   6.997   6.899 -0.0507 -0.6942  0.0546
 6345SOL    HW120107   2.523   7.062   6.969  0.7105 -1.8096  1.0979
 6345SOL    HW220108   2.552   7.042   6.822 -1.2664  0.6794  0.2956
 6346SOL     OW20109   6.194   7.173   4.465 -0.3083  0.4607  0.5368
 6346SOL    HW120110   6.243   7.248   4.433 -0.8815  2.3893  3.6893
 6346SOL    HW220111   6.121   7.164   4.404 -0.6808  3.0689  0.4937
 6347SOL     OW20112   4.735   4.956   5.505  0.3525 -0.2037 -0.3583
 6347SOL    HW120113   4.741   5.049   5.484  1.1343 -0.0129  0.6697
 6347SOL    HW220114   4.689   4.918   5.430 -2.2344  1.3698  0.3159
 6348SOL     OW20115   1.371   7.647   7.621  0.1885 -0.8230  0.3122
 6348SOL    HW120116   1.405   7.576   7.567  0.6587 -0.1981 -0.2270
 6348SOL    HW220117   1.441   7.712   7.622  0.1928 -0.8276  1.6968
 6349SOL     OW20118   6.692   7.977   4.340 -0.2499  0.3933 -0.8280
 6349SOL    HW120119   6.610   8.026   4.340  0.3041  1.3409 -0.6523
 6349SOL    HW220120   6.749   8.026   4.281  0.7240  0.6825  0.3102
 6350SOL     OW20121   2.392   6.995   2.884  0.7356 -0.1288 -0.3267
 6350SOL    HW120122   2.408   7.089   2.890  1.9417 -0.2280 -1.5505
 6350SOL    HW220123   2.333   6.985   2.809  0.7333 -0.3554 -0.2966
 6351SOL     OW20124   0.095   5.621   2.299  0.1200 -0.1476  0.0884
 6351SOL    HW120125   0.062   5.602   2.387  2.6951  0.1076  1.1875
 6351SOL    HW220126   0.110   5.535   2.260  0.0797 -0.2747  0.3488
 6352SOL     OW20127   2.770   2.075   7.865  0.1791 -0.7588  0.2289
 6352SOL    HW120128   2.828   2.000   7.849 -0.1811 -0.8229 -0.8091
 6352SOL    HW220129   2.706   2.071   7.795  1.1527  1.5087 -0.8664
 6353SOL     OW20130   4.140   7.022   7.343 -0.0533  0.1226 -0.3222
 6353SOL    HW120131   4.173   7.062   7.424 -0.8785  0.7968 -0.3143
 6353SOL    HW220132   4.125   6.930   7.367  1.6699 -0.1887 -0.2909
 6354SOL     OW20133   2.363   5.904   4.052  0.8642  0.5549 -0.1933
 6354SOL    HW120134   2.363   5.995   4.023  2.8411  0.6677  0.0699
 6354SOL    HW220135   2.405   5.856   3.980 -0.1764 -0.1742 -0.3374
 6355SOL     OW20136   1.763   6.780   7.675  0.2241 -0.0024 -0.8665
 6355SOL    HW120137   1.788   6.801   7.585  0.9942  3.3602  0.0177
 6355SOL    HW220138   1.683   6.830   7.690  0.2347 -0.3345  0.4093
 6356SOL     OW20139   2.948   2.248   6.073  0.5231  0.3724  0.5775
 6356SOL    HW120140   2.925   2.156   6.059  2.4164 -0.0802  0.1745
 6356SOL    HW220141   2.887   2.297   6.018  0.9034 -0.7879 -0.9536
 6357SOL     OW20142   0.983   6.562   3.451 -0.2401 -0.0846 -0.0238
 6357SOL    HW120143   0.970   6.639   3.396  2.5518  0.1800 -0.4514
 6357SOL    HW220144   0.909   6.563   3.512 -0.2739  2.9830  0.0415
 6358SOL     OW20145   5.476   2.771   6.454  0.0926 -0.1892  0.6527
 6358SOL    HW120146   5.386   2.776   6.422  0.5301  0.7296 -0.5300
 6358SOL    HW220147   5.514   2.698   6.405  0.2718  0.0870  0.3763
 6359SOL     OW20148   6.655   0.778   4.155 -0.4220  0.2754 -0.5685
 6359SOL    HW120149   6.587   0.846   4.152 -1.5923 -0.5717  2.5882
 6359SOL    HW220150   6.606   0.697   4.171  1.1981 -0.7403 -0.5512
 6360SOL     OW20151   3.849   2.847   6.056 -0.5810 -0.1993  0.6319
 6360SOL    HW120152   3.924   2.789   6.065  1.2566  1.8822 -0.1676
 6360SOL    HW220153   3.809   2.849   6.143  0.1079 -1.5734  1.0070
 6361SOL     OW20154   3.895   5.097   2.697 -0.0486 -0.0803 -1.3764
 6361SOL    HW120155   3.895   5.129   2.607  0.9507  0.7840 -1.0940
 6361SOL    HW220156   3.852   5.167   2.747 -0.3660 -0.4373 -1.1442
 6362SOL     OW20157   0.593   4.082   5.250  0.4963 -0.3224 -0.3377
 6362SOL    HW120158   0.670   4.135   5.270  0.5802 -0.0923 -1.1988
 6362SOL    HW220159   0.555   4.060   5.335  1.0614  0.2344  0.0645
 6363SOL     OW20160   6.211   2.720   0.190 -0.5840 -0.1166 -0.0028
 6363SOL    HW120161   6.215   2.644   0.249  0.0029 -0.3280 -0.3070
 6363SOL    HW220162   6.158   2.784   0.237  2.0294  0.7672  1.9622
 6364SOL     OW20163   7.445   2.569   7.949  0.2565  0.1002  0.0666
 6364SOL    HW120164   7.451   2.478   7.976 -2.4443 -0.6732 -1.5352
 6364SOL    HW220165   7.526   2.587   7.902  1.0808 -1.2448  0.9131
 6365SOL     OW20166   5.197   1.582   0.663  0.3527 -0.3295  0.6477
 6365SOL    HW120167   5.123   1.625   0.621  0.4661 -0.9860 -0.2581
 6365SOL    HW220168   5.229   1.520   0.597  3.0848  1.4648  0.1242
 6366SOL     OW20169   2.202   1.093   5.126 -0.0520  0.0358 -0.5368
 6366SOL    HW120170   2.167   1.140   5.051  0.5089 -0.0774 -0.8762
 6366SOL    HW220171   2.129   1.041   5.159 -1.2354  2.4384  0.9360
 6367SOL     OW20172   7.884   5.191   6.433 -0.3389  0.1928  0.1219
 6367SOL    HW120173   7.932   5.113   6.462 -0.0687  0.2845 -0.0710
 6367SOL    HW220174   7.792   5.168   6.443 -0.2859 -0.5286 -0.8901
 6368SOL     OW20175   1.699   7.760   7.986  0.0434  0.4037 -0.1296
 6368SOL    HW120176   1.656   7.749   8.070 -0.5092  0.9121 -0.3377
 6368SOL    HW220177   1.644   7.823   7.939  1.7264  2.1416  0.1131
 6369SOL     OW20178   0.635   7.391   4.853 -0.6054 -0.5898  0.0594
 6369SOL    HW120179   0.555   7.352   4.887  0.1418 -1.3984  0.9334
 6369SOL    HW220180   0.636   7.480   4.889 -1.2936 -0.4469 -0.2679
 6370SOL     OW20181   4.088   4.646   1.834 -0.5322 -0.5874  0.6558
 6370SOL    HW120182   4.108   4.552   1.834  0.1301 -0.4543  0.1345
 6370SOL    HW220183   4.008   4.654   1.782 -1.0222 -0.9387  1.3367
 6371SOL     OW20184   5.639   3.281   4.273 -0.1250 -0.0591  0.6493
 6371SOL    HW120185   5.634   3.329   4.190 -0.6519  0.2890  0.8737
 6371SOL    HW220186   5.548   3.271   4.300 -0.1931 -2.7448 -0.2510
 6372SOL     OW20187   8.105   1.495   7.030  0.0178  0.2452  0.1552
 6372SOL    HW120188   8.014   1.517   7.012 -0.4061 -1.9248 -0.6484
 6372SOL    HW220189   8.149   1.580   7.040 -2.3876  1.3619  2.4195
 6373SOL     OW20190   4.102   2.009   5.067  0.0146  0.1061 -0.6631
 6373SOL    HW120191   4.150   2.026   4.986 -0.4523 -1.5419 -1.3365
 6373SOL    HW220192   4.165   2.025   5.136  0.6134  0.9293 -1.3755
 6374SOL     OW20193   5.145   3.836   2.058 -0.3875  0.1713  0.3202
 6374SOL    HW120194   5.230   3.792   2.045 -0.7346  0.1264 -2.7150
 6374SOL    HW220195   5.092   3.806   1.984 -2.5713  1.3606  1.3160
 6375SOL     OW20196   1.273   4.174   0.025 -0.3112 -0.7049  0.3547
 6375SOL    HW120197   1.204   4.131   0.075 -0.1578 -0.2692  0.9522
 6375SOL    HW220198   1.307   4.241   0.084  1.6753 -1.9080  0.6548
 6376SOL     OW20199   3.138   2.761   4.169 -0.3151  0.5746 -0.2459
 6376SOL    HW120200   3.211   2.747   4.229 -1.2440 -1.8185  0.4268
 6376SOL    HW220201   3.123   2.856   4.172  0.6727  0.7370  2.1145
 6377SOL     OW20202   6.569   1.031   0.643 -0.7279 -0.2008  0.6664
 6377SOL    HW120203   6.558   0.973   0.568 -1.4371 -0.3951  0.9215
 6377SOL    HW220204   6.631   1.098   0.611 -1.1501 -0.1790 -0.1471
 6378SOL     OW20205   6.579   6.186   3.247 -0.1959 -0.0351  0.3537
 6378SOL    HW120206   6.597   6.172   3.154  0.0395 -2.5595  0.7196
 6378SOL    HW220207   6.495   6.231   3.248  0.5466  1.5221 -1.0792
 6379SOL     OW20208   2.156   4.003   5.842 -0.4250 -0.2042  0.2635
 6379SOL    HW120209   2.251   4.000   5.847 -0.4382 -1.8978  0.1510
 6379SOL    HW220210   2.136   3.984   5.750 -0.8761 -0.0270  0.3199
 6380SOL     OW20211   5.425   5.790   7.896 -0.8262  0.3325  0.4010
 6380SOL    HW120212   5.516   5.784   7.925 -0.5644  0.1137 -0.4128
 6380SOL    HW220213   5.421   5.872   7.846 -0.8780 -0.0404 -0.2144
 6381SOL     OW20214   5.011   0.637   2.480 -0.4260  0.4708 -0.2661
 6381SOL    HW120215   4.988   0.704   2.415 -0.0212 -0.2286 -1.1546
 6381SOL    HW220216   5.094   0.667   2.516 -1.2713  1.5215  0.8760
 6382SOL     OW20217   7.618   1.331   7.495  0.3217 -0.5957 -0.0527
 6382SOL    HW120218   7.677   1.286   7.555  0.5215  0.6076  0.6911
 6382SOL    HW220219   7.543   1.356   7.550 -1.3431 -2.8413 -1.1512
 6383SOL     OW20220   7.087   2.252   6.800 -0.2116  0.3024 -0.0147
 6383SOL    HW120221   7.021   2.269   6.867  0.0199 -0.6878  0.4926
 6383SOL    HW220222   7.156   2.316   6.817 -1.5647  2.2090 -1.3510
 6384SOL     OW20223   4.324   2.778   3.205  0.1229  0.4956 -0.6306
 6384SOL    HW120224   4.329   2.702   3.147  1.1286 -0.1267  0.2233
 6384SOL    HW220225   4.382   2.756   3.278 -0.0308  1.8397 -0.0708
 6385SOL     OW20226   3.459   3.214   1.279  0.1784 -0.2770 -0.1118
 6385SOL    HW120227   3.377   3.251   1.245  0.0783  0.0483  0.4685
 6385SOL    HW220228   3.511   3.195   1.201 -0.9588 -1.7011 -0.5624
 6386SOL     OW20229   0.607   4.469   5.012  0.1439  0.0839  0.6178
 6386SOL    HW120230   0.562   4.553   5.008 -0.5599 -0.3254 -1.0434
 6386SOL    HW220231   0.544   4.409   5.052  0.2389  0.1071  0.8029
 6387SOL     OW20232   5.507   1.118   7.649  0.1142  0.4142 -0.3960
 6387SOL    HW120233   5.497   1.069   7.568 -0.9937  2.0772 -1.3284
 6387SOL    HW220234   5.479   1.058   7.718  0.5628 -0.8415 -1.2780
 6388SOL     OW20235   2.968   2.826   2.964 -0.1902 -0.1405 -0.8476
 6388SOL    HW120236   3.010   2.880   2.897 -0.8468  0.4801 -0.7596
 6388SOL    HW220237   3.038   2.767   2.994  0.5554  0.7211 -0.8651
 6389SOL     OW20238   6.652   7.273   0.926 -0.4386 -0.2728  0.0390
 6389SOL    HW120239   6.713   7.213   0.967  0.1241  1.0437  1.2283
 6389SOL    HW220240   6.640   7.343   0.991 -0.2945  1.4036 -1.6341
 6390SOL     OW20241   6.274   1.527   7.184 -0.2569 -0.6605 -0.2394
 6390SOL    HW120242   6.297   1.475   7.261 -0.6089 -0.3080  0.1059
 6390SOL    HW220243   6.309   1.476   7.110  1.0228 -0.4754  0.2130
 6391SOL     OW20244   5.029   2.662   6.723 -0.5588  0.3436 -0.0626
 6391SOL    HW120245   4.950   2.619   6.689 -1.4219  0.3947  1.7855
 6391SOL    HW220246   5.024   2.752   6.689 -1.3183  0.3513  0.0547
 6392SOL     OW20247   2.353   4.506   4.670 -0.3135 -0.0491 -0.2196
 6392SOL    HW120248   2.360   4.459   4.587  0.8286  1.5863 -1.0964
 6392SOL    HW220249   2.436   4.487   4.715  0.1272  1.0599 -0.5529
 6393SOL     OW20250   7.988   7.933   7.488  0.3147  0.1552 -0.1824
 6393SOL    HW120251   8.029   7.846   7.492 -3.2336 -1.7367 -0.4529
 6393SOL    HW220252   8.017   7.969   7.404  0.1022 -1.8063 -1.1551
 6394SOL     OW20253   6.907   5.129   7.562 -0.2769 -0.2830 -0.3891
 6394SOL    HW120254   6.947   5.119   7.476 -0.4554 -0.4250 -0.4558
 6394SOL    HW220255   6.975   5.169   7.616 -0.4310  0.5716 -0.8045
 6395SOL     OW20256   1.002   4.081   6.522  0.1418  0.1034 -0.3315
 6395SOL    HW120257   1.092   4.066   6.494  0.5464  1.8924 -0.1017
 6395SOL    HW220258   0.998   4.175   6.539 -1.0979 -0.2994  1.9747
 6396SOL     OW20259   3.568   2.760   1.719 -0.4601  0.1682  0.7143
 6396SOL    HW120260   3.505   2.691   1.698  1.2535 -0.6844 -2.2061
 6396SOL    HW220261   3.514   2.839   1.730 -2.1634 -0.7512 -0.5599
 6397SOL     OW20262   1.827   3.324   3.805  0.6220  0.4731 -0.0118
 6397SOL    HW120263   1.823   3.230   3.824 -0.0748  0.4098 -0.4205
 6397SOL    HW220264   1.836   3.328   3.710 -0.8201  0.8236 -0.1550
 6398SOL     OW20265   3.975   1.542   4.350  0.3888  0.0732  0.1305
 6398SOL    HW120266   3.966   1.628   4.390  1.4593 -0.2884  1.2158
 6398SOL    HW220267   3.898   1.493   4.380  0.0768  0.4541 -0.0302
 6399SOL     OW20268   0.879   0.713   7.066  0.1677  0.4072  0.0824
 6399SOL    HW120269   0.970   0.682   7.067  0.6817  1.8465 -0.1047
 6399SOL    HW220270   0.885   0.804   7.035 -1.5947 -0.2045 -2.2963
 6400SOL     OW20271   5.380   6.354   4.183 -0.4254  0.5895 -0.6167
 6400SOL    HW120272   5.292   6.351   4.219  0.3010 -2.2469  1.2960
 6400SOL    HW220273   5.433   6.307   4.247  2.2101  0.8309 -2.4596
 6401SOL     OW20274   7.316   6.203   0.560  0.0489  0.1623 -0.8059
 6401SOL    HW120275   7.312   6.140   0.632  2.6368 -0.6507 -1.2875
 6401SOL    HW220276   7.226   6.235   0.552 -0.8745 -1.7293  0.9760
 6402SOL     OW20277   4.153   3.553   4.824  0.1917 -0.0110  0.1124
 6402SOL    HW120278   4.241   3.590   4.825 -0.7513  2.4408 -0.9191
 6402SOL    HW220279   4.097   3.623   4.859 -1.7840 -0.1037 -2.5684
 6403SOL     OW20280   8.113   3.610   2.616  0.0405  0.0198 -0.2435
 6403SOL    HW120281   8.126   3.560   2.697  0.3486  0.0567 -0.2655
 6403SOL    HW220282   8.199   3.606   2.573  0.2206  0.9863 -0.0009
 6404SOL     OW20283   3.193   4.077   5.427 -0.2895 -0.2544  0.6343
 6404SOL    HW120284   3.177   4.022   5.350  1.2890  0.0138  0.0768
 6404SOL    HW220285   3.166   4.023   5.501 -0.4589 -1.0835 -0.0126
 6405SOL     OW20286   6.253   5.576   5.149 -0.0836  0.8506 -0.6333
 6405SOL    HW120287   6.162   5.601   5.167  0.4037  1.8822  0.4935
 6405SOL    HW220288   6.246   5.488   5.112 -1.5351  0.8495 -0.4226
 6406SOL     OW20289   3.691   3.040   6.781  0.4367  0.3055 -0.2925
 6406SOL    HW120290   3.772   2.997   6.753  0.1938  0.5244 -1.3678
 6406SOL    HW220291   3.721   3.123   6.820  0.8116 -0.2369  0.6199
 6407SOL     OW20292   2.646   0.814   6.910  0.5132  0.1214  0.2473
 6407SOL    HW120293   2.732   0.793   6.873  1.0125  0.7899  0.9936
 6407SOL    HW220294   2.661   0.819   7.004  0.4811  3.6545  0.2116
 6408SOL     OW20295   3.455   4.305   6.613  0.1467  0.2459  0.0523
 6408SOL    HW120296   3.391   4.237   6.631  0.6128  0.0212  0.9378
 6408SOL    HW220297   3.535   4.275   6.657  1.1900 -0.0177 -1.9165
 6409SOL     OW20298   6.278   4.067   3.771 -0.5472 -0.3192 -0.2759
 6409SOL    HW120299   6.275   3.972   3.778  0.5845 -0.2963  1.1527
 6409SOL    HW220300   6.301   4.097   3.860  1.3515  1.1356 -1.1841
 6410SOL     OW20301   5.652   6.846   6.403 -0.2519  0.4693 -0.0455
 6410SOL    HW120302   5.669   6.939   6.413 -3.2589  0.8573  3.3938
 6410SOL    HW220303   5.566   6.842   6.360  0.4151 -0.8288 -1.3572
 6411SOL     OW20304   5.336   7.666   3.924  0.2720 -0.0041  0.0149
 6411SOL    HW120305   5.404   7.623   3.871  0.3644  0.4527 -0.2431
 6411SOL    HW220306   5.254   7.626   3.894  0.3839 -0.2135 -0.0138
 6412SOL     OW20307   1.929   5.665   2.122  0.1613  0.1526  0.3157
 6412SOL    HW120308   1.846   5.631   2.087 -0.7229  0.3098  2.1371
 6412SOL    HW220309   1.945   5.745   2.073 -1.5224  0.8516  0.8345
 6413SOL     OW20310   2.299   6.263   4.732 -0.2374  0.3115 -0.9867
 6413SOL    HW120311   2.217   6.231   4.694 -0.1741  0.3200 -1.1307
 6413SOL    HW220312   2.354   6.185   4.741 -1.0172 -0.0776  1.0743
 6414SOL     OW20313   0.312   2.706   6.044  0.0912  0.6376  0.7240
 6414SOL    HW120314   0.322   2.775   6.109 -0.1170 -0.9269  2.5218
 6414SOL    HW220315   0.223   2.674   6.056  0.8096 -1.2819  1.4316
 6415SOL     OW20316   4.611   6.434   6.578 -0.0548  0.1144  0.1491
 6415SOL    HW120317   4.693   6.431   6.627 -0.1577  1.1489  0.4058
 6415SOL    HW220318   4.625   6.374   6.504 -0.2364 -2.2337  1.9096
 6416SOL     OW20319   7.149   8.089   2.968 -0.1095  0.8387  0.3318
 6416SOL    HW120320   7.098   8.044   3.035  0.8176  2.3121  2.1100
 6416SOL    HW220321   7.101   8.171   2.953 -0.1409  0.6613 -0.6176
 6417SOL     OW20322   4.441   4.620   0.688  0.6220 -0.4708 -0.0381
 6417SOL    HW120323   4.505   4.562   0.645  0.6955 -1.3317  1.1750
 6417SOL    HW220324   4.356   4.583   0.665  0.6440 -0.6398  0.1513
 6418SOL     OW20325   0.540   4.071   7.043  0.0820  0.2123  0.0999
 6418SOL    HW120326   0.528   4.117   6.960  0.1253  1.8504  0.9747
 6418SOL    HW220327   0.515   3.980   7.023 -1.3280  0.8644 -1.3191
 6419SOL     OW20328   2.603   3.390   2.166 -0.5454 -0.1473 -0.3264
 6419SOL    HW120329   2.577   3.418   2.078  0.4255  1.2321 -0.1948
 6419SOL    HW220330   2.566   3.456   2.225  0.4408  0.0177  0.1280
 6420SOL     OW20331   1.910   4.877   7.808 -0.4011  0.3155  0.4087
 6420SOL    HW120332   1.859   4.881   7.889  1.4608  2.0282  1.5865
 6420SOL    HW220333   1.909   4.784   7.784 -1.8097 -0.0827  1.8315
 6421SOL     OW20334   5.683   7.718   1.849 -0.6478 -0.3566 -0.7056
 6421SOL    HW120335   5.603   7.760   1.817 -0.6275  0.2620  0.0278
 6421SOL    HW220336   5.730   7.788   1.893 -0.5029 -1.0971  0.3427
 6422SOL     OW20337   4.890   2.487   5.398  0.1229  0.2434  0.4262
 6422SOL    HW120338   4.909   2.500   5.305 -0.7716  2.4549  0.4910
 6422SOL    HW220339   4.970   2.512   5.443 -0.1125  1.1843  0.3304
 6423SOL     OW20340   3.512   2.558   6.172  0.4200 -0.0228 -0.2680
 6423SOL    HW120341   3.451   2.514   6.232  2.4342 -1.1398  1.0690
 6423SOL    HW220342   3.512   2.504   6.093  1.3850 -1.3800  0.6206
 6424SOL     OW20343   7.298   8.008   0.972  0.4451 -0.4521 -0.1737
 6424SOL    HW120344   7.369   8.063   0.937  0.2107  1.6274  2.3310
 6424SOL    HW220345   7.221   8.034   0.922  0.6259  0.5418  0.0305
 6425SOL     OW20346   2.852   3.707   1.781  0.3879  0.2079  0.1694
 6425SOL    HW120347   2.932   3.654   1.787 -0.6089 -1.2822  1.0178
 6425SOL    HW220348   2.834   3.732   1.872  1.5395  3.2050 -0.3208
 6426SOL     OW20349   6.875   3.637   5.133 -0.1533  0.3469  0.3352
 6426SOL    HW120350   6.846   3.671   5.217  0.5604  1.7575  0.0325
 6426SOL    HW220351   6.796   3.632   5.080 -0.5273 -0.0939  0.9170
 6427SOL     OW20352   8.109   2.669   5.407  0.2130 -0.5868 -0.0725
 6427SOL    HW120353   8.029   2.655   5.356  0.8276  1.3222 -1.6838
 6427SOL    HW220354   8.180   2.647   5.346  0.9602 -1.9352  1.2297
 6428SOL     OW20355   5.016   6.795   8.038 -0.3093 -0.1492 -0.1896
 6428SOL    HW120356   5.059   6.730   8.093  1.1178 -1.0305 -2.1902
 6428SOL    HW220357   4.932   6.811   8.080  1.0729  0.0042  2.7296
 6429SOL     OW20358   4.281   1.416   0.725 -0.2402 -0.1933 -0.5135
 6429SOL    HW120359   4.214   1.350   0.743 -0.8305  0.4900 -0.1724
 6429SOL    HW220360   4.360   1.382   0.769 -0.4220 -0.8815 -0.7126
 6430SOL     OW20361   2.481   7.240   4.541 -0.2112 -0.0777  0.0487
 6430SOL    HW120362   2.512   7.287   4.618 -2.4006  1.1405  0.2812
 6430SOL    HW220363   2.458   7.153   4.574  0.7963 -0.2616  0.3059
 6431SOL     OW20364   2.444   4.982   0.443 -0.3080 -0.3110 -0.4093
 6431SOL    HW120365   2.473   5.011   0.530  0.0630 -2.3314  0.1900
 6431SOL    HW220366   2.350   5.001   0.442 -0.0428  1.1305 -0.1861
 6432SOL     OW20367   7.409   3.830   6.196  0.7660 -0.0203  0.1736
 6432SOL    HW120368   7.340   3.798   6.138  1.8952 -0.0123 -1.2290
 6432SOL    HW220369   7.362   3.879   6.264 -0.5432  1.0770 -1.4347
 6433SOL     OW20370   4.474   7.136   1.530 -0.9222  0.1917 -0.7532
 6433SOL    HW120371   4.535   7.074   1.569  0.0434  0.5279 -1.6629
 6433SOL    HW220372   4.460   7.202   1.598 -0.4058  0.0119 -0.4679
 6434SOL     OW20373   0.068   4.057   7.425  0.5130  0.2958 -0.5600
 6434SOL    HW120374   0.031   3.985   7.477  1.2081 -0.2772 -0.8321
 6434SOL    HW220375  -0.007   4.111   7.403 -0.2326 -1.0121 -1.3764
 6435SOL     OW20376   2.081   8.013   0.609  0.3003  0.0623  0.1610
 6435SOL    HW120377   2.060   8.087   0.666  1.6711  1.3884 -0.9434
 6435SOL    HW220378   2.046   8.039   0.523  2.5872  0.4533 -0.7334
 6436SOL     OW20379   1.836   5.078   2.303  0.2987  0.1848 -0.1086
 6436SOL    HW120380   1.926   5.060   2.331  0.2576  1.2084  0.7406
 6436SOL    HW220381   1.841   5.083   2.208  0.5197 -3.0115 -0.3654
 6437SOL     OW20382   0.728   3.693   5.908 -0.4542 -0.5697  0.1128
 6437SOL    HW120383   0.758   3.783   5.890  0.8302 -1.3048 -1.6988
 6437SOL    HW220384   0.808   3.641   5.908 -1.3828 -2.0735 -1.2046
 6438SOL     OW20385   6.890   7.301   1.239  0.5427  0.1640 -0.0515
 6438SOL    HW120386   6.921   7.373   1.185 -1.2578  0.1705 -1.1449
 6438SOL    HW220387   6.959   7.288   1.304  1.6279  1.7879 -0.8311
 6439SOL     OW20388   2.457   4.281   1.343 -0.1307  1.1613 -0.0471
 6439SOL    HW120389   2.430   4.346   1.278  2.6029  2.2405 -0.2447
 6439SOL    HW220390   2.546   4.307   1.367 -0.8658  0.6310  3.9384
 6440SOL     OW20391   5.958   3.221   0.582 -0.2579  0.4611 -0.1826
 6440SOL    HW120392   6.019   3.215   0.656 -0.0518  0.3910 -0.3584
 6440SOL    HW220393   5.927   3.312   0.585 -0.1849  0.4825 -0.0604
 6441SOL     OW20394   1.878   4.271   6.124 -0.1803  0.1390  0.0654
 6441SOL    HW120395   1.956   4.220   6.145 -0.3077 -0.7061 -1.4319
 6441SOL    HW220396   1.908   4.337   6.062 -0.4871  0.4258  0.2137
 6442SOL     OW20397   1.820   8.151   6.561  0.2312 -0.0102  0.2186
 6442SOL    HW120398   1.860   8.065   6.569 -0.4871 -0.4341 -0.5676
 6442SOL    HW220399   1.893   8.210   6.543  0.7870 -0.3678  1.2350
 6443SOL     OW20400   4.232   0.305   7.692  0.5161 -0.1390  0.5212
 6443SOL    HW120401   4.288   0.292   7.768  0.5068 -0.8397  0.4218
 6443SOL    HW220402   4.282   0.267   7.619  0.6714  0.8286  0.1158
 6444SOL     OW20403   2.626   5.039   4.186 -0.1783 -0.5749 -0.0729
 6444SOL    HW120404   2.633   5.035   4.091  1.1519 -3.3834  0.0448
 6444SOL    HW220405   2.713   5.066   4.216 -0.8906  1.4080  0.3876
 6445SOL     OW20406   1.016   5.517   0.344 -0.1786 -0.0648  0.3522
 6445SOL    HW120407   0.926   5.500   0.374 -0.3254 -1.8088 -0.9343
 6445SOL    HW220408   1.006   5.579   0.272 -0.7154 -2.3339 -1.6556
 6446SOL     OW20409   3.163   4.644   7.842  0.6033 -0.5213  0.3884
 6446SOL    HW120410   3.082   4.598   7.824  1.4622 -2.0524  0.2552
 6446SOL    HW220411   3.202   4.598   7.916 -0.2294  2.2953  2.7712
 6447SOL     OW20412   6.181   4.827   8.124  0.4117 -0.2966  0.3008
 6447SOL    HW120413   6.131   4.752   8.094  0.6648 -0.3507  0.0104
 6447SOL    HW220414   6.260   4.790   8.163  0.0631 -0.2308  1.0948
 6448SOL     OW20415   2.569   4.726   5.439 -0.0497 -0.4530  0.6685
 6448SOL    HW120416   2.529   4.809   5.464  2.0511  0.8121  0.1699
 6448SOL    HW220417   2.633   4.750   5.372 -0.2569 -2.6779 -0.4090
 6449SOL     OW20418   6.167   2.171   1.280  0.7898 -0.1279  0.0874
 6449SOL    HW120419   6.134   2.218   1.204  1.1627  1.0120  0.6057
 6449SOL    HW220420   6.193   2.085   1.246  1.0806  0.4097 -1.0913
 6450SOL     OW20421   2.068   3.270   8.109 -0.4861  0.2217 -0.1592
 6450SOL    HW120422   1.975   3.273   8.133 -0.6420 -0.1201 -0.6926
 6450SOL    HW220423   2.106   3.205   8.169 -0.7873 -0.3337 -0.5578
 6451SOL     OW20424   1.358   1.606   4.967 -0.2162 -0.0149  0.3691
 6451SOL    HW120425   1.321   1.548   4.900  0.3334 -0.1719  0.1925
 6451SOL    HW220426   1.429   1.555   5.006 -0.1918  0.2756  0.7096
 6452SOL     OW20427   4.530   1.223   6.624 -0.5266  0.0289 -0.2349
 6452SOL    HW120428   4.546   1.204   6.532 -1.2321  1.0066 -0.5721
 6452SOL    HW220429   4.518   1.317   6.628 -0.4695  0.0091  0.8701
 6453SOL     OW20430   1.304   2.487   7.547  0.0907 -0.7072  0.0403
 6453SOL    HW120431   1.248   2.425   7.594  0.7430 -1.1364  0.2720
 6453SOL    HW220432   1.284   2.471   7.455 -2.5501  1.4137  0.1324
 6454SOL     OW20433   2.553   5.932   1.923  0.1960 -0.0196 -0.0734
 6454SOL    HW120434   2.475   5.974   1.960  0.2703  1.4345 -1.4434
 6454SOL    HW220435   2.531   5.839   1.920 -1.1172  0.2462  0.4300
 6455SOL     OW20436   7.796   2.147   3.205 -0.2011 -0.0927 -0.2440
 6455SOL    HW120437   7.840   2.103   3.132 -0.4405  0.7654 -0.9315
 6455SOL    HW220438   7.864   2.202   3.244  0.0590 -0.9409  0.5155
 6456SOL     OW20439   5.475   4.328   4.483 -0.8490  0.3214 -0.5837
 6456SOL    HW120440   5.451   4.379   4.405  0.2441  2.2773  0.2775
 6456SOL    HW220441   5.440   4.379   4.556 -0.7245 -0.7905  0.2773
 6457SOL     OW20442   1.808   5.753   7.655 -0.2612  0.2696  0.0156
 6457SOL    HW120443   1.866   5.721   7.724  0.7106  0.2257 -0.7809
 6457SOL    HW220444   1.858   5.824   7.614 -2.3440  2.9190  1.7420
 6458SOL     OW20445   3.797   5.310   4.782  0.3065 -0.1877  0.6101
 6458SOL    HW120446   3.873   5.325   4.727 -0.6185 -0.7863 -0.8789
 6458SOL    HW220447   3.728   5.365   4.745 -0.7112 -1.6137  0.2951
 6459SOL     OW20448   3.456   6.110   7.072  0.4400 -0.7382  0.0992
 6459SOL    HW120449   3.419   6.120   7.159  2.3248  0.6905  0.8123
 6459SOL    HW220450   3.545   6.145   7.079  0.7332 -0.7682 -2.3387
 6460SOL     OW20451   2.058   5.558   1.461 -0.3746 -0.0327 -0.3689
 6460SOL    HW120452   2.109   5.502   1.403 -0.1057 -0.0780 -0.0868
 6460SOL    HW220453   1.967   5.543   1.434 -0.2314  0.1913 -0.9939
 6461SOL     OW20454   0.247   7.358   0.641 -0.6316  0.2268  0.3739
 6461SOL    HW120455   0.231   7.410   0.563  0.9814  1.5450  0.8571
 6461SOL    HW220456   0.330   7.314   0.625  0.5763  1.7806  1.8879
 6462SOL     OW20457   5.060   2.425   3.777 -0.1205 -0.0484 -0.3002
 6462SOL    HW120458   4.977   2.469   3.795 -0.0128  0.0018  0.0804
 6462SOL    HW220459   5.038   2.332   3.773  0.1800 -0.2914  2.2314
 6463SOL     OW20460   0.599   3.932   1.976  0.5259 -0.6825 -0.3932
 6463SOL    HW120461   0.680   3.946   2.024  0.4681 -0.2780 -0.4169
 6463SOL    HW220462   0.604   3.841   1.947  1.8574 -0.1102 -2.0679
 6464SOL     OW20463   7.929   3.674   0.422 -0.1559  0.1984 -0.1457
 6464SOL    HW120464   7.949   3.588   0.459 -0.2858 -0.1040 -0.7703
 6464SOL    HW220465   7.833   3.677   0.418 -0.1515  0.3714 -0.1363
 6465SOL     OW20466   6.814   0.724   7.028  0.1874  0.6608  0.4189
 6465SOL    HW120467   6.842   0.634   7.041 -1.0996  0.0534 -0.7463
 6465SOL    HW220468   6.785   0.753   7.115 -1.6050 -0.8719  0.3907
 6466SOL     OW20469   4.321   7.320   4.258 -0.4684  0.0480 -0.5192
 6466SOL    HW120470   4.262   7.247   4.237 -0.8554  0.7000 -1.7292
 6466SOL    HW220471   4.346   7.357   4.174 -0.0524  1.1566  0.0695
 6467SOL     OW20472   0.054   4.780   2.267  0.5679  0.1613 -0.0042
 6467SOL    HW120473   0.099   4.738   2.194  0.2769  1.6882 -1.1122
 6467SOL    HW220474   0.115   4.848   2.296  0.3278  0.1079  0.6548
 6468SOL     OW20475   1.412   4.562   1.974  0.2820 -0.0105 -0.0410
 6468SOL    HW120476   1.485   4.512   1.938  1.1047 -0.8762  2.5722
 6468SOL    HW220477   1.340   4.499   1.981  0.2782  0.0175  0.2087
 6469SOL     OW20478   6.939   4.481   2.285  0.6899  0.1307 -0.0701
 6469SOL    HW120479   6.936   4.551   2.220 -2.8190  0.2040 -0.0202
 6469SOL    HW220480   6.900   4.520   2.363  2.0036 -0.8645  1.1180
 6470SOL     OW20481   3.733   5.871   6.184 -0.0776  0.4047 -0.0648
 6470SOL    HW120482   3.823   5.844   6.201 -0.4676 -1.2217 -0.4582
 6470SOL    HW220483   3.736   5.909   6.096  0.5086  1.8905  0.5655
 6471SOL     OW20484   5.651   3.398   4.671  0.4821 -0.1130  0.2109
 6471SOL    HW120485   5.671   3.447   4.751  1.6485 -0.5248  0.1936
 6471SOL    HW220486   5.735   3.363   4.643  0.5459  1.8750 -2.4463
 6472SOL     OW20487   3.096   7.542   2.430 -0.0444  0.3101 -0.2594
 6472SOL    HW120488   3.074   7.566   2.340  0.1641 -1.7452 -0.9125
 6472SOL    HW220489   3.191   7.551   2.434  0.3422 -2.4552 -1.2438
 6473SOL     OW20490   7.119   6.591   5.414  0.0987  0.0997  0.0500
 6473SOL    HW120491   7.181   6.524   5.441 -1.1294 -0.1017  2.6641
 6473SOL    HW220492   7.169   6.648   5.356  2.5274 -0.4029  1.5218
 6474SOL     OW20493   4.507   6.720   1.349  0.2016  0.5848  0.1367
 6474SOL    HW120494   4.572   6.743   1.415 -1.6926  2.2713  1.5719
 6474SOL    HW220495   4.528   6.630   1.325  0.8571 -0.2589  3.3218
 6475SOL     OW20496   0.295   6.390   2.051  1.3681 -0.7871  0.3501
 6475SOL    HW120497   0.355   6.354   1.986 -0.6193 -2.4521 -0.6525
 6475SOL    HW220498   0.272   6.315   2.106  0.4671 -0.0967  0.9294
 6476SOL     OW20499   0.456   6.798   0.588  0.5435 -0.3758  0.1096
 6476SOL    HW120500   0.422   6.884   0.614 -0.7488 -0.6765 -0.5288
 6476SOL    HW220501   0.403   6.773   0.512  0.2933 -2.1409  0.8335
 6477SOL     OW20502   1.442   1.790   7.268  0.2332  0.1241  0.1583
 6477SOL    HW120503   1.479   1.723   7.210  0.2732  0.9540 -0.8114
 6477SOL    HW220504   1.356   1.808   7.230 -1.0790 -1.5178  2.1625
 6478SOL     OW20505   3.530   5.694   5.897 -0.2283  0.1298 -0.1736
 6478SOL    HW120506   3.438   5.722   5.887 -0.4238 -0.7680 -0.9566
 6478SOL    HW220507   3.527   5.599   5.889  0.4763 -0.1580  2.1408
 6479SOL     OW20508   0.556   0.668   0.426  0.5368  0.3822  0.0977
 6479SOL    HW120509   0.647   0.641   0.437  0.9607  1.4293 -0.6669
 6479SOL    HW220510   0.513   0.643   0.508  1.0089 -2.0009 -0.3062
 6480SOL     OW20511   5.669   5.656   1.105 -0.1287 -0.5645  0.3864
 6480SOL    HW120512   5.579   5.648   1.136 -0.0371  0.5647  0.9822
 6480SOL    HW220513   5.687   5.572   1.062 -1.4699 -0.7849  0.2139
 6481SOL     OW20514   2.084   2.787   5.149  0.1275  0.0820 -0.5804
 6481SOL    HW120515   2.134   2.710   5.175  0.5415  0.6740  0.4741
 6481SOL    HW220516   2.113   2.806   5.060 -0.3266 -1.2307 -1.0300
 6482SOL     OW20517   5.244   3.235   0.085 -0.2903 -0.7127 -0.0506
 6482SOL    HW120518   5.166   3.198   0.126 -0.8853  0.9260  0.3544
 6482SOL    HW220519   5.314   3.218   0.148 -0.8798  0.3014  0.9155
 6483SOL     OW20520   1.825   0.320   0.104  0.0616  0.1875 -0.2850
 6483SOL    HW120521   1.889   0.314   0.034 -3.3446  2.6995 -4.0276
 6483SOL    HW220522   1.745   0.282   0.067 -2.2055  2.5664  1.7637
 6484SOL     OW20523   4.945   0.561   7.285 -0.2270 -0.1133  0.6448
 6484SOL    HW120524   4.893   0.599   7.215  1.3372  0.2951 -0.3548
 6484SOL    HW220525   4.890   0.567   7.363 -1.4339  0.7871 -0.2540
 6485SOL     OW20526   7.190   4.618   3.846  0.0196 -0.1373  0.2268
 6485SOL    HW120527   7.115   4.567   3.815  1.9041 -2.7513 -0.4023
 6485SOL    HW220528   7.257   4.606   3.778  0.9057  2.5659  0.4874
 6486SOL     OW20529   6.455   0.706   6.190 -0.4553  0.3781  0.4981
 6486SOL    HW120530   6.443   0.676   6.280 -0.3272  0.0629  0.4127
 6486SOL    HW220531   6.451   0.626   6.137  2.2021  0.1711  0.4806
 6487SOL     OW20532   2.060   1.209   2.851  0.1775  0.3101  0.3210
 6487SOL    HW120533   2.110   1.133   2.883 -0.1654  1.1282  3.1178
 6487SOL    HW220534   1.973   1.198   2.889  0.1489  2.1090  0.8595
 6488SOL     OW20535   2.835   5.458   4.854 -0.2406  0.1074 -0.4409
 6488SOL    HW120536   2.827   5.491   4.943 -0.2283 -0.9081 -0.0505
 6488SOL    HW220537   2.754   5.410   4.839 -0.7781  1.2577 -1.4262
 6489SOL     OW20538   1.141   2.950   0.465 -0.0942 -0.1515  0.4424
 6489SOL    HW120539   1.091   2.952   0.383  0.9861  0.5971 -0.2235
 6489SOL    HW220540   1.182   3.036   0.470 -1.1752  0.3057  2.4522
 6490SOL     OW20541   7.764   7.928   4.562 -0.0693 -0.1496  0.1256
 6490SOL    HW120542   7.818   7.976   4.625 -0.5606  2.5270 -1.3147
 6490SOL    HW220543   7.791   7.963   4.477  0.0265 -3.0759 -1.1477
 6491SOL     OW20544   2.487   6.259   7.067  0.0739 -0.1577 -1.2587
 6491SOL    HW120545   2.579   6.239   7.081  0.2705  0.7329 -1.1856
 6491SOL    HW220546   2.444   6.237   7.150  0.3500  0.1154 -1.0403
 6492SOL     OW20547   2.550   6.622   7.831 -0.0895 -0.8928 -0.3377
 6492SOL    HW120548   2.556   6.540   7.881  3.3992 -0.8266 -0.3588
 6492SOL    HW220549   2.625   6.673   7.861 -1.1499  1.5617 -1.6365
 6493SOL     OW20550   2.153   0.950   7.351 -0.4208  0.1350 -0.8468
 6493SOL    HW120551   2.123   0.983   7.436 -0.8328 -1.6835 -0.2445
 6493SOL    HW220552   2.159   1.028   7.296 -2.8174  1.0442  0.0378
 6494SOL     OW20553   4.963   3.012   5.512 -0.5672  0.2724 -0.3608
 6494SOL    HW120554   5.039   3.052   5.553  1.0835 -2.2265 -0.7809
 6494SOL    HW220555   4.998   2.965   5.436 -2.3156 -1.9186  0.0767
 6495SOL     OW20556   0.023   1.439   1.729 -0.3640 -0.5058  0.1683
 6495SOL    HW120557  -0.029   1.497   1.785  0.0339 -1.5914  1.7364
 6495SOL    HW220558   0.052   1.495   1.656 -3.4500  0.2205 -0.6415
 6496SOL     OW20559   0.805   0.508   0.486 -0.0762  0.2539  0.1937
 6496SOL    HW120560   0.894   0.507   0.450  0.2844  1.1128  1.0321
 6496SOL    HW220561   0.810   0.565   0.562 -0.9492 -1.0616  1.2985
 6497SOL     OW20562   3.925   0.338   3.750 -0.4988 -0.1245  0.0275
 6497SOL    HW120563   3.971   0.320   3.832 -0.2615  0.3536  0.0026
 6497SOL    HW220564   3.963   0.420   3.718 -2.2895  1.0095  0.6604
 6498SOL     OW20565   7.388   0.201   6.305  0.2200  0.4349 -0.0184
 6498SOL    HW120566   7.300   0.225   6.332 -1.1661 -1.4184 -2.4939
 6498SOL    HW220567   7.397   0.238   6.217  1.9196  0.5140  0.1553
 6499SOL     OW20568   6.213   7.874   2.252 -0.6914  0.0864  0.4538
 6499SOL    HW120569   6.196   7.797   2.198 -0.0839 -0.0600  0.4690
 6499SOL    HW220570   6.132   7.926   2.246 -0.3794  0.4402 -1.2038
 6500SOL     OW20571   2.898   4.222   0.229  0.1513  0.2028 -0.5549
 6500SOL    HW120572   2.821   4.273   0.204  0.2516  1.3477  1.3042
 6500SOL    HW220573   2.906   4.155   0.161 -1.0005  1.6102 -2.1401
 6501SOL     OW20574   4.121   6.857   7.762 -0.3342  0.3017  0.8628
 6501SOL    HW120575   4.121   6.930   7.824 -0.4965  0.2224  0.9587
 6501SOL    HW220576   4.137   6.897   7.676 -3.6969  0.9196  0.4008
 6502SOL     OW20577   7.950   5.034   0.136 -0.1202  0.0606 -0.2659
 6502SOL    HW120578   8.045   5.039   0.138 -0.1170 -0.0669  1.5854
 6502SOL    HW220579   7.921   5.124   0.151 -0.3169  0.2942 -1.9386
 6503SOL     OW20580   1.901   0.755   0.899 -0.5207  0.5695 -0.0498
 6503SOL    HW120581   1.895   0.749   0.804 -0.4562  0.6893 -0.0617
 6503SOL    HW220582   1.874   0.845   0.919 -0.3728  0.5959  0.0316
 6504SOL     OW20583   6.199   4.286   4.199  0.0784 -0.2320 -0.2818
 6504SOL    HW120584   6.185   4.380   4.182 -0.2023  0.1017  1.5549
 6504SOL    HW220585   6.122   4.260   4.250  1.3309 -0.8168  1.4070
 6505SOL     OW20586   4.937   6.689   2.653  0.1330 -0.1328 -0.3028
 6505SOL    HW120587   4.944   6.614   2.712  0.2878 -0.2477 -0.4675
 6505SOL    HW220588   5.014   6.683   2.597  0.7153  0.7494  0.3682
 6506SOL     OW20589   7.675   3.269   1.129 -0.2301  0.2582 -0.1474
 6506SOL    HW120590   7.622   3.348   1.122  1.0679  1.0757 -1.2858
 6506SOL    HW220591   7.680   3.251   1.223 -2.8178 -0.1005 -0.0140
 6507SOL     OW20592   3.913   5.200   1.329 -0.3944  0.4143  0.0331
 6507SOL    HW120593   3.999   5.202   1.287  0.6412 -1.3659  1.9000
 6507SOL    HW220594   3.928   5.229   1.418 -1.2187 -1.9706  1.0495
 6508SOL     OW20595   2.501   2.413   5.791 -0.0374 -0.2917  0.6092
 6508SOL    HW120596   2.566   2.408   5.721  1.0544 -1.7986  1.6689
 6508SOL    HW220597   2.420   2.383   5.751 -0.0720  1.3839 -0.6713
 6509SOL     OW20598   0.267   7.071   2.183  0.2874 -0.3978 -0.3102
 6509SOL    HW120599   0.277   7.022   2.265  0.9533 -1.6133 -1.0842
 6509SOL    HW220600   0.352   7.064   2.140  0.5067  1.7431 -0.3421
 6510SOL     OW20601   5.356   2.004   5.806 -0.0611 -0.5231 -0.8895
 6510SOL    HW120602   5.445   1.983   5.833 -0.2388 -0.9294 -0.6025
 6510SOL    HW220603   5.323   1.923   5.767 -1.3736 -1.4442  1.8322
 6511SOL     OW20604   5.036   7.936   3.672 -0.1703 -0.1250 -0.5129
 6511SOL    HW120605   4.981   7.883   3.730 -0.9964 -0.4989 -1.5977
 6511SOL    HW220606   5.030   7.892   3.587 -0.8056  1.6328 -1.4255
 6512SOL     OW20607   2.548   3.768   0.237  0.1221  0.2500 -0.3116
 6512SOL    HW120608   2.511   3.719   0.310  0.0052  0.2329 -0.3828
 6512SOL    HW220609   2.578   3.850   0.276 -0.1350  0.3314 -0.2825
 6513SOL     OW20610   8.154   6.064   5.977  0.4703  0.3755  0.4538
 6513SOL    HW120611   8.221   6.043   6.042  1.8177  0.7930 -0.7368
 6513SOL    HW220612   8.170   6.156   5.956 -1.6516  1.0324  1.4297
 6514SOL     OW20613   4.117   6.294   7.220 -0.2531  0.6188 -0.1845
 6514SOL    HW120614   4.162   6.378   7.209 -0.3581  0.6843 -0.1151
 6514SOL    HW220615   4.181   6.239   7.266  1.3741 -0.6457 -3.6201
 6515SOL     OW20616   6.217   0.402   4.106 -0.1806  0.1094 -0.3358
 6515SOL    HW120617   6.301   0.358   4.090 -0.7855 -1.2213 -0.0288
 6515SOL    HW220618   6.224   0.433   4.196  0.9480  2.3245 -1.1283
 6516SOL     OW20619   4.795   7.968   1.971 -0.7231 -0.8499  0.3427
 6516SOL    HW120620   4.737   7.910   2.020  0.7134 -1.1171  1.8047
 6516SOL    HW220621   4.782   7.942   1.880 -1.4286 -2.2610  0.8048
 6517SOL     OW20622   7.426   4.850   0.512 -0.4566  0.0330 -0.6235
 6517SOL    HW120623   7.348   4.903   0.504  1.4903  3.5492  1.4376
 6517SOL    HW220624   7.395   4.765   0.544 -3.4072  1.1344 -0.2875
 6518SOL     OW20625   2.330   7.419   6.081 -0.2338  0.7011  0.5591
 6518SOL    HW120626   2.359   7.465   6.160  0.4890  0.9753  0.1409
 6518SOL    HW220627   2.399   7.436   6.016  0.7674 -2.0981  0.7656
 6519SOL     OW20628   0.650   1.231   4.410  0.2879 -0.3106 -0.1233
 6519SOL    HW120629   0.707   1.269   4.343 -0.2948  0.2500 -0.3024
 6519SOL    HW220630   0.708   1.171   4.458  1.3321  1.0345  0.3804
 6520SOL     OW20631   4.599   6.411   5.901  0.3748  0.2207 -0.3595
 6520SOL    HW120632   4.512   6.386   5.931 -0.5297  0.9970 -2.1555
 6520SOL    HW220633   4.646   6.328   5.890 -0.2720 -0.2336  0.2383
 6521SOL     OW20634   7.725   7.945   7.551  0.5497 -0.3223 -0.4199
 6521SOL    HW120635   7.730   7.851   7.536  1.5418 -0.0152 -2.3394
 6521SOL    HW220636   7.807   7.980   7.516 -0.8558  1.5193 -2.1247
 6522SOL     OW20637   5.308   1.365   0.542  0.1158 -0.4186 -0.4826
 6522SOL    HW120638   5.375   1.304   0.573  0.8339  0.8482  0.5320
 6522SOL    HW220639   5.327   1.376   0.448  2.0796  0.7964  0.0029
 6523SOL     OW20640   1.176   7.667   1.967 -0.0149 -0.5699  0.2382
 6523SOL    HW120641   1.175   7.572   1.973 -0.9745 -0.5755  0.1294
 6523SOL    HW220642   1.135   7.697   2.048 -1.0124 -0.3025 -0.3442
 6524SOL     OW20643   4.669   5.645   4.565 -0.6254 -0.5175 -0.1352
 6524SOL    HW120644   4.600   5.709   4.549 -1.9628 -1.3693  1.8586
 6524SOL    HW220645   4.742   5.697   4.600 -0.7423  0.2265 -0.9757
 6525SOL     OW20646   7.125   1.879   2.658  0.4734 -0.1052 -0.6007
 6525SOL    HW120647   7.094   1.793   2.686 -0.9213  0.1986 -1.1361
 6525SOL    HW220648   7.220   1.871   2.657  0.4115 -1.2844  0.4689
 6526SOL     OW20649   4.085   4.494   5.887  0.5103 -0.0329  0.5462
 6526SOL    HW120650   4.142   4.558   5.929  0.2871 -0.5890  1.7495
 6526SOL    HW220651   4.123   4.482   5.800  0.3080  2.0095  0.1308
 6527SOL     OW20652   4.281   7.841   2.075 -0.4770  0.1480  0.1488
 6527SOL    HW120653   4.327   7.863   1.995 -0.0279  0.2707  0.4399
 6527SOL    HW220654   4.224   7.768   2.050 -0.6996  0.4996 -0.3943
 6528SOL     OW20655   6.372   4.084   2.931 -0.4236  0.4428  0.2456
 6528SOL    HW120656   6.317   4.154   2.964 -0.9800 -0.3039  0.9391
 6528SOL    HW220657   6.314   4.031   2.876  0.2293  1.0591 -1.0567
 6529SOL     OW20658   0.291   6.454   1.087  0.3612 -0.0299  0.2168
 6529SOL    HW120659   0.317   6.377   1.037 -0.6154 -0.2022 -0.0429
 6529SOL    HW220660   0.250   6.419   1.166 -2.3755  0.1115 -1.0250
 6530SOL     OW20661   3.919   7.213   0.457 -0.5106 -0.3857 -0.0773
 6530SOL    HW120662   3.953   7.169   0.379  1.6207 -0.4853  0.8234
 6530SOL    HW220663   3.948   7.303   0.448 -0.1180 -0.4304  0.6407
 6531SOL     OW20664   7.919   4.411   2.193  0.2702 -0.4581  0.4908
 6531SOL    HW120665   7.936   4.466   2.116  0.6525 -0.8173  0.3120
 6531SOL    HW220666   7.833   4.439   2.224  0.1192 -0.2943 -0.0577
 6532SOL     OW20667   1.289   0.658   1.726 -0.0161  0.0248 -0.0517
 6532SOL    HW120668   1.275   0.753   1.724 -0.7603 -0.0765 -0.9286
 6532SOL    HW220669   1.376   0.647   1.763 -0.4705  0.9769  1.3776
 6533SOL     OW20670   4.102   6.746   3.519  0.1445 -0.2562  0.5471
 6533SOL    HW120671   4.163   6.686   3.476 -0.0908  0.6143 -1.0912
 6533SOL    HW220672   4.158   6.814   3.557  0.4166 -1.4822  2.4697
 6534SOL     OW20673   2.341   2.708   4.993 -0.1932  0.1054  0.0752
 6534SOL    HW120674   2.326   2.648   5.066  0.3446 -1.3867 -1.0014
 6534SOL    HW220675   2.308   2.661   4.916  0.9547  0.8517 -0.9051
 6535SOL     OW20676   0.598   4.057   1.324 -0.1979 -0.0547 -0.7014
 6535SOL    HW120677   0.636   4.103   1.399 -0.3136 -0.3949 -0.4331
 6535SOL    HW220678   0.612   4.116   1.250 -0.4869  0.4847 -0.3298
 6536SOL     OW20679   0.470   1.331   5.552  0.1681  0.1377 -0.0318
 6536SOL    HW120680   0.548   1.357   5.504  1.0853 -0.6859  0.9592
 6536SOL    HW220681   0.475   1.379   5.635  1.3419 -2.2330  1.3827
 6537SOL     OW20682   2.954   2.491   7.818 -0.5014  0.2267 -0.6582
 6537SOL    HW120683   3.032   2.446   7.852 -2.2956 -1.8028  1.1017
 6537SOL    HW220684   2.977   2.584   7.820  1.3665 -0.1879  1.3054
 6538SOL     OW20685   4.318   0.972   2.801  0.0993 -0.0573  0.1597
 6538SOL    HW120686   4.251   1.007   2.860  1.1344  1.6636  0.4118
 6538SOL    HW220687   4.329   0.881   2.829 -1.2269 -0.0171  0.9286
 6539SOL     OW20688   3.387   1.533   1.580  0.6680 -0.4391 -0.5937
 6539SOL    HW120689   3.341   1.517   1.498  0.4219  3.8036 -1.5406
 6539SOL    HW220690   3.478   1.507   1.562  0.7329  0.8766 -2.5001
 6540SOL     OW20691   4.850   7.692   0.966  0.0185 -0.2654 -0.1323
 6540SOL    HW120692   4.811   7.745   0.897  3.3193 -0.7223 -2.5994
 6540SOL    HW220693   4.795   7.613   0.970 -0.5993  0.0307 -1.8789
 6541SOL     OW20694   4.190   7.123   1.982 -0.0662  0.0702  0.1065
 6541SOL    HW120695   4.154   7.199   2.028  0.5725 -0.0110  0.7649
 6541SOL    HW220696   4.124   7.100   1.918 -0.8960  0.3167  0.8601
 6542SOL     OW20697   1.758   2.060   5.133 -0.1953 -0.2444  0.2763
 6542SOL    HW120698   1.754   1.980   5.081  0.8372 -2.1535  2.9066
 6542SOL    HW220699   1.666   2.082   5.151 -0.4832 -1.1796 -0.0236
 6543SOL     OW20700   5.966   3.274   1.949  0.1974 -0.0875  0.4519
 6543SOL    HW120701   5.998   3.275   1.859  2.0215  1.3573  1.0661
 6543SOL    HW220702   5.997   3.190   1.984 -0.6762 -0.7408 -0.2720
 6544SOL     OW20703   1.513   2.716   4.753  0.2780 -0.0962  0.3141
 6544SOL    HW120704   1.522   2.695   4.846  1.2562 -1.2132 -0.0010
 6544SOL    HW220705   1.597   2.690   4.715 -0.1019  0.3725 -0.8825
 6545SOL     OW20706   5.365   7.180   1.860  0.0855 -0.3021  0.0733
 6545SOL    HW120707   5.318   7.232   1.925  2.5626  0.9631  0.9963
 6545SOL    HW220708   5.457   7.205   1.871  1.0855 -2.9666 -1.2785
 6546SOL     OW20709   6.703   4.359   0.183 -0.1047  0.2945 -0.0104
 6546SOL    HW120710   6.780   4.305   0.202 -0.1006  0.6533  1.0392
 6546SOL    HW220711   6.645   4.344   0.257 -0.7605  0.5618 -0.4633
 6547SOL     OW20712   4.770   7.104   0.377  0.0115  0.3050 -0.5983
 6547SOL    HW120713   4.846   7.149   0.341 -0.4584  0.9062 -0.8666
 6547SOL    HW220714   4.700   7.120   0.314  0.1448 -1.9999 -1.4214
 6548SOL     OW20715   2.487   2.000   4.828 -0.0555  0.0932 -0.3396
 6548SOL    HW120716   2.559   1.937   4.831  1.9108  2.2858  0.9401
 6548SOL    HW220717   2.492   2.039   4.741  1.4185  1.3709  0.2678
 6549SOL     OW20718   5.184   6.310   2.747  0.2109 -0.0785  0.7068
 6549SOL    HW120719   5.251   6.314   2.679 -0.9078  0.5682 -0.4006
 6549SOL    HW220720   5.223   6.357   2.821  0.3154  2.0301 -0.5753
 6550SOL     OW20721   3.858   7.184   1.992  0.2560 -0.0780  0.6260
 6550SOL    HW120722   3.887   7.145   2.075 -1.0461 -0.8639  0.7510
 6550SOL    HW220723   3.793   7.249   2.018  0.9066  0.7101  0.2907
 6551SOL     OW20724   1.657   3.159   4.446 -0.4773  0.0997 -0.0391
 6551SOL    HW120725   1.715   3.089   4.474  0.3111  0.4187 -0.8619
 6551SOL    HW220726   1.577   3.114   4.417 -0.1330 -0.4202 -0.1792
 6552SOL     OW20727   4.354   5.258   5.025 -0.1765  0.0141 -0.6375
 6552SOL    HW120728   4.325   5.192   5.088 -2.3100  0.8063 -0.7347
 6552SOL    HW220729   4.375   5.335   5.079 -1.7709  0.6116 -0.8226
 6553SOL     OW20730   1.592   0.801   5.187  0.0876 -0.1449  0.1516
 6553SOL    HW120731   1.503   0.788   5.219  0.4759 -0.9147  0.9336
 6553SOL    HW220732   1.595   0.752   5.105 -0.2583  0.0501  0.0173
 6554SOL     OW20733   0.475   1.033   6.222  0.2557 -0.2265 -0.0185
 6554SOL    HW120734   0.451   1.125   6.221 -0.1634 -0.3176 -1.9569
 6554SOL    HW220735   0.432   0.998   6.300 -0.5277  0.9810  0.1193
 6555SOL     OW20736   4.442   1.614   3.877 -0.1864 -0.0835  0.2156
 6555SOL    HW120737   4.443   1.710   3.876 -0.0907 -0.0857 -0.6754
 6555SOL    HW220738   4.351   1.591   3.899 -0.4626  0.2143 -0.5860
 6556SOL     OW20739   6.575   3.218   2.355 -0.3025  0.2971 -0.5239
 6556SOL    HW120740   6.533   3.264   2.427 -0.9955  0.2017 -0.8599
 6556SOL    HW220741   6.669   3.228   2.372 -0.4545  0.2947  0.3723
 6557SOL     OW20742   0.680   5.600   0.685  0.2567 -0.8824 -0.1287
 6557SOL    HW120743   0.717   5.680   0.647  0.5145 -0.6219  0.6501
 6557SOL    HW220744   0.742   5.531   0.662 -0.1809 -0.9474 -1.1671
 6558SOL     OW20745   4.458   5.116   3.915 -0.1812  0.3791  0.5958
 6558SOL    HW120746   4.439   5.127   4.008 -0.0464 -0.1383  0.6920
 6558SOL    HW220747   4.552   5.136   3.907  0.1823 -1.0467  0.8567
 6559SOL     OW20748   3.469   0.149   3.661 -0.1387 -0.5643 -0.6087
 6559SOL    HW120749   3.437   0.115   3.578  2.4770 -0.4240 -1.7558
 6559SOL    HW220750   3.537   0.088   3.689 -0.8975 -0.5717  1.4430
 6560SOL     OW20751   3.416   4.288   4.061 -0.2483  0.1062 -0.2299
 6560SOL    HW120752   3.484   4.229   4.092 -0.7415 -0.6968 -0.6291
 6560SOL    HW220753   3.429   4.293   3.966 -0.5117  0.2517 -0.2617
 6561SOL     OW20754   1.652   2.765   7.885 -0.1507  0.1343  0.0187
 6561SOL    HW120755   1.591   2.831   7.917 -1.3306 -0.3778 -1.0735
 6561SOL    HW220756   1.603   2.683   7.888  0.8887 -0.4955  0.2314
 6562SOL     OW20757   6.176   4.470   6.535 -0.7092  0.1294  0.2881
 6562SOL    HW120758   6.090   4.428   6.523  0.2789 -1.9293 -0.0483
 6562SOL    HW220759   6.224   4.409   6.591  0.8016  0.8413 -0.1920
 6563SOL     OW20760   4.438   1.444   8.074 -0.1414  0.5609  0.6051
 6563SOL    HW120761   4.396   1.453   7.988 -1.1388  1.3601  1.1478
 6563SOL    HW220762   4.498   1.370   8.064 -0.3775  0.5174 -0.7177
 6564SOL     OW20763   5.354   1.375   0.283 -0.2757  0.0579  0.5867
 6564SOL    HW120764   5.312   1.312   0.225  0.0658 -0.7273  1.1682
 6564SOL    HW220765   5.444   1.381   0.251  0.5430 -2.0111  2.2544
 6565SOL     OW20766   0.779   2.325   6.054  0.2629 -0.4118 -0.2182
 6565SOL    HW120767   0.830   2.313   5.974  1.1418 -2.7390  0.6263
 6565SOL    HW220768   0.710   2.259   6.048 -0.0231 -0.1974  0.6833
 6566SOL     OW20769   4.575   4.676   3.531  0.1237  0.2969 -0.2572
 6566SOL    HW120770   4.492   4.704   3.569  0.8802 -0.0429  1.8001
 6566SOL    HW220771   4.642   4.712   3.589  1.5526  1.7091 -2.5959
 6567SOL     OW20772   3.587   4.143   1.784 -0.4331  0.1045  0.3494
 6567SOL    HW120773   3.551   4.212   1.841  1.7197  0.4482  1.4064
 6567SOL    HW220774   3.560   4.061   1.827 -0.8390  0.3210  0.5203
 6568SOL     OW20775   1.618   4.905   6.114  0.2723  0.0858 -0.1856
 6568SOL    HW120776   1.614   4.820   6.069 -1.8974 -0.0205  0.0925
 6568SOL    HW220777   1.675   4.958   6.059  0.3319 -1.0393 -1.2696
 6569SOL     OW20778   2.454   1.979   3.677 -0.1924 -0.1513 -0.5231
 6569SOL    HW120779   2.456   1.930   3.595 -0.0477 -1.7679  0.4130
 6569SOL    HW220780   2.361   1.984   3.700 -0.4916  2.2667 -1.8481
 6570SOL     OW20781   1.376   1.415   4.712 -0.1918 -0.0341 -0.4585
 6570SOL    HW120782   1.379   1.320   4.717 -0.3007 -0.1262 -1.7676
 6570SOL    HW220783   1.468   1.441   4.698 -0.0989  0.0985  0.3338
 6571SOL     OW20784   5.533   2.771   1.485 -0.9357 -0.3248  0.0946
 6571SOL    HW120785   5.485   2.723   1.417 -0.0949  0.2026 -0.8907
 6571SOL    HW220786   5.527   2.863   1.459 -0.3814 -0.1417  0.5942
 6572SOL     OW20787   7.256   2.059   2.091 -0.0316 -0.1316 -0.3888
 6572SOL    HW120788   7.329   2.035   2.149  0.4017  0.9377 -0.4762
 6572SOL    HW220789   7.179   2.060   2.148 -0.1210 -1.8623 -0.4089
 6573SOL     OW20790   7.733   2.188   7.009 -0.2675  0.6655  0.6036
 6573SOL    HW120791   7.735   2.099   7.045 -0.9874  0.4198  0.0457
 6573SOL    HW220792   7.641   2.213   7.009 -0.0462  1.5379  1.0381
 6574SOL     OW20793   3.206   7.825   7.098  0.2710  0.4227  0.0037
 6574SOL    HW120794   3.172   7.779   7.174 -1.5848  0.2679 -0.8680
 6574SOL    HW220795   3.283   7.872   7.131 -0.4955  0.3925  1.9802
 6575SOL     OW20796   5.459   6.665   1.864 -0.1917 -0.1692 -0.0688
 6575SOL    HW120797   5.415   6.713   1.934  0.1973 -1.0377  0.7820
 6575SOL    HW220798   5.457   6.726   1.789  0.3756  1.2225  0.9981
 6576SOL     OW20799   3.204   3.496   0.335  0.0874 -0.1366  0.6229
 6576SOL    HW120800   3.121   3.454   0.359 -1.4425  0.7199 -2.6061
 6576SOL    HW220801   3.199   3.583   0.373 -0.1818 -0.3066  0.9845
 6577SOL     OW20802   6.893   3.979   6.257  0.8936 -0.4875  0.3619
 6577SOL    HW120803   6.832   3.928   6.311 -0.9443 -0.0333 -1.2046
 6577SOL    HW220804   6.945   4.029   6.320  1.5455 -2.8713  1.8733
 6578SOL     OW20805   7.137   3.728   4.432 -0.3804  0.6865  0.2282
 6578SOL    HW120806   7.168   3.697   4.517 -2.4993 -0.9034  0.4876
 6578SOL    HW220807   7.058   3.777   4.451 -0.8424  0.3821 -0.8210
 6579SOL     OW20808   5.414   6.542   5.170  0.2088 -0.3914 -0.0895
 6579SOL    HW120809   5.432   6.493   5.090  0.4481  0.4824 -0.5788
 6579SOL    HW220810   5.355   6.612   5.142  2.6133  1.7500 -0.1292
 6580SOL     OW20811   1.975   6.085   6.261  0.8643 -0.8072 -0.1184
 6580SOL    HW120812   1.934   6.081   6.348  1.0099  0.0807 -0.0057
 6580SOL    HW220813   2.068   6.068   6.278  1.3365  1.8366  0.2521
 6581SOL     OW20814   2.330   2.310   2.814 -0.0737  0.4106  0.2183
 6581SOL    HW120815   2.250   2.337   2.769 -0.6226  0.2947  1.0986
 6581SOL    HW220816   2.322   2.350   2.901  0.1215 -0.8055  0.8126
 6582SOL     OW20817   7.393   1.853   3.810  0.2220  0.2915  0.0483
 6582SOL    HW120818   7.345   1.775   3.785 -0.2175  0.2652  0.9559
 6582SOL    HW220819   7.403   1.902   3.728  0.4791 -0.6914 -0.5175
 6583SOL     OW20820   5.077   5.994   3.512  1.0205  0.3623 -0.0887
 6583SOL    HW120821   5.130   6.073   3.503  1.4507 -0.0384 -1.2161
 6583SOL    HW220822   5.125   5.939   3.574 -0.3567  1.8291  2.4405
 6584SOL     OW20823   0.807   5.425   4.425 -0.4343  0.2663  0.4887
 6584SOL    HW120824   0.853   5.346   4.453 -1.2497 -0.5202 -0.3072
 6584SOL    HW220825   0.860   5.460   4.353  1.2060  1.8172  2.3327
 6585SOL     OW20826   2.788   0.029   5.115  0.3179 -0.0055 -0.0724
 6585SOL    HW120827   2.750  -0.056   5.141  0.6018 -0.0145  0.3222
 6585SOL    HW220828   2.796   0.077   5.197  0.8116  0.1404 -0.2072
 6586SOL     OW20829   4.591   2.691   5.279  0.5038 -0.7767 -0.2648
 6586SOL    HW120830   4.624   2.745   5.207 -0.1695  0.9479  0.6785
 6586SOL    HW220831   4.635   2.725   5.357 -0.4705 -1.1201  0.4506
 6587SOL     OW20832   0.890   4.243   6.935 -0.5269 -0.0846  0.2537
 6587SOL    HW120833   0.812   4.222   6.883  0.1249 -1.0323 -0.3768
 6587SOL    HW220834   0.879   4.336   6.958 -0.9121  0.3336 -1.4621
 6588SOL     OW20835   4.348   1.106   1.888  0.0014  0.7930 -0.3961
 6588SOL    HW120836   4.336   1.196   1.918 -2.8600  0.6274 -0.7699
 6588SOL    HW220837   4.371   1.058   1.968  0.2898  1.6161  0.0343
 6589SOL     OW20838   3.018   4.401   7.705  0.4373 -0.5509  0.2920
 6589SOL    HW120839   3.110   4.409   7.680  0.5733  0.8750  1.0960
 6589SOL    HW220840   2.978   4.483   7.675 -0.4150 -0.8653  0.5399
 6590SOL     OW20841   4.199   4.790   2.175 -0.0099  0.3199  0.1185
 6590SOL    HW120842   4.136   4.725   2.205 -1.2291  1.2664 -0.3138
 6590SOL    HW220843   4.182   4.799   2.081  1.4991 -0.1719 -0.2391
 6591SOL     OW20844   7.813   4.709   5.133 -0.4537  0.1786  0.3437
 6591SOL    HW120845   7.906   4.729   5.132 -0.5599  0.9211 -2.2234
 6591SOL    HW220846   7.806   4.622   5.095 -0.8851  1.0442 -1.7060
 6592SOL     OW20847   7.776   3.759   6.092 -0.8228  0.0059  0.5746
 6592SOL    HW120848   7.821   3.781   6.010 -1.1795 -0.5930  0.2084
 6592SOL    HW220849   7.841   3.775   6.160  0.4354 -2.0307 -0.0289
 6593SOL     OW20850   4.271   6.975   3.349 -0.2275  0.7451  0.6832
 6593SOL    HW120851   4.299   7.066   3.341 -0.8959  0.9328  0.4245
 6593SOL    HW220852   4.320   6.942   3.425  0.9153  0.9659  0.0702
 6594SOL     OW20853   0.983   2.101   5.025 -0.0723 -0.3711  0.7387
 6594SOL    HW120854   1.041   2.059   4.962  0.1095  0.8866  0.0337
 6594SOL    HW220855   0.963   2.186   4.986 -3.1947 -1.0984  0.4557
 6595SOL     OW20856   4.150   0.551   5.233  0.1522  0.3340 -0.3644
 6595SOL    HW120857   4.185   0.477   5.283  1.0762  1.6595  1.0294
 6595SOL    HW220858   4.226   0.602   5.207 -0.5254  1.6189  0.0506
 6596SOL     OW20859   0.942   2.629   3.290 -0.3584  0.2095  0.8392
 6596SOL    HW120860   0.887   2.557   3.258  0.0438  0.7935 -1.3648
 6596SOL    HW220861   0.998   2.588   3.356  1.8569 -2.3979 -2.2565
 6597SOL     OW20862   2.867   6.042   6.963 -1.1460  0.1543  0.3328
 6597SOL    HW120863   2.843   6.017   6.874 -0.3250 -2.2907  0.7171
 6597SOL    HW220864   2.866   5.960   7.012  1.1906  0.9674  1.9294
 6598SOL     OW20865   4.644   0.272   4.690 -0.2902 -0.8540  0.4939
 6598SOL    HW120866   4.703   0.198   4.702  0.3759 -0.4017  0.0813
 6598SOL    HW220867   4.557   0.233   4.688  0.0810 -1.6818 -0.1276
 6599SOL     OW20868   1.566   0.628   5.624 -0.1389  0.0105 -0.1172
 6599SOL    HW120869   1.594   0.612   5.714  0.8770  0.1201 -0.4016
 6599SOL    HW220870   1.472   0.645   5.631 -0.5102 -2.0703  0.6661
 6600SOL     OW20871   5.122   4.639   3.083  0.1710  0.3795  0.0862
 6600SOL    HW120872   5.066   4.561   3.076  0.7088  0.1223 -2.6958
 6600SOL    HW220873   5.116   4.680   2.997  2.4844  1.5988  0.4265
 6601SOL     OW20874   1.626   1.334   6.240 -0.1955  0.5466 -1.3629
 6601SOL    HW120875   1.694   1.272   6.214 -0.4232  0.5269 -1.9257
 6601SOL    HW220876   1.667   1.388   6.308  0.1405  0.0610 -1.1759
 6602SOL     OW20877   7.707   0.483   5.217  0.3711 -0.1679  0.1458
 6602SOL    HW120878   7.753   0.475   5.300  0.7214 -0.7049 -0.0935
 6602SOL    HW220879   7.688   0.393   5.191 -2.2988  0.0451  1.0448
 6603SOL     OW20880   3.656   0.550   7.218  0.4931 -0.2588  0.7278
 6603SOL    HW120881   3.612   0.626   7.257 -0.2474 -0.4658  0.3184
 6603SOL    HW220882   3.609   0.535   7.136 -1.2849 -2.8856  2.0857
 6604SOL     OW20883   2.177   4.983   7.877 -0.5517  0.1646  0.3282
 6604SOL    HW120884   2.234   4.916   7.914 -0.4880  0.4776  0.8004
 6604SOL    HW220885   2.147   5.034   7.952  0.2939  1.3716 -0.1054
 6605SOL     OW20886   5.366   0.745   6.440 -0.4688 -0.1927 -0.5563
 6605SOL    HW120887   5.319   0.828   6.433 -0.5337 -0.2163 -0.4066
 6605SOL    HW220888   5.300   0.683   6.470 -0.4299 -0.3076 -0.7106
 6606SOL     OW20889   0.890   2.907   0.315 -0.5809 -0.1180 -0.0109
 6606SOL    HW120890   0.898   2.825   0.363  2.1693 -0.1006 -0.2755
 6606SOL    HW220891   0.838   2.884   0.238 -2.4222 -0.8446  1.3511
 6607SOL     OW20892   6.483   6.862   0.300  0.3328  0.4711 -0.0763
 6607SOL    HW120893   6.478   6.786   0.243 -1.2358  1.2742 -1.0705
 6607SOL    HW220894   6.400   6.862   0.348  1.0706  0.5620  1.2444
 6608SOL     OW20895   2.711   1.214   5.399  0.5776  0.0886 -0.0302
 6608SOL    HW120896   2.706   1.183   5.308 -0.9000 -1.1637  0.4488
 6608SOL    HW220897   2.750   1.141   5.447  0.0464  0.1986  0.5736
 6609SOL     OW20898   4.395   6.349   6.205 -0.2476  0.0617  0.2343
 6609SOL    HW120899   4.327   6.331   6.140 -0.6694 -1.9758  1.1793
 6609SOL    HW220900   4.350   6.343   6.289  0.7439  0.5188  0.8159
 6610SOL     OW20901   2.058   2.737   2.247 -0.0455  0.1306  0.0534
 6610SOL    HW120902   1.978   2.707   2.291 -0.2631  1.1195  0.3638
 6610SOL    HW220903   2.121   2.750   2.317  0.2233 -0.1552 -0.1357
 6611SOL     OW20904   7.478   3.081   3.280  0.3892  0.2827  0.2372
 6611SOL    HW120905   7.400   3.104   3.229 -0.5969  0.1890  1.6388
 6611SOL    HW220906   7.551   3.121   3.232 -0.9519  4.6286  1.3106
 6612SOL     OW20907   0.601   0.235   3.610  0.2057 -0.1182 -0.1033
 6612SOL    HW120908   0.515   0.201   3.634  0.3023  0.1084  0.5953
 6612SOL    HW220909   0.644   0.253   3.694  1.3642 -1.3041 -0.4140
 6613SOL     OW20910   0.447   3.948   6.034 -0.6442 -0.2392 -0.0609
 6613SOL    HW120911   0.364   3.969   5.991 -1.5112 -0.2359  1.5610
 6613SOL    HW220912   0.458   4.015   6.101  0.9856  0.0959 -0.5962
 6614SOL     OW20913   7.325   6.483   1.220 -0.2921  0.0218 -0.4575
 6614SOL    HW120914   7.355   6.464   1.309 -1.1782  0.5860 -0.0199
 6614SOL    HW220915   7.249   6.540   1.233 -0.5757 -0.0947 -1.5729
 6615SOL     OW20916   4.355   7.857   0.190 -0.0991 -0.2476  0.7817
 6615SOL    HW120917   4.384   7.943   0.162 -0.9850  0.0873  0.8574
 6615SOL    HW220918   4.262   7.854   0.167  0.3950 -2.0346 -1.3446
 6616SOL     OW20919   6.094   4.552   6.829  0.8034  0.0858  0.4736
 6616SOL    HW120920   6.025   4.491   6.804 -0.8724  2.4588 -1.0890
 6616SOL    HW220921   6.168   4.496   6.851 -0.9596 -2.5199  0.2573
 6617SOL     OW20922   0.022   5.435   7.415 -0.0600 -0.0343  0.0374
 6617SOL    HW120923  -0.058   5.408   7.371 -1.1661  0.4883  1.6422
 6617SOL    HW220924   0.092   5.385   7.372 -1.3181 -1.0107 -0.9313
 6618SOL     OW20925   6.639   2.360   6.851  0.7128  0.0047 -0.4040
 6618SOL    HW120926   6.559   2.311   6.834 -0.8497  2.1559  0.3432
 6618SOL    HW220927   6.696   2.298   6.897 -0.6276 -1.4677 -0.6582
 6619SOL     OW20928   7.398   6.229   3.182 -0.4584  0.1049 -0.3612
 6619SOL    HW120929   7.405   6.324   3.191  2.8678 -0.1597  1.6404
 6619SOL    HW220930   7.463   6.206   3.115 -0.6403 -0.8116 -0.2397
 6620SOL     OW20931   0.457   2.302   0.090 -0.0951 -0.4379 -0.2270
 6620SOL    HW120932   0.442   2.321   0.182  0.0182 -2.2133  0.1869
 6620SOL    HW220933   0.441   2.208   0.081  0.4500 -0.4155 -1.9038
 6621SOL     OW20934   5.878   4.505   5.737  0.6008 -0.3255  0.2739
 6621SOL    HW120935   5.956   4.528   5.687  0.5806  0.4893  0.5947
 6621SOL    HW220936   5.881   4.563   5.814 -0.8388  0.4607 -0.2227
 6622SOL     OW20937   7.990   0.082   0.822 -0.1896 -1.0031 -0.2900
 6622SOL    HW120938   8.028   0.127   0.897  2.3242  0.6841 -2.4030
 6622SOL    HW220939   8.040   0.000   0.815  0.9105 -0.2900 -1.1503
 6623SOL     OW20940   3.718   0.212   7.499 -0.4386 -0.2029  0.0367
 6623SOL    HW120941   3.778   0.254   7.561  1.4048 -1.7454 -0.6214
 6623SOL    HW220942   3.636   0.262   7.508  0.8217  1.8026  1.1719
 6624SOL     OW20943   7.666   2.452   3.000  0.1255 -0.3046  0.0911
 6624SOL    HW120944   7.610   2.513   2.951  0.0122 -0.2505  0.2911
 6624SOL    HW220945   7.697   2.503   3.075 -2.8476 -1.5020  2.3233
 6625SOL     OW20946   3.834   6.791   2.243 -0.4500 -0.0705 -0.2659
 6625SOL    HW120947   3.845   6.767   2.151  2.1760  1.5776 -0.5114
 6625SOL    HW220948   3.784   6.719   2.281 -1.1545 -1.0632 -2.8414
 6626SOL     OW20949   5.796   3.520   0.764 -0.1968 -0.2307 -0.4827
 6626SOL    HW120950   5.722   3.486   0.814  0.6338 -1.9231 -0.3528
 6626SOL    HW220951   5.821   3.601   0.810 -0.2053 -1.1176  1.1531
 6627SOL     OW20952   2.354   2.850   6.134  0.4630  0.1629  0.9485
 6627SOL    HW120953   2.388   2.924   6.084 -0.1087 -0.7819 -0.9249
 6627SOL    HW220954   2.323   2.788   6.068 -1.2663 -0.7208  2.4854
 6628SOL     OW20955   6.280   2.746   4.543 -0.4843  0.1859  0.3631
 6628SOL    HW120956   6.297   2.712   4.455  0.7475 -2.4668  1.5138
 6628SOL    HW220957   6.184   2.747   4.550 -0.6118  0.9856 -1.1714
 6629SOL     OW20958   4.205   5.076   8.004 -0.3288  0.3853  0.6158
 6629SOL    HW120959   4.269   5.143   7.978  0.0090 -0.5418 -1.1617
 6629SOL    HW220960   4.133   5.087   7.941  0.4290 -1.8442 -0.7520
 6630SOL     OW20961   0.676   1.092   3.684 -0.6191  0.2376  0.6081
 6630SOL    HW120962   0.710   1.097   3.773 -2.7127 -0.0184  1.4918
 6630SOL    HW220963   0.705   1.173   3.643  1.8624 -0.4125  0.8938
 6631SOL     OW20964   2.473   4.290   0.120 -0.2106 -0.1565  0.8044
 6631SOL    HW120965   2.531   4.216   0.103  0.3276  0.4160  0.0469
 6631SOL    HW220966   2.526   4.350   0.173 -1.1299 -0.9317  2.6632
 6632SOL     OW20967   4.340   3.065   4.932 -0.0844 -0.0391 -0.6398
 6632SOL    HW120968   4.252   3.094   4.956 -0.0002  0.7507 -1.2345
 6632SOL    HW220969   4.378   3.034   5.015 -0.8103 -0.0867 -0.3201
 6633SOL     OW20970   5.657   3.881   7.956  0.0673 -0.8852  0.3239
 6633SOL    HW120971   5.646   3.803   8.010  2.5114  0.0277  2.2854
 6633SOL    HW220972   5.702   3.850   7.877  0.5054 -1.5525  0.8288
 6634SOL     OW20973   0.704   0.599   2.208  0.0924 -1.2130 -0.1928
 6634SOL    HW120974   0.700   0.511   2.246 -0.6652 -1.4496 -0.7929
 6634SOL    HW220975   0.792   0.605   2.172 -0.0983 -2.0521 -0.8585
 6635SOL     OW20976   3.303   1.401   2.910 -0.1717 -0.4334  0.1883
 6635SOL    HW120977   3.361   1.341   2.957  2.4677  0.1096 -2.0961
 6635SOL    HW220978   3.358   1.437   2.841 -2.6232  2.0699 -0.6163
 6636SOL     OW20979   4.602   5.270   4.702 -0.4018 -0.1129 -0.0207
 6636SOL    HW120980   4.615   5.290   4.609  0.0426 -0.0220  0.0603
 6636SOL    HW220981   4.510   5.246   4.708 -0.3505 -0.4797 -0.5543
 6637SOL     OW20982   5.883   3.327   4.591 -0.2449 -0.0286 -0.3072
 6637SOL    HW120983   5.925   3.270   4.656  1.1076  1.3546  0.0880
 6637SOL    HW220984   5.867   3.270   4.517 -0.2428 -1.2590  0.6039
 6638SOL     OW20985   6.331   4.431   6.852 -0.1102  0.0043  0.4776
 6638SOL    HW120986   6.404   4.493   6.852 -0.1401  0.0411 -0.0659
 6638SOL    HW220987   6.360   4.360   6.796 -0.0645 -0.4930  1.1233
 6639SOL     OW20988   1.285   2.854   4.928 -0.5731 -0.5009  0.1711
 6639SOL    HW120989   1.192   2.834   4.944 -0.6683  1.4533  2.7634
 6639SOL    HW220990   1.331   2.813   5.002  0.4868 -0.3304 -0.3775
 6640SOL     OW20991   1.945   7.508   7.287  0.0134 -0.1932 -0.1916
 6640SOL    HW120992   1.889   7.450   7.339  3.6060 -2.8308  1.1595
 6640SOL    HW220993   1.981   7.452   7.219  2.1540  0.8955 -0.0504
 6641SOL     OW20994   4.577   0.251   0.850 -0.0178 -0.6947  0.3423
 6641SOL    HW120995   4.660   0.271   0.894  0.4211 -1.7236  0.0200
 6641SOL    HW220996   4.602   0.191   0.779 -0.9342 -0.3834 -0.2579
 6642SOL     OW20997   3.575   7.371   2.278 -0.4598 -0.1683 -0.0080
 6642SOL    HW120998   3.488   7.366   2.239 -0.3874  4.0210 -1.2296
 6642SOL    HW220999   3.634   7.383   2.204  1.0637 -1.7577  0.8832
 6643SOL     OW21000   4.600   7.403   1.395 -0.2689 -0.1187  0.9894
 6643SOL    HW121001   4.613   7.397   1.490 -0.8232  1.4154  1.1969
 6643SOL    HW221002   4.596   7.312   1.365 -0.7605 -0.6357  2.5318
 6644SOL     OW21003   5.303   7.321   6.641 -0.5244  0.5024 -0.0359
 6644SOL    HW121004   5.329   7.408   6.672 -0.5017  1.0361 -1.4510
 6644SOL    HW221005   5.212   7.312   6.667 -0.0832  0.2829  1.4953
 6645SOL     OW21006   5.305   5.632   3.642  0.0423 -0.0749 -0.3217
 6645SOL    HW121007   5.311   5.628   3.547 -1.2748 -0.0422 -0.4190
 6645SOL    HW221008   5.224   5.585   3.664  0.5462 -0.4700  0.8197
 6646SOL     OW21009   7.167   0.692   2.728  0.1897  0.0235 -0.4607
 6646SOL    HW121010   7.091   0.750   2.728  0.0810 -0.1191 -0.4895
 6646SOL    HW221011   7.243   0.751   2.723  0.1051  0.1971  0.2757
 6647SOL     OW21012   1.226   0.738   2.026  0.2900 -0.2554 -0.2446
 6647SOL    HW121013   1.273   0.662   1.991  1.4102  0.6003 -0.7033
 6647SOL    HW221014   1.254   0.743   2.117  2.9213  1.4724 -1.0189
 6648SOL     OW21015   8.038   7.712   4.752  0.0104  0.2642  0.4570
 6648SOL    HW121016   7.975   7.783   4.746 -1.0432 -0.7052 -0.4275
 6648SOL    HW221017   8.123   7.753   4.733 -0.1477  1.7882  2.6773
 6649SOL     OW21018   4.438   2.019   0.068 -0.3664 -0.0417  0.2122
 6649SOL    HW121019   4.385   2.097   0.054  1.1173  1.0381  0.3100
 6649SOL    HW221020   4.452   2.016   0.163  1.9483  1.2817 -0.0170
 6650SOL     OW21021   4.918   0.450   1.893  0.4800  0.1837  0.7145
 6650SOL    HW121022   4.945   0.395   1.967  0.7001 -0.2214  0.3379
 6650SOL    HW221023   4.865   0.518   1.933  2.9399  1.6937  1.6822
 6651SOL     OW21024   4.991   4.415   3.073  0.1420  0.1374 -0.0235
 6651SOL    HW121025   4.956   4.359   3.003 -1.5689  0.7010  0.3439
 6651SOL    HW221026   4.986   4.361   3.152  1.7605 -0.3803 -0.2435
 6652SOL     OW21027   1.157   4.660   0.583 -0.5200 -0.1382  0.3092
 6652SOL    HW121028   1.109   4.579   0.604  1.2444 -0.8548  1.9092
 6652SOL    HW221029   1.240   4.629   0.545  0.1006  0.9222  0.7678
 6653SOL     OW21030   6.095   5.121   3.098  0.0782 -0.2657  0.1434
 6653SOL    HW121031   6.019   5.156   3.052 -0.2269 -0.6062  0.3743
 6653SOL    HW221032   6.165   5.184   3.082  0.0402 -0.4914 -0.9627
 6654SOL     OW21033   5.143   2.708   7.561 -0.3218  0.0499 -0.3976
 6654SOL    HW121034   5.150   2.626   7.511  1.2610 -0.2479  0.2543
 6654SOL    HW221035   5.051   2.712   7.586 -0.5218 -1.3314 -0.7885
 6655SOL     OW21036   1.415   2.058   1.684  0.0469 -0.0949 -0.6394
 6655SOL    HW121037   1.420   2.121   1.756  2.9161 -0.3819 -0.4583
 6655SOL    HW221038   1.404   1.973   1.727 -1.0079 -0.0188 -0.7320
 6656SOL     OW21039   3.081   2.284   5.751 -0.3498  0.5471  0.0157
 6656SOL    HW121040   3.044   2.196   5.744  2.4631 -0.6483 -1.4206
 6656SOL    HW221041   3.167   2.271   5.791 -0.2863  2.8117  0.7569
 6657SOL     OW21042   3.703   6.505   4.374  1.2208  0.4713  0.3581
 6657SOL    HW121043   3.662   6.558   4.305 -1.2623  0.9651  2.0862
 6657SOL    HW221044   3.778   6.557   4.403  0.3779  1.8155  0.2236
 6658SOL     OW21045   6.175   5.497   5.752  1.0206  0.0608  0.0852
 6658SOL    HW121046   6.255   5.523   5.707  1.2659 -2.4151 -1.0328
 6658SOL    HW221047   6.205   5.454   5.832  0.9758 -2.2152 -1.0386
 6659SOL     OW21048   3.147   1.726   5.049  0.8128  0.2780  0.3858
 6659SOL    HW121049   3.125   1.634   5.065  0.5193  0.3741  0.5656
 6659SOL    HW221050   3.208   1.748   5.119 -0.6848  0.7742  1.6020
 6660SOL     OW21051   0.672   3.259   5.688  0.2296 -0.5602 -0.2379
 6660SOL    HW121052   0.599   3.223   5.739  1.6502 -0.6794  1.8157
 6660SOL    HW221053   0.679   3.200   5.613 -2.2519 -0.0762 -0.9412
 6661SOL     OW21054   5.623   4.990   2.242 -0.1415  0.0909  0.2621
 6661SOL    HW121055   5.557   5.058   2.222  2.3805  2.3070 -1.2393
 6661SOL    HW221056   5.621   4.933   2.165  1.1048  1.4595 -0.8561
 6662SOL     OW21057   3.557   8.145   4.694 -0.0194 -0.4628 -0.0042
 6662SOL    HW121058   3.501   8.203   4.643  0.7344  0.1287 -0.1767
 6662SOL    HW221059   3.502   8.068   4.711 -0.8492  0.0576 -0.2400
 6663SOL     OW21060   0.005   1.462   6.633 -0.0559 -0.1762 -0.1921
 6663SOL    HW121061   0.035   1.551   6.614  0.5423 -0.4652 -0.6415
 6663SOL    HW221062   0.058   1.434   6.708  0.4081 -0.4826 -0.6298
 6664SOL     OW21063   2.610   3.707   8.148  0.5014 -0.0292  0.1733
 6664SOL    HW121064   2.700   3.678   8.134  1.0445  1.2055  0.8892
 6664SOL    HW221065   2.612   3.750   8.234 -0.4714  1.1173 -0.3405
 6665SOL     OW21066   7.371   5.531   3.291  0.0617  0.3284 -0.3434
 6665SOL    HW121067   7.351   5.497   3.204  0.2784 -2.3937  0.5939
 6665SOL    HW221068   7.312   5.484   3.350  1.9495 -0.1469  1.2917
 6666SOL     OW21069   1.761   0.746   2.350  0.3495  0.7755  0.6133
 6666SOL    HW121070   1.686   0.797   2.321 -0.1977  0.0539  0.7440
 6666SOL    HW221071   1.779   0.686   2.279 -0.0005  0.0789  1.1055
 6667SOL     OW21072   3.622   0.975   6.315  0.1163 -0.1560  0.3672
 6667SOL    HW121073   3.601   1.052   6.368 -1.3854  0.1221 -0.5856
 6667SOL    HW221074   3.715   0.986   6.292  0.3962  0.4527  1.6990
 6668SOL     OW21075   6.155   0.310   5.098 -0.2948 -0.1962 -0.0819
 6668SOL    HW121076   6.131   0.326   5.189 -1.3367 -0.8905 -0.2152
 6668SOL    HW221077   6.101   0.372   5.048  0.3997  0.3041 -0.2275
 6669SOL     OW21078   0.579   3.798   5.131  0.7397  0.0865 -0.3221
 6669SOL    HW121079   0.605   3.850   5.207 -0.1286 -0.0031  0.0448
 6669SOL    HW221080   0.567   3.709   5.166 -0.3435  0.1868 -0.4176
 6670SOL     OW21081   2.338   6.479   6.818 -0.1637  0.1126  0.7751
 6670SOL    HW121082   2.346   6.543   6.747  2.1827  0.7336  1.5135
 6670SOL    HW221083   2.293   6.527   6.888  0.4909  0.5767  0.8836
 6671SOL     OW21084   6.801   4.581   4.320 -0.6375  0.1917 -0.7960
 6671SOL    HW121085   6.776   4.570   4.228  0.4660  1.0939 -1.2223
 6671SOL    HW221086   6.781   4.672   4.339  1.7512  0.8159 -1.0101
 6672SOL     OW21087   5.144   3.198   0.657  0.3459  0.1535 -0.3894
 6672SOL    HW121088   5.218   3.170   0.603 -0.0040  0.5446 -1.0888
 6672SOL    HW221089   5.150   3.293   0.658 -0.6295  0.2522 -1.1912
 6673SOL     OW21090   5.521   6.695   1.198  0.3312  0.4919 -0.5337
 6673SOL    HW121091   5.475   6.630   1.143 -0.3021  0.5693 -0.1080
 6673SOL    HW221092   5.573   6.746   1.136  0.6539 -0.2673 -0.9053
 6674SOL     OW21093   7.101   4.266   5.353 -0.2424 -0.0098  0.4390
 6674SOL    HW121094   7.010   4.269   5.322  0.3310  1.2314 -1.2953
 6674SOL    HW221095   7.146   4.212   5.288  0.3290 -0.4084  1.1535
 6675SOL     OW21096   7.527   4.034   3.106 -0.4195  0.3198  0.4274
 6675SOL    HW121097   7.621   4.020   3.120 -0.1772  1.1250 -0.2595
 6675SOL    HW221098   7.501   4.093   3.177 -0.6019 -0.5486  1.0994
 6676SOL     OW21099   0.329   7.384   2.090 -0.0086 -0.2872 -0.1507
 6676SOL    HW121100   0.318   7.356   1.999  0.8897  1.0401 -0.7044
 6676SOL    HW221101   0.240   7.394   2.123 -0.5158  2.4112 -1.9634
 6677SOL     OW21102   6.622   5.532   7.567 -0.3323 -0.6162  0.2545
 6677SOL    HW121103   6.683   5.561   7.636 -1.2377  1.5760  0.2328
 6677SOL    HW221104   6.600   5.442   7.591  1.8262 -1.0030  1.0244
 6678SOL     OW21105   5.845   1.515   0.934 -0.4086  0.3692  0.0177
 6678SOL    HW121106   5.914   1.464   0.976 -0.0633  1.7718  1.2268
 6678SOL    HW221107   5.874   1.524   0.843  0.9520  0.8159  0.4710
 6679SOL     OW21108   3.030   2.137   7.594 -0.3187  0.1502  0.2099
 6679SOL    HW121109   3.090   2.179   7.533 -0.4184  1.2354  0.8223
 6679SOL    HW221110   2.971   2.208   7.622 -1.3515 -0.7038  0.2594
 6680SOL     OW21111   1.220   2.755   0.055 -0.1598 -0.8283 -0.1351
 6680SOL    HW121112   1.267   2.830   0.019 -2.0467  0.5864  0.1952
 6680SOL    HW221113   1.263   2.739   0.139 -1.6393  2.0289  1.3338
 6681SOL     OW21114   5.078   0.943   5.278 -0.5927 -0.1980  0.3840
 6681SOL    HW121115   5.074   1.029   5.319 -3.1806 -0.3922  0.7300
 6681SOL    HW221116   5.170   0.931   5.256 -0.0850  2.4320  0.7471
 6682SOL     OW21117   6.038   2.250   4.403  0.8379 -0.0260  0.1369
 6682SOL    HW121118   6.000   2.202   4.330  0.1638 -1.4162  1.3542
 6682SOL    HW221119   6.006   2.205   4.481  1.5867  1.3688  1.3039
 6683SOL     OW21120   6.913   5.233   4.521  0.5092 -0.3527 -0.4879
 6683SOL    HW121121   6.985   5.293   4.500  1.1108 -0.0356  2.1746
 6683SOL    HW221122   6.955   5.149   4.537  0.1568 -0.4483 -0.0505
 6684SOL     OW21123   6.437   4.722   5.561  0.3288  0.0016  0.3583
 6684SOL    HW121124   6.432   4.658   5.632  1.0814 -0.4782 -0.0106
 6684SOL    HW221125   6.529   4.723   5.535  0.0873  0.2460 -0.5489
 6685SOL     OW21126   4.004   4.944   5.169  0.2953 -0.0184 -0.1913
 6685SOL    HW121127   3.929   4.885   5.178 -0.1949  0.5629 -0.3818
 6685SOL    HW221128   3.996   4.980   5.080 -0.0942  1.2239  0.3154
 6686SOL     OW21129   1.555   4.462   2.936  0.2022 -0.7376 -0.4658
 6686SOL    HW121130   1.562   4.382   2.987  0.7131 -1.4580 -1.6228
 6686SOL    HW221131   1.531   4.433   2.848  1.9122  0.2068 -1.3055
 6687SOL     OW21132   1.139   5.415   3.166 -0.2789 -0.0563 -0.1879
 6687SOL    HW121133   1.184   5.350   3.220 -1.1810 -1.3870 -0.9586
 6687SOL    HW221134   1.196   5.492   3.167  0.9700 -0.9647  0.5301
 6688SOL     OW21135   4.653   4.578   4.596 -0.3925  0.3408 -0.1471
 6688SOL    HW121136   4.591   4.506   4.583  1.1392 -0.7930 -1.6530
 6688SOL    HW221137   4.605   4.656   4.566 -1.6258 -0.2396  0.2470
 6689SOL     OW21138   0.787   4.411   5.961 -0.0488  0.6633 -0.4478
 6689SOL    HW121139   0.853   4.479   5.953  0.0411  0.4730 -1.5149
 6689SOL    HW221140   0.809   4.348   5.891 -1.1525  0.4338 -0.6053
 6690SOL     OW21141   2.524   1.739   1.951 -0.2569  0.7240  0.2152
 6690SOL    HW121142   2.578   1.664   1.925  1.1273  1.5623  0.5270
 6690SOL    HW221143   2.446   1.733   1.897  0.0695 -0.6490 -0.1347
 6691SOL     OW21144   5.837   4.948   6.162  0.7010 -0.0095 -0.7876
 6691SOL    HW121145   5.860   4.897   6.085 -0.2771  0.2696 -1.2743
 6691SOL    HW221146   5.901   4.921   6.228  1.4016 -0.4214 -1.6166
 6692SOL     OW21147   2.255   2.048   3.991 -0.7844  0.2891  0.7235
 6692SOL    HW121148   2.293   2.085   4.071 -1.2349  1.3059  0.4804
 6692SOL    HW221149   2.305   1.968   3.976 -0.2448  0.4341  1.6483
 6693SOL     OW21150   8.091   8.125   4.050  0.1183 -1.1855 -0.0059
 6693SOL    HW121151   8.102   8.218   4.070  0.7937 -1.5244  1.3230
 6693SOL    HW221152   8.057   8.087   4.131  0.3239 -2.1799 -0.3665
 6694SOL     OW21153   4.790   6.056   3.541  0.3675  0.2325 -0.6094
 6694SOL    HW121154   4.851   5.990   3.508  0.0265 -0.5407  0.2573
 6694SOL    HW221155   4.844   6.115   3.593  0.6443  0.5665 -1.2521
 6695SOL     OW21156   8.164   3.680   4.945  0.0203  0.1648  0.0069
 6695SOL    HW121157   8.107   3.731   5.002 -1.1739 -0.1979 -0.8118
 6695SOL    HW221158   8.238   3.655   5.000 -1.2436 -0.4568  1.5085
 6696SOL     OW21159   0.408   7.639   4.109 -0.0780  0.6789  0.1633
 6696SOL    HW121160   0.340   7.593   4.060 -0.2103  2.5639 -1.5792
 6696SOL    HW221161   0.467   7.672   4.041  1.3229  1.0219  1.5008
 6697SOL     OW21162   2.858   5.741   7.779 -0.0413  0.1642 -0.4774
 6697SOL    HW121163   2.915   5.670   7.749  1.7124  1.4251 -0.2411
 6697SOL    HW221164   2.814   5.771   7.699  3.0248  2.0915 -1.6276
 6698SOL     OW21165   1.124   1.710   6.977  0.4326 -0.0919 -0.0856
 6698SOL    HW121166   1.179   1.765   7.033  0.2465 -0.1909  0.1924
 6698SOL    HW221167   1.186   1.668   6.917  0.7614 -0.8746  0.7898
 6699SOL     OW21168   7.511   4.731   3.359  0.3001  0.0889 -0.6624
 6699SOL    HW121169   7.435   4.732   3.300 -0.6042 -1.4499  0.4175
 6699SOL    HW221170   7.528   4.824   3.377 -0.9830  0.4896 -1.3663
 6700SOL     OW21171   7.380   8.083   3.085  0.1501 -0.0716  0.5189
 6700SOL    HW121172   7.367   8.160   3.140 -0.5608  0.1270  0.0878
 6700SOL    HW221173   7.299   8.075   3.035  0.8936 -0.0480 -0.7420
 6701SOL     OW21174   6.081   2.882   5.522 -0.2364  0.0541 -0.3359
 6701SOL    HW121175   5.993   2.919   5.510  0.9340  2.8762 -1.2458
 6701SOL    HW221176   6.084   2.807   5.463 -1.4762  1.0509 -1.7544
 6702SOL     OW21177   5.651   3.536   7.614  0.3372  0.1486 -0.0645
 6702SOL    HW121178   5.589   3.465   7.600 -1.6293  1.2504  2.3768
 6702SOL    HW221179   5.676   3.564   7.525 -1.7837 -1.0929 -1.1281
 6703SOL     OW21180   4.145   4.210   2.238 -0.2526 -0.1111  0.5722
 6703SOL    HW121181   4.050   4.199   2.238 -0.2343 -0.5773 -1.5115
 6703SOL    HW221182   4.161   4.280   2.175  0.8392 -0.5513  0.3384
 6704SOL     OW21183   1.210   2.271   0.785 -0.3378 -0.3564 -0.5134
 6704SOL    HW121184   1.162   2.262   0.703 -3.4387  0.5141  1.0726
 6704SOL    HW221185   1.249   2.359   0.781  0.3788 -0.7107 -1.4419
 6705SOL     OW21186   7.462   6.833   4.344  0.5424  0.4259 -0.2241
 6705SOL    HW121187   7.506   6.800   4.265  0.4784  0.3472 -0.2271
 6705SOL    HW221188   7.409   6.759   4.375  0.1999  0.6039 -0.3773
 6706SOL     OW21189   0.171   7.410   7.867  0.3730 -0.3780 -0.2021
 6706SOL    HW121190   0.206   7.498   7.856 -1.1769  0.1582 -1.2134
 6706SOL    HW221191   0.183   7.390   7.959  0.0827  1.1912  0.1972
 6707SOL     OW21192   5.510   1.874   3.225 -0.3657 -0.0272  0.5850
 6707SOL    HW121193   5.504   1.954   3.173 -1.7770 -1.4945 -1.6932
 6707SOL    HW221194   5.428   1.872   3.274 -1.0182 -0.7753 -0.5059
 6708SOL     OW21195   5.385   4.868   8.154  0.0328  0.8367 -0.0535
 6708SOL    HW121196   5.338   4.792   8.118 -0.1245  1.4675 -1.2556
 6708SOL    HW221197   5.317   4.934   8.166 -0.1002  0.3491  2.4531
 6709SOL     OW21198   7.436   5.704   4.132 -0.1540  0.2555 -0.2757
 6709SOL    HW121199   7.476   5.790   4.139  0.6970 -0.2021  0.6585
 6709SOL    HW221200   7.499   5.652   4.081  0.6685 -0.5772  1.5267
 6710SOL     OW21201   0.679   2.425   1.250  0.2438 -0.3102 -0.1572
 6710SOL    HW121202   0.640   2.364   1.188  2.0610  0.0166 -1.6959
 6710SOL    HW221203   0.711   2.369   1.321 -2.3110 -0.6360  0.8736
 6711SOL     OW21204   2.187   0.492   3.904 -0.2550 -0.0993  0.0720
 6711SOL    HW121205   2.192   0.458   3.814  1.4559  1.5583 -0.5340
 6711SOL    HW221206   2.135   0.571   3.897  1.1219  0.8573  0.2098
 6712SOL     OW21207   1.884   6.651   0.251  0.4930  0.2397  0.2501
 6712SOL    HW121208   1.844   6.627   0.335 -0.6386  2.7595  0.5513
 6712SOL    HW221209   1.978   6.644   0.266  0.2826 -1.0153  1.1522
 6713SOL     OW21210   1.372   4.641   0.922  0.4554  0.6422  0.7118
 6713SOL    HW121211   1.357   4.546   0.921  0.5551  0.6281  0.3758
 6713SOL    HW221212   1.450   4.654   0.869 -0.0892  0.9949 -0.0319
 6714SOL     OW21213   7.001   7.592   2.079  0.1702  0.2397  0.1212
 6714SOL    HW121214   7.081   7.586   2.131 -0.3511 -0.8549  0.8253
 6714SOL    HW221215   6.934   7.620   2.141 -0.0326  1.0473 -0.4437
 6715SOL     OW21216   5.359   5.052   1.982 -0.5501  0.2101 -0.3211
 6715SOL    HW121217   5.277   5.017   2.016  0.1816 -0.4804  0.7844
 6715SOL    HW221218   5.375   5.002   1.903  0.1081 -1.5206  0.8417
 6716SOL     OW21219   1.110   5.522   2.034  0.1355  0.4082  0.0035
 6716SOL    HW121220   1.090   5.600   1.983  1.4315 -0.1909 -1.4969
 6716SOL    HW221221   1.190   5.487   1.994 -0.8674 -2.1696  0.0764
 6717SOL     OW21222   7.165   1.612   2.125  0.2357  0.1028  0.1925
 6717SOL    HW121223   7.083   1.654   2.098  0.7021  1.7655  1.1819
 6717SOL    HW221224   7.149   1.518   2.112 -1.2771  0.4787 -1.0380
 6718SOL     OW21225   0.149   3.682   4.254  1.1240  0.3987 -0.3343
 6718SOL    HW121226   0.078   3.745   4.240  2.6303  2.7215  1.4938
 6718SOL    HW221227   0.209   3.697   4.180 -0.0752 -1.3965 -1.7490
 6719SOL     OW21228   5.010   4.574   7.523 -0.4426 -0.0937 -0.0600
 6719SOL    HW121229   4.972   4.577   7.610 -1.6057 -0.4642 -0.5375
 6719SOL    HW221230   4.939   4.599   7.464  0.0632 -0.7197 -0.9710
 6720SOL     OW21231   1.847   7.101   5.024 -0.2285  0.0808  0.4051
 6720SOL    HW121232   1.867   7.078   5.115  0.7118  0.4760  0.3126
 6720SOL    HW221233   1.752   7.091   5.017 -0.1737 -1.0494  1.1149
 6721SOL     OW21234   2.169   7.326   4.333  0.3852 -0.7990 -0.2402
 6721SOL    HW121235   2.143   7.244   4.292 -0.8288 -0.2747 -0.5844
 6721SOL    HW221236   2.086   7.365   4.361  1.0171 -0.1340  0.7745
 6722SOL     OW21237   3.361   3.346   1.506  0.3115  0.5522 -0.1850
 6722SOL    HW121238   3.402   3.305   1.430  0.4750  1.2644 -0.4801
 6722SOL    HW221239   3.313   3.274   1.548  0.2931  0.1346 -0.9008
 6723SOL     OW21240   5.097   1.744   7.085  0.1592 -0.1277 -0.1486
 6723SOL    HW121241   5.184   1.725   7.120  0.8322  0.1095 -1.5994
 6723SOL    HW221242   5.049   1.661   7.091  0.5974 -0.3472  0.3468
 6724SOL     OW21243   5.082   0.482   6.987  0.2945  0.4539 -0.0910
 6724SOL    HW121244   5.112   0.406   7.037  2.5195  0.6698 -0.9858
 6724SOL    HW221245   5.001   0.509   7.031  0.9471 -0.7254  1.9862
 6725SOL     OW21246   1.956   7.478   4.433  0.5820 -0.2348 -0.4120
 6725SOL    HW121247   1.861   7.477   4.421  0.5195 -0.0582  0.0464
 6725SOL    HW221248   1.969   7.447   4.523  0.9271  0.2435 -0.2927
 6726SOL     OW21249   0.311   0.737   7.722  0.3332  0.6893  0.2887
 6726SOL    HW121250   0.290   0.737   7.815  1.6507  0.0654  0.6014
 6726SOL    HW221251   0.313   0.830   7.698  0.5354  0.8743  1.0116
 6727SOL     OW21252   4.385   2.625   3.767  0.1368 -0.2253  0.2844
 6727SOL    HW121253   4.358   2.542   3.727  3.5298 -0.5240 -1.6967
 6727SOL    HW221254   4.397   2.685   3.694 -1.4939  1.8997  1.6255
 6728SOL     OW21255   4.666   5.159   0.972  0.0069  0.2587  0.0913
 6728SOL    HW121256   4.671   5.203   1.057 -1.8885 -1.0830  0.9676
 6728SOL    HW221257   4.579   5.181   0.939 -1.1094 -2.8256  0.6520
 6729SOL     OW21258   5.370   4.746   5.543  0.1438 -0.1540  0.1719
 6729SOL    HW121259   5.407   4.719   5.459 -0.9194  0.3543 -0.4741
 6729SOL    HW221260   5.337   4.834   5.527 -0.9458 -0.4248  0.8553
 6730SOL     OW21261   2.418   7.055   1.008 -0.1434 -0.6981 -0.4839
 6730SOL    HW121262   2.331   7.093   1.003  0.2904  0.9127  2.0607
 6730SOL    HW221263   2.466   7.111   1.069  2.5716 -1.7656 -1.4394
 6731SOL     OW21264   0.126   6.883   1.987  0.5293 -0.2504  0.1320
 6731SOL    HW121265   0.193   6.931   2.036  0.4230 -0.8492  0.8880
 6731SOL    HW221266   0.134   6.792   2.017 -1.0645 -0.2178  0.7621
 6732SOL     OW21267   4.295   4.665   5.919 -0.1771  0.0110  0.4020
 6732SOL    HW121268   4.308   4.757   5.939 -0.3118 -0.2125  1.6041
 6732SOL    HW221269   4.327   4.655   5.829 -0.0775  1.1970  0.2905
 6733SOL     OW21270   7.981   0.465   0.332 -0.6563 -0.3767  0.2112
 6733SOL    HW121271   8.003   0.528   0.400  0.3716 -1.4122  0.8830
 6733SOL    HW221272   8.004   0.509   0.250 -2.0832  0.9564  0.4674
 6734SOL     OW21273   6.412   2.685   2.505  0.4743 -0.9645 -0.1657
 6734SOL    HW121274   6.337   2.717   2.555  1.8560 -0.0893  1.4971
 6734SOL    HW221275   6.375   2.648   2.425 -1.6126  0.5386  0.0292
 6735SOL     OW21276   7.872   4.555   4.503  0.4955 -0.0264  0.3145
 6735SOL    HW121277   7.966   4.569   4.491  0.2898 -0.3707 -2.2118
 6735SOL    HW221278   7.864   4.463   4.529  0.9645  0.7238  3.5450
 6736SOL     OW21279   1.746   6.589   3.866  0.6376 -0.1102  0.3893
 6736SOL    HW121280   1.808   6.546   3.925 -0.3939  0.3736  1.8685
 6736SOL    HW221281   1.662   6.585   3.911 -0.4513 -0.6960 -1.5401
 6737SOL     OW21282   0.722   3.730   7.917  0.5167 -0.0979 -0.2215
 6737SOL    HW121283   0.815   3.746   7.901  0.4290  0.2806 -0.3825
 6737SOL    HW221284   0.706   3.644   7.880  0.7342 -0.0253 -0.4962
 6738SOL     OW21285   4.160   6.044   8.128  0.2308 -0.0971 -0.2490
 6738SOL    HW121286   4.232   6.019   8.070 -0.2891 -1.3478 -0.3838
 6738SOL    HW221287   4.105   6.102   8.074  0.7077  0.2081 -0.4094
 6739SOL     OW21288   3.437   6.830   6.025  0.5757  0.0390 -0.0673
 6739SOL    HW121289   3.388   6.750   6.046 -2.5429  1.6974 -0.3984
 6739SOL    HW221290   3.419   6.845   5.933  1.2465  1.0626 -0.0383
 6740SOL     OW21291   7.257   3.334   1.698 -0.4007  0.4360 -0.2028
 6740SOL    HW121292   7.320   3.263   1.711 -1.3068 -0.4631 -0.5207
 6740SOL    HW221293   7.244   3.338   1.603 -1.5587 -0.0821 -0.0834
 6741SOL     OW21294   5.313   1.372   7.626 -0.2021  0.2945  0.0408
 6741SOL    HW121295   5.408   1.359   7.634  0.0765  2.4604  0.9602
 6741SOL    HW221296   5.297   1.372   7.531  0.3656 -1.9137 -0.1197
 6742SOL     OW21297   7.187   5.463   0.815 -0.2810 -0.5191  1.0293
 6742SOL    HW121298   7.259   5.490   0.759 -0.8181  0.6145  0.8613
 6742SOL    HW221299   7.192   5.520   0.891 -0.7962 -0.6467  1.1664
 6743SOL     OW21300   7.297   2.757   2.686  0.1556 -0.6153 -0.5531
 6743SOL    HW121301   7.300   2.852   2.688  0.5403 -0.6300  0.5899
 6743SOL    HW221302   7.206   2.735   2.668 -0.5043 -0.0022  1.6617
 6744SOL     OW21303   5.182   6.174   4.683 -0.2209  0.3564  0.5273
 6744SOL    HW121304   5.205   6.244   4.621  1.0362 -1.0438 -0.6578
 6744SOL    HW221305   5.209   6.208   4.768  1.1971  0.9879 -0.1411
 6745SOL     OW21306   3.325   4.770   7.173  0.0592  0.0702  0.1772
 6745SOL    HW121307   3.388   4.793   7.105  1.6947 -0.8693  1.3026
 6745SOL    HW221308   3.335   4.838   7.240 -0.7265  0.3610  0.0127
 6746SOL     OW21309   7.319   6.775   2.885  0.3751 -0.6767  0.2744
 6746SOL    HW121310   7.290   6.813   2.968 -0.4700 -1.9602  0.5891
 6746SOL    HW221311   7.401   6.730   2.906  1.1095  0.4891  0.0074
 6747SOL     OW21312   1.240   5.469   0.085  0.4678  0.2213  0.5379
 6747SOL    HW121313   1.185   5.536   0.044 -1.2760 -0.2109  2.0311
 6747SOL    HW221314   1.250   5.499   0.176 -0.8900 -1.7992  1.4297
 6748SOL     OW21315   6.714   3.916   4.702  0.6350  0.7615 -0.7893
 6748SOL    HW121316   6.758   3.994   4.736  0.1048  0.8490 -0.2980
 6748SOL    HW221317   6.745   3.844   4.758 -1.0241  1.0590  0.6039
 6749SOL     OW21318   3.190   4.243   2.787  0.3917 -0.3907  0.1240
 6749SOL    HW121319   3.169   4.309   2.720  1.8418 -0.7549 -0.7266
 6749SOL    HW221320   3.127   4.173   2.772  0.5438 -0.3556 -0.6982
 6750SOL     OW21321   0.639   3.212   2.950 -0.0217  0.8636 -0.2590
 6750SOL    HW121322   0.623   3.158   3.027 -2.5800  0.4819 -0.9602
 6750SOL    HW221323   0.652   3.301   2.984  0.6303  0.4090  0.6942
 6751SOL     OW21324   5.433   0.989   6.038  0.2844 -0.3158 -0.2647
 6751SOL    HW121325   5.485   0.953   6.110 -1.0910  0.1830  1.0271
 6751SOL    HW221326   5.403   1.074   6.070 -2.0005 -0.9349 -0.6152
 6752SOL     OW21327   2.674   5.068   3.928 -0.4817  0.4928  0.2311
 6752SOL    HW121328   2.598   5.015   3.902  0.7235 -1.4805  0.4924
 6752SOL    HW221329   2.739   5.052   3.860  0.6219 -0.0187  1.3477
 6753SOL     OW21330   4.465   7.849   2.269 -0.4534  0.1361 -0.5378
 6753SOL    HW121331   4.397   7.860   2.202 -0.9936 -1.5702 -0.3016
 6753SOL    HW221332   4.418   7.821   2.347  0.3746  0.3770  0.0586
 6754SOL     OW21333   2.129   5.078   7.327  0.6395  0.0535 -0.1764
 6754SOL    HW121334   2.191   5.005   7.328  0.8401  0.2319  0.2275
 6754SOL    HW221335   2.043   5.036   7.319  0.6136 -0.3221  1.7309
 6755SOL     OW21336   8.163   6.518   3.502 -0.4071 -0.6115 -0.5658
 6755SOL    HW121337   8.177   6.441   3.446 -0.5740 -1.0116 -0.0577
 6755SOL    HW221338   8.128   6.483   3.583 -1.1977  0.0770 -0.5992
 6756SOL     OW21339   0.086   7.329   5.987 -0.0858 -0.0591 -0.0228
 6756SOL    HW121340   0.057   7.420   5.986 -1.0472 -0.3466  0.2670
 6756SOL    HW221341   0.012   7.280   5.952  0.0263 -0.8297  0.7891
 6757SOL     OW21342   0.628   6.805   2.319 -0.1827  0.0696  0.1317
 6757SOL    HW121343   0.682   6.801   2.398 -0.3299  0.4052  0.2533
 6757SOL    HW221344   0.584   6.720   2.316  2.8039 -1.5842 -1.7669
 6758SOL     OW21345   3.529   5.275   7.800 -0.4505 -0.0155 -0.8405
 6758SOL    HW121346   3.566   5.349   7.752 -1.3215  0.7168 -0.4182
 6758SOL    HW221347   3.496   5.216   7.732 -2.2015  1.2865 -1.1760
 6759SOL     OW21348   5.742   1.186   5.633  0.0977  0.4036  0.0016
 6759SOL    HW121349   5.688   1.112   5.659 -1.7989  1.8190  0.3189
 6759SOL    HW221350   5.680   1.257   5.618  1.8316  1.9427 -0.2912
 6760SOL     OW21351   6.621   5.670   4.057 -0.1275  0.0940 -0.2878
 6760SOL    HW121352   6.621   5.716   4.142 -0.7763  2.3212 -1.3954
 6760SOL    HW221353   6.713   5.659   4.036  0.0641  0.8982  0.0522
 6761SOL     OW21354   3.668   3.532   4.730  0.7594  0.2187 -0.0240
 6761SOL    HW121355   3.578   3.503   4.716  0.7788  0.0588  0.1734
 6761SOL    HW221356   3.709   3.460   4.778  1.4050 -0.3612 -1.3972
 6762SOL     OW21357   7.905   7.088   4.105  0.6472  0.5081  0.4416
 6762SOL    HW121358   7.985   7.093   4.053  1.1209  0.8742  1.1798
 6762SOL    HW221359   7.861   7.009   4.075 -0.3299  1.9106 -2.2087
 6763SOL     OW21360   3.039   7.587   4.136  0.1983  0.0475 -0.1750
 6763SOL    HW121361   3.003   7.569   4.223 -0.6325  0.4575 -0.4224
 6763SOL    HW221362   2.962   7.608   4.082  0.5755 -1.2731 -1.2868
 6764SOL     OW21363   5.044   7.225   6.327 -0.5986  0.5557 -0.3551
 6764SOL    HW121364   5.093   7.174   6.392  0.5543  0.1122 -1.5304
 6764SOL    HW221365   4.960   7.241   6.369 -0.8400 -1.8918  0.2981
 6765SOL     OW21366   6.495   4.634   6.904 -0.1000  0.1366  0.4901
 6765SOL    HW121367   6.563   4.620   6.838 -1.8262  0.2846 -1.4315
 6765SOL    HW221368   6.506   4.725   6.931  0.5867  0.1037  0.3339
 6766SOL     OW21369   5.157   6.780   3.672 -0.0034  0.1513 -0.1883
 6766SOL    HW121370   5.184   6.816   3.756  1.3118  0.5147 -0.7349
 6766SOL    HW221371   5.062   6.789   3.671  0.0077  0.5473  1.0681
 6767SOL     OW21372   5.006   0.978   6.742 -0.2932 -0.0533  0.7341
 6767SOL    HW121373   4.960   1.050   6.700 -0.9054  0.0521  1.5523
 6767SOL    HW221374   4.971   0.899   6.699 -1.5854  0.0000  1.6371
 6768SOL     OW21375   3.209   5.955   0.784 -0.1849  0.2601  0.4654
 6768SOL    HW121376   3.289   5.986   0.742 -0.2841 -0.7223 -0.5195
 6768SOL    HW221377   3.148   6.028   0.778  0.1560  0.5009 -0.1679
 6769SOL     OW21378   6.082   7.360   6.039  0.2419  0.0086  0.3782
 6769SOL    HW121379   6.015   7.292   6.030  1.3950 -0.9570 -1.3914
 6769SOL    HW221380   6.100   7.389   5.950  0.6646  1.8161  0.9875
 6770SOL     OW21381   6.722   4.401   7.058  0.1296  0.0636  0.5982
 6770SOL    HW121382   6.706   4.385   6.965  2.6321  1.2775 -0.1097
 6770SOL    HW221383   6.740   4.314   7.095  2.7891 -0.0871 -0.8773
 6771SOL     OW21384   1.501   1.895   1.441 -0.3035 -0.4063 -0.5508
 6771SOL    HW121385   1.481   1.952   1.516 -0.3587 -0.6642 -0.3698
 6771SOL    HW221386   1.545   1.953   1.378 -0.0767 -0.2357 -0.2372
 6772SOL     OW21387   5.841   2.004   1.699  0.3987 -0.7466  0.6175
 6772SOL    HW121388   5.873   2.075   1.755 -1.3392  2.4443 -2.0732
 6772SOL    HW221389   5.775   2.045   1.644  0.5156 -4.1060 -2.3792
 6773SOL     OW21390   2.915   4.215   5.361 -0.3219  0.6881 -0.5791
 6773SOL    HW121391   2.913   4.246   5.270 -0.1630  1.7388 -0.2394
 6773SOL    HW221392   3.006   4.190   5.376 -0.7558 -1.6071 -1.3627
 6774SOL     OW21393   7.959   4.498   0.654  0.0042 -0.5022  0.1517
 6774SOL    HW121394   7.942   4.565   0.587  1.0756 -1.1330 -0.7867
 6774SOL    HW221395   7.914   4.530   0.732  0.6352  1.4065 -0.2130
 6775SOL     OW21396   0.124   1.063   6.608 -0.6485 -0.4930 -0.1025
 6775SOL    HW121397   0.177   1.135   6.574 -0.0430 -0.9189 -0.0808
 6775SOL    HW221398   0.073   1.102   6.679  1.0928 -0.4954  1.1967
 6776SOL     OW21399   1.393   1.011   7.362 -0.3221  0.3875  0.7547
 6776SOL    HW121400   1.449   0.974   7.430  0.6543 -0.4284 -0.4305
 6776SOL    HW221401   1.431   0.978   7.280 -1.7630  0.9017 -0.1547
 6777SOL     OW21402   4.709   7.830   4.628 -0.0103 -0.1126 -0.3432
 6777SOL    HW121403   4.722   7.740   4.660  0.5822 -0.2695 -0.9885
 6777SOL    HW221404   4.689   7.881   4.706 -0.5716 -0.8498  0.0041
 6778SOL     OW21405   3.100   8.103   1.878  0.2810  0.3816 -0.3630
 6778SOL    HW121406   3.031   8.084   1.814  0.4016 -0.5713 -0.2172
 6778SOL    HW221407   3.112   8.198   1.871  1.9452  0.0711 -3.4468
 6779SOL     OW21408   6.649   7.933   0.923 -0.8089 -0.1956  0.5247
 6779SOL    HW121409   6.735   7.930   0.881 -0.3130 -1.1095  1.5481
 6779SOL    HW221410   6.668   7.947   1.016 -1.7852 -0.0303  0.7112
 6780SOL     OW21411   4.680   7.905   6.143  0.2894  0.7018  0.2502
 6780SOL    HW121412   4.653   7.974   6.082 -0.8326  0.1963  0.1633
 6780SOL    HW221413   4.737   7.950   6.205  0.2095  1.5474 -0.2727
 6781SOL     OW21414   4.019   0.277   6.485  0.3015  0.0888 -0.1177
 6781SOL    HW121415   4.048   0.332   6.557  2.9791 -1.6697  0.2768
 6781SOL    HW221416   3.972   0.205   6.527 -0.4101  0.4038 -0.3623
 6782SOL     OW21417   2.855   5.931   5.690 -0.9071  0.1596 -0.5766
 6782SOL    HW121418   2.828   6.015   5.726  0.5933  0.7172 -0.6732
 6782SOL    HW221419   2.864   5.874   5.767  2.4734  1.4011  0.1448
 6783SOL     OW21420   2.225   7.469   7.665  0.6891  0.4342  0.2968
 6783SOL    HW121421   2.299   7.517   7.627  1.2505 -1.0013 -0.4742
 6783SOL    HW221422   2.252   7.377   7.664 -1.2421 -0.1744 -0.3071
 6784SOL     OW21423   0.189   0.284   5.588 -0.0286 -0.2800 -0.6529
 6784SOL    HW121424   0.212   0.353   5.525  1.7794 -0.3037 -0.0833
 6784SOL    HW221425   0.231   0.205   5.554 -1.9997 -1.1311 -1.2416
 6785SOL     OW21426   8.012   2.032   2.084 -0.1715 -0.1982  0.1585
 6785SOL    HW121427   8.074   1.980   2.033  0.6530  0.3103  0.6200
 6785SOL    HW221428   7.954   2.072   2.019 -0.4862 -1.2589 -0.2284
 6786SOL     OW21429   7.397   4.918   5.497 -0.5513 -0.0689  0.4884
 6786SOL    HW121430   7.347   4.998   5.489  1.2205  1.0441 -0.0696
 6786SOL    HW221431   7.479   4.936   5.450 -0.7682 -2.7759 -1.1386
 6787SOL     OW21432   5.301   3.752   4.625 -0.2284  0.4704  0.0785
 6787SOL    HW121433   5.308   3.847   4.626 -1.5943  0.5897  0.3819
 6787SOL    HW221434   5.264   3.729   4.710 -0.8988 -0.2261 -0.3756
 6788SOL     OW21435   4.631   2.076   3.222 -0.4996  0.4240 -0.0006
 6788SOL    HW121436   4.720   2.112   3.229 -0.7472  0.8762  1.1046
 6788SOL    HW221437   4.591   2.095   3.307 -1.2214 -0.9583 -0.0022
 6789SOL     OW21438   2.203   0.977   2.850  0.0095 -0.0430  0.2523
 6789SOL    HW121439   2.164   0.946   2.768 -1.3078  0.3805  0.6934
 6789SOL    HW221440   2.296   0.955   2.842 -0.3997 -1.6467 -0.5785
 6790SOL     OW21441   3.310   3.224   7.087 -0.0445 -0.5861  0.1611
 6790SOL    HW121442   3.325   3.239   6.994  1.4647 -1.4121  0.2468
 6790SOL    HW221443   3.332   3.307   7.129  1.4456 -0.8631 -0.0286
 6791SOL     OW21444   0.416   6.862   4.970 -0.6433 -0.6573  0.0926
 6791SOL    HW121445   0.343   6.922   4.953  1.8795  2.7412  0.2823
 6791SOL    HW221446   0.490   6.900   4.922  1.7011 -2.3262  2.1438
 6792SOL     OW21447   6.092   4.645   3.078 -0.6954  0.3867  0.2276
 6792SOL    HW121448   6.027   4.596   3.128  1.5024 -2.6194  0.4373
 6792SOL    HW221449   6.126   4.711   3.139 -0.4103 -1.0269  1.6466
 6793SOL     OW21450   7.270   7.307   2.938 -0.3003 -0.3196  0.2310
 6793SOL    HW121451   7.301   7.367   3.006 -1.6974 -0.1327  0.7358
 6793SOL    HW221452   7.281   7.356   2.856 -1.9121  0.9049  0.6813
 6794SOL     OW21453   3.323   7.570   0.464 -0.1498 -0.1286  0.2294
 6794SOL    HW121454   3.372   7.499   0.507 -2.7135 -2.2905 -0.1901
 6794SOL    HW221455   3.276   7.527   0.393 -0.9231  2.2520 -0.7964
 6795SOL     OW21456   3.383   1.309   2.064  0.2636 -0.2728  0.4331
 6795SOL    HW121457   3.429   1.284   2.144 -0.4998 -0.9448  0.6750
 6795SOL    HW221458   3.452   1.321   1.999  0.8643 -0.0195  1.1118
 6796SOL     OW21459   5.081   0.726   0.605 -0.2323 -0.0151  0.6006
 6796SOL    HW121460   5.162   0.683   0.576 -0.3063  0.0519  0.2913
 6796SOL    HW221461   5.012   0.663   0.585 -0.5771  0.9421 -1.6106
 6797SOL     OW21462   5.631   2.238   7.760 -0.1076 -0.2160 -0.1897
 6797SOL    HW121463   5.663   2.266   7.846  0.9900 -1.3276 -0.1981
 6797SOL    HW221464   5.656   2.309   7.700 -2.8368  1.6320  0.6838
 6798SOL     OW21465   1.901   4.197   3.900  0.3177 -0.4319 -0.2022
 6798SOL    HW121466   1.828   4.170   3.956  0.5128 -0.2521  0.1368
 6798SOL    HW221467   1.865   4.191   3.811 -1.3265  3.0933  0.0538
 6799SOL     OW21468   4.508   1.704   2.968  0.6971  0.9052 -0.4289
 6799SOL    HW121469   4.505   1.799   2.980  1.0037  0.8980 -0.2745
 6799SOL    HW221470   4.470   1.669   3.049  3.2737  0.8447  0.8792
 6800SOL     OW21471   5.011   3.563   0.248 -0.0980  0.5065  0.7381
 6800SOL    HW121472   4.945   3.535   0.184  0.3060 -0.4306  0.7098
 6800SOL    HW221473   4.972   3.639   0.291 -0.3115  1.2468 -0.7180
 6801SOL     OW21474   2.204   6.526   3.310  0.3758 -0.2560  0.2301
 6801SOL    HW121475   2.143   6.571   3.251  1.3926  1.4612  0.4171
 6801SOL    HW221476   2.162   6.529   3.395  0.3172  0.1309  0.1895
 6802SOL     OW21477   7.857   6.527   5.804 -0.3076  0.3559 -0.2735
 6802SOL    HW121478   7.895   6.615   5.811  0.3858 -0.0558  2.4836
 6802SOL    HW221479   7.765   6.539   5.829 -0.1978  0.3054  0.1639
 6803SOL     OW21480   0.375   7.222   0.941 -0.6995 -0.5295  0.1641
 6803SOL    HW121481   0.323   7.302   0.929  0.7200  0.1612 -1.9382
 6803SOL    HW221482   0.450   7.250   0.992 -1.4198 -1.1155  1.5857
 6804SOL     OW21483   6.626   1.378   7.481  0.7380  0.1507 -0.2941
 6804SOL    HW121484   6.641   1.373   7.575  1.1572 -1.9940 -0.4228
 6804SOL    HW221485   6.625   1.472   7.462 -0.1775  0.6630  1.9517
 6805SOL     OW21486   7.625   4.971   6.580  0.2670 -0.4223 -0.0562
 6805SOL    HW121487   7.581   4.886   6.578  0.4488 -0.5113 -0.8404
 6805SOL    HW221488   7.657   4.983   6.490  1.1474  0.0022  0.2998
 6806SOL     OW21489   2.695   1.018   3.211 -0.6366  0.0955 -0.1612
 6806SOL    HW121490   2.613   0.977   3.238 -0.6375 -0.3483 -0.8310
 6806SOL    HW221491   2.686   1.033   3.117  0.1704 -0.2593 -0.3098
 6807SOL     OW21492   1.868   6.910   5.737  0.3456  0.0727 -0.4730
 6807SOL    HW121493   1.866   6.891   5.831 -0.0308 -1.9531 -0.8359
 6807SOL    HW221494   1.778   6.892   5.708  0.5240  0.4378 -1.2575
 6808SOL     OW21495   2.799   6.438   6.840  0.4940  0.3518  0.0881
 6808SOL    HW121496   2.799   6.524   6.883 -2.1429 -0.4092  1.8981
 6808SOL    HW221497   2.744   6.451   6.763  0.3866  0.4092  0.1717
 6809SOL     OW21498   4.813   0.408   5.994 -0.2786  0.1441 -0.5431
 6809SOL    HW121499   4.772   0.470   5.935  1.2405  1.0884 -0.6566
 6809SOL    HW221500   4.904   0.402   5.964 -0.3630 -2.1929 -0.5751
 6810SOL     OW21501   3.599   5.426   6.361 -0.5314 -0.0676  0.0842
 6810SOL    HW121502   3.679   5.403   6.408 -0.4160  0.5454  0.1913
 6810SOL    HW221503   3.529   5.378   6.407 -0.2371 -0.5521  0.0287
 6811SOL     OW21504   0.918   0.101   3.339 -0.0291 -0.1665  0.4205
 6811SOL    HW121505   0.984   0.055   3.287 -0.1811  0.8636 -0.7163
 6811SOL    HW221506   0.968   0.137   3.413  0.8526  1.0970 -0.7228
 6812SOL     OW21507   1.292   1.114   0.406 -0.3263  0.1245 -0.2828
 6812SOL    HW121508   1.198   1.118   0.388 -0.4026 -1.7830 -0.6012
 6812SOL    HW221509   1.333   1.115   0.319 -0.1477 -0.2974 -0.2082
 6813SOL     OW21510   2.980   6.292   6.717 -0.4401 -0.3440 -0.3396
 6813SOL    HW121511   3.072   6.306   6.741  0.5878  1.0890 -4.3142
 6813SOL    HW221512   2.931   6.352   6.774  0.9468 -1.2601  1.9813
 6814SOL     OW21513   4.944   0.856   1.259  0.3082  0.0756 -0.0509
 6814SOL    HW121514   4.928   0.920   1.329  0.9211  2.0446 -1.6238
 6814SOL    HW221515   5.023   0.887   1.215 -0.8072 -0.2918 -2.4658
 6815SOL     OW21516   7.845   3.045   0.055  0.5119  0.1806 -0.2257
 6815SOL    HW121517   7.831   3.119  -0.004  0.3120 -0.8634 -1.5372
 6815SOL    HW221518   7.903   3.079   0.123  0.8070  1.4006 -1.0597
 6816SOL     OW21519   2.922   0.669   2.724 -0.4906  0.2832  0.2742
 6816SOL    HW121520   2.932   0.579   2.693  0.3743 -0.3950  2.3385
 6816SOL    HW221521   2.858   0.663   2.795 -0.3099  1.2658  0.5347
 6817SOL     OW21522   0.278   4.294   1.054 -0.6962  0.1091  0.3472
 6817SOL    HW121523   0.298   4.205   1.081  0.0579  0.8618  2.5862
 6817SOL    HW221524   0.255   4.288   0.962  0.1376 -2.2626  0.2407
 6818SOL     OW21525   3.092   1.734   5.925 -0.9365 -0.0394  0.2546
 6818SOL    HW121526   2.999   1.713   5.929 -0.6540 -1.4072  0.1167
 6818SOL    HW221527   3.110   1.780   6.007 -1.0049 -3.0656  2.1131
 6819SOL     OW21528   1.712   0.882   6.469  0.2649  0.0027 -0.2691
 6819SOL    HW121529   1.685   0.875   6.377 -0.8473 -0.1924  0.0589
 6819SOL    HW221530   1.799   0.921   6.465 -0.2731  1.1831 -1.3689
 6820SOL     OW21531   4.323   7.971   7.098  0.0935  0.1486 -0.3329
 6820SOL    HW121532   4.381   8.046   7.089  1.5486 -1.0692 -1.5917
 6820SOL    HW221533   4.351   7.927   7.178  0.3132  0.0746 -0.4493
 6821SOL     OW21534   5.996   5.263   0.611 -0.1535 -1.1924 -0.7843
 6821SOL    HW121535   6.003   5.353   0.578  0.9471 -0.3197  1.5837
 6821SOL    HW221536   6.084   5.227   0.600  0.5425 -0.5323  1.8641
 6822SOL     OW21537   4.755   7.150   5.296 -0.1467 -0.3271  0.0646
 6822SOL    HW121538   4.848   7.137   5.316 -0.1995 -0.4203  0.2482
 6822SOL    HW221539   4.731   7.074   5.244 -0.4438 -0.9579  1.0954
 6823SOL     OW21540   6.602   7.096   7.020 -0.2201 -0.2471 -0.0636
 6823SOL    HW121541   6.658   7.126   7.091 -0.3047  3.2422 -1.2455
 6823SOL    HW221542   6.650   7.120   6.940 -2.6084  1.5321 -1.0954
 6824SOL     OW21543   1.476   0.253   5.145 -0.2999 -0.0123  0.2257
 6824SOL    HW121544   1.399   0.296   5.182 -0.0235  0.1857  0.5766
 6824SOL    HW221545   1.512   0.202   5.218  0.0248  0.0682  0.1244
 6825SOL     OW21546   0.240   1.796   7.879 -0.2401  0.0414  0.7173
 6825SOL    HW121547   0.213   1.713   7.919 -1.4781  0.0741  0.0076
 6825SOL    HW221548   0.254   1.774   7.787 -1.6934  0.8060  0.2727
 6826SOL     OW21549   5.880   7.869   6.304  0.6015  0.3571 -0.0967
 6826SOL    HW121550   5.831   7.848   6.224  0.7512 -0.6764  0.0707
 6826SOL    HW221551   5.816   7.914   6.360  0.5422  1.2446 -0.8561
 6827SOL     OW21552   0.923   7.153   1.272 -0.1500  0.0748  0.3123
 6827SOL    HW121553   0.833   7.187   1.276 -0.5382 -0.4525 -2.0385
 6827SOL    HW221554   0.917   7.065   1.310 -0.2248  0.6701  1.7419
 6828SOL     OW21555   1.303   8.097   1.891 -0.2118 -0.1375  0.0524
 6828SOL    HW121556   1.363   8.060   1.826  0.6995  0.5417  0.4745
 6828SOL    HW221557   1.297   8.030   1.959  0.6530  0.0732  0.3477
 6829SOL     OW21558   3.372   5.682   6.807  0.0033  0.5183 -0.1251
 6829SOL    HW121559   3.445   5.627   6.835  0.9944  1.6038 -0.4807
 6829SOL    HW221560   3.343   5.642   6.725 -0.2790 -0.3259  0.3722
 6830SOL     OW21561   6.022   2.284   3.923 -0.2775  0.3672  0.8671
 6830SOL    HW121562   6.013   2.379   3.919  0.4576  0.4002 -1.4210
 6830SOL    HW221563   6.001   2.254   3.834 -2.0389 -1.7958  1.9259
 6831SOL     OW21564   3.234   6.035   3.037  0.1197 -0.1414 -0.6196
 6831SOL    HW121565   3.270   6.106   2.984  1.8483 -1.4005 -1.2420
 6831SOL    HW221566   3.304   6.014   3.099 -1.1101 -0.0304  0.8656
 6832SOL     OW21567   2.777   6.263   2.078 -0.3223  0.0577 -0.2527
 6832SOL    HW121568   2.793   6.171   2.100 -0.1691 -0.0425 -0.7664
 6832SOL    HW221569   2.755   6.262   1.985 -1.9317  0.3637  0.0986
 6833SOL     OW21570   1.399   7.370   1.114  0.2110 -0.7824  0.0074
 6833SOL    HW121571   1.324   7.413   1.074  0.1045 -0.8167  0.1709
 6833SOL    HW221572   1.474   7.399   1.062 -0.0717 -1.9143 -1.0933
 6834SOL     OW21573   2.971   8.034   7.129  0.1273  0.3707 -0.3661
 6834SOL    HW121574   2.997   8.125   7.144 -0.7493  0.5029  0.5220
 6834SOL    HW221575   3.040   7.997   7.074 -0.5248  2.1395 -2.5250
 6835SOL     OW21576   2.255   1.893   1.260 -0.1577 -0.3596 -0.3820
 6835SOL    HW121577   2.201   1.932   1.191 -0.2151  0.2795  0.0157
 6835SOL    HW221578   2.318   1.961   1.282  0.6547 -1.0142 -0.6629
 6836SOL     OW21579   4.369   6.629   3.881 -0.3347  0.1234 -0.1968
 6836SOL    HW121580   4.416   6.569   3.939 -1.2057 -0.3517  0.0310
 6836SOL    HW221581   4.317   6.572   3.825  0.1997  0.5936 -1.2036
 6837SOL     OW21582   7.673   1.684   6.643 -0.1169  0.0399 -0.6019
 6837SOL    HW121583   7.595   1.740   6.643 -0.7676 -0.8529  0.2549
 6837SOL    HW221584   7.720   1.708   6.723 -1.1522 -1.6329  0.5549
 6838SOL     OW21585   2.104   2.124   5.446 -0.0808  0.2205 -0.0980
 6838SOL    HW121586   2.181   2.068   5.456 -0.9273 -0.8846  0.4818
 6838SOL    HW221587   2.056   2.085   5.373 -2.1195 -1.6401  2.0768
 6839SOL     OW21588   6.867   4.119   1.055  0.4123 -0.2538  0.1791
 6839SOL    HW121589   6.916   4.058   1.110 -0.1879  0.5596  1.6751
 6839SOL    HW221590   6.783   4.076   1.039  0.7590 -0.6887 -0.5131
 6840SOL     OW21591   3.596   4.037   2.727 -0.2805 -0.4989  0.5198
 6840SOL    HW121592   3.602   4.034   2.631  0.4262 -1.6140  0.5850
 6840SOL    HW221593   3.557   4.123   2.745 -0.0872 -0.1138 -0.7482
 6841SOL     OW21594   1.524   0.455   7.736  0.3156 -0.1983  0.0152
 6841SOL    HW121595   1.518   0.514   7.811 -0.2133  1.6565 -1.4255
 6841SOL    HW221596   1.437   0.414   7.730 -0.1011  0.7377 -0.4294
 6842SOL     OW21597   7.999   7.520   0.957  0.7559 -0.5315  0.3532
 6842SOL    HW121598   7.993   7.553   0.867  1.9614  1.0928  0.8338
 6842SOL    HW221599   7.916   7.544   0.997 -1.1453 -3.9753 -1.0907
 6843SOL     OW21600   3.189   6.774   2.667  0.4525  0.1126  0.0843
 6843SOL    HW121601   3.226   6.690   2.694 -0.4280 -0.5132 -0.6109
 6843SOL    HW221602   3.100   6.775   2.702  0.8468  1.3159  1.1563
 6844SOL     OW21603   2.631   0.503   1.888 -0.3938 -0.4877 -0.3020
 6844SOL    HW121604   2.681   0.448   1.949 -0.4134 -0.5140 -0.3096
 6844SOL    HW221605   2.543   0.466   1.890 -0.2485 -0.8676 -0.8072
 6845SOL     OW21606   2.224   2.912   1.392  0.0020 -0.0968  0.4472
 6845SOL    HW121607   2.205   2.900   1.298  0.6936 -1.7185  0.4811
 6845SOL    HW221608   2.148   2.960   1.425 -0.4124  0.2203 -0.8871
 6846SOL     OW21609   7.764   6.800   3.075 -0.2315  0.2329  0.1410
 6846SOL    HW121610   7.824   6.874   3.069  0.7939 -0.6389 -0.8706
 6846SOL    HW221611   7.732   6.802   3.165  0.7917  1.1344  0.5053
 6847SOL     OW21612   6.382   4.363   4.714 -0.0434  0.9926 -0.2691
 6847SOL    HW121613   6.324   4.339   4.786 -0.4091 -2.1540 -1.4448
 6847SOL    HW221614   6.344   4.442   4.677 -0.8587  1.6537  1.8374
 6848SOL     OW21615   1.396   3.370   2.476 -0.5351 -0.0946  0.4560
 6848SOL    HW121616   1.393   3.396   2.384 -1.9891 -1.5120  0.0465
 6848SOL    HW221617   1.486   3.385   2.503  0.0492 -0.1417 -1.3538
 6849SOL     OW21618   2.743   7.323   5.978  0.3121 -0.4709 -0.4298
 6849SOL    HW121619   2.674   7.257   5.971 -1.1772  0.9360  0.2315
 6849SOL    HW221620   2.735   7.375   5.898  0.7993 -0.4588 -0.4755
 6850SOL     OW21621   3.684   0.490   6.058 -0.3863 -0.1152 -0.0360
 6850SOL    HW121622   3.696   0.418   5.996 -0.7730  0.5647 -0.9113
 6850SOL    HW221623   3.772   0.525   6.071  0.0227 -1.5014  1.3732
 6851SOL     OW21624   5.358   5.729   0.492 -0.6120 -0.2024  0.1794
 6851SOL    HW121625   5.347   5.755   0.401 -0.9349 -0.4702  0.1415
 6851SOL    HW221626   5.452   5.739   0.509 -0.8968  2.5455  0.6328
 6852SOL     OW21627   2.987   2.810   5.892 -0.0988 -0.0461 -0.2366
 6852SOL    HW121628   2.960   2.901   5.906 -0.6354 -0.3109  0.5147
 6852SOL    HW221629   2.921   2.775   5.831  1.1897  0.5825 -2.0934
 6853SOL     OW21630   5.459   7.124   0.664 -0.5791 -0.0570  0.1565
 6853SOL    HW121631   5.466   7.046   0.610  0.2160 -0.1112  0.3197
 6853SOL    HW221632   5.476   7.197   0.604  0.0693 -0.1034  0.2720
 6854SOL     OW21633   2.329   3.663   1.854 -0.3947  0.1093  0.2628
 6854SOL    HW121634   2.362   3.668   1.944  0.7677  0.8864 -0.1911
 6854SOL    HW221635   2.361   3.742   1.811 -0.6620 -0.3965 -0.9296
 6855SOL     OW21636   0.095   5.513   6.989 -0.3405 -0.2246  0.2458
 6855SOL    HW121637   0.005   5.487   7.008 -0.4537 -0.7745 -0.9914
 6855SOL    HW221638   0.100   5.605   7.017 -1.3967 -0.0732 -0.0287
 6856SOL     OW21639   3.551   0.265   7.915  0.2864 -0.0811  0.0561
 6856SOL    HW121640   3.515   0.184   7.878  0.2183 -0.3050  0.6166
 6856SOL    HW221641   3.495   0.286   7.989  1.1234 -0.2749  0.7608
 6857SOL     OW21642   5.102   5.035   2.865  0.2959 -0.1025 -0.0066
 6857SOL    HW121643   5.072   5.126   2.869  0.0149 -0.1787 -0.3838
 6857SOL    HW221644   5.146   5.028   2.781  0.0003 -0.4117 -0.1376
 6858SOL     OW21645   0.138   5.233   7.279  0.0503  0.2723  0.0352
 6858SOL    HW121646   0.198   5.274   7.217 -0.7364  1.0596 -0.2258
 6858SOL    HW221647   0.113   5.151   7.238  1.6043 -0.4817  0.5359
 6859SOL     OW21648   2.396   3.845   7.110 -0.2788 -0.1265 -0.1146
 6859SOL    HW121649   2.335   3.804   7.171 -0.7177  0.1427 -0.3661
 6859SOL    HW221650   2.458   3.892   7.166 -0.8819  0.4042  0.1154
 6860SOL     OW21651   3.755   1.201   3.647  0.2501 -0.1777  0.0448
 6860SOL    HW121652   3.752   1.210   3.551 -0.1316  0.5517  0.1199
 6860SOL    HW221653   3.845   1.222   3.670  0.5362 -1.0730 -0.2177
 6861SOL     OW21654   1.508   3.840   6.126  0.0984  0.2444 -0.1636
 6861SOL    HW121655   1.433   3.781   6.135  0.3011  0.1791  1.2773
 6861SOL    HW221656   1.469   3.927   6.122 -0.2313  0.0666 -2.6905
 6862SOL     OW21657   7.292   0.619   4.368  0.3030  0.1039  0.3558
 6862SOL    HW121658   7.304   0.620   4.273 -2.8479  0.0686 -0.1598
 6862SOL    HW221659   7.284   0.711   4.392  1.2339  0.1183  0.6113
 6863SOL     OW21660   7.688   4.044   0.510 -0.0044  0.3895 -0.1183
 6863SOL    HW121661   7.719   4.135   0.509  0.1798  0.3358  0.5144
 6863SOL    HW221662   7.713   4.011   0.596 -1.1683  0.1111  0.1226
 6864SOL     OW21663   6.098   6.263   4.907  0.6262 -0.2943 -0.1416
 6864SOL    HW121664   6.150   6.339   4.880 -0.4253  0.2477 -0.7111
 6864SOL    HW221665   6.015   6.273   4.860 -0.1383 -0.9423  1.0194
 6865SOL     OW21666   6.668   2.503   1.283  0.4139 -0.4633 -0.1227
 6865SOL    HW121667   6.740   2.523   1.224  0.1126  0.5657 -0.1599
 6865SOL    HW221668   6.704   2.516   1.371  0.2636  0.1151 -0.1429
 6866SOL     OW21669   5.688   1.600   6.530  0.2891 -0.7993 -0.1009
 6866SOL    HW121670   5.687   1.624   6.437  0.3352  0.6103  0.2452
 6866SOL    HW221671   5.776   1.566   6.545  0.1764 -1.3500 -0.6391
 6867SOL     OW21672   7.573   1.160   2.052 -0.2467 -0.2011  0.2645
 6867SOL    HW121673   7.643   1.123   1.997  0.3027  0.2901  0.6162
 6867SOL    HW221674   7.572   1.253   2.030  0.8746  0.2672  1.9870
 6868SOL     OW21675   4.851   1.841   2.306 -0.1776  0.0728 -0.3019
 6868SOL    HW121676   4.781   1.871   2.249  0.6846 -0.5037 -1.7366
 6868SOL    HW221677   4.869   1.751   2.277  0.9884  0.1293  0.1686
 6869SOL     OW21678   3.192   0.348   4.237  0.3415 -0.3484 -0.3228
 6869SOL    HW121679   3.286   0.364   4.228  0.0344  1.1668 -1.2298
 6869SOL    HW221680   3.157   0.365   4.149 -1.2604  3.0421  0.7928
 6870SOL     OW21681   1.156   2.144   1.543 -0.7194 -0.6072  0.2074
 6870SOL    HW121682   1.239   2.191   1.532 -1.8170  1.1543 -1.0964
 6870SOL    HW221683   1.150   2.127   1.637  0.2322  0.9462  0.5765
 6871SOL     OW21684   7.796   7.575   7.450  0.2319  0.3488  0.4756
 6871SOL    HW121685   7.839   7.559   7.533  0.4861 -0.6719  0.1569
 6871SOL    HW221686   7.862   7.554   7.384 -0.2864  0.1783  0.0047
 6872SOL     OW21687   5.315   0.368   4.494  0.3314 -0.5291  0.3851
 6872SOL    HW121688   5.254   0.441   4.489 -1.3217 -1.8132  0.8933
 6872SOL    HW221689   5.330   0.343   4.403  0.0032 -0.2850  0.2622
 6873SOL     OW21690   5.486   2.061   0.954 -0.8391 -0.3327 -0.0658
 6873SOL    HW121691   5.539   2.097   1.025 -0.5154 -0.7502 -0.0870
 6873SOL    HW221692   5.396   2.079   0.978 -0.7636 -0.9668  0.7321
 6874SOL     OW21693   4.413   2.408   1.047  0.1277  0.0377  0.5539
 6874SOL    HW121694   4.459   2.477   0.999  1.1197 -2.9830 -3.3587
 6874SOL    HW221695   4.320   2.433   1.042  0.4610  1.1511 -0.6743
 6875SOL     OW21696   2.332   4.343   6.788 -0.4855  0.1501  0.2369
 6875SOL    HW121697   2.241   4.316   6.791 -0.6449  0.6287 -0.2577
 6875SOL    HW221698   2.336   4.423   6.840 -0.1558 -0.4021  1.0760
 6876SOL     OW21699   4.090   0.570   3.724 -0.4801  1.1336 -0.1388
 6876SOL    HW121700   4.086   0.577   3.819  0.2720  1.4491 -0.1254
 6876SOL    HW221701   4.165   0.514   3.707 -2.8678 -2.2658 -0.4578
 6877SOL     OW21702   0.238   1.964   5.554  0.0811  0.0840  0.4290
 6877SOL    HW121703   0.197   1.878   5.542  0.2240 -0.2918  2.3528
 6877SOL    HW221704   0.173   2.026   5.520 -0.8997 -0.6696  0.8976
 6878SOL     OW21705   0.533   4.778   6.086  0.2725  0.3683 -0.4991
 6878SOL    HW121706   0.554   4.800   5.995 -1.3397  3.1017 -0.3241
 6878SOL    HW221707   0.577   4.846   6.137  0.5972 -0.7370  0.7568
 6879SOL     OW21708   1.960   5.128   6.398  0.3289  0.3988  0.2289
 6879SOL    HW121709   1.900   5.059   6.369  0.3833  0.4550 -0.0234
 6879SOL    HW221710   1.922   5.209   6.364  1.6009  0.2456 -1.7164
 6880SOL     OW21711   3.607   1.760   7.236 -0.6120  0.0991 -0.4967
 6880SOL    HW121712   3.520   1.721   7.229 -0.9858  0.9865 -1.0504
 6880SOL    HW221713   3.591   1.854   7.236  0.1742  0.2871  2.0546
 6881SOL     OW21714   5.808   2.530   0.635 -0.1312 -0.0564  0.8044
 6881SOL    HW121715   5.757   2.493   0.708  0.0256 -0.6955  0.5965
 6881SOL    HW221716   5.744   2.578   0.584 -0.3061  0.1228  1.1852
 6882SOL     OW21717   0.516   7.449   6.161  0.2444  0.1914  0.2267
 6882SOL    HW121718   0.532   7.476   6.070 -0.7989  0.9392  0.2542
 6882SOL    HW221719   0.453   7.378   6.154 -2.0299  2.0756  0.4608
 6883SOL     OW21720   2.393   6.278   2.330 -0.0436 -0.0215  0.4207
 6883SOL    HW121721   2.384   6.198   2.279  0.7936 -0.4118  0.8675
 6883SOL    HW221722   2.448   6.335   2.277 -0.2175  0.0697  0.3344
 6884SOL     OW21723   2.769   0.872   7.189  0.1712  0.4892  0.0456
 6884SOL    HW121724   2.718   0.810   7.240 -1.7362  1.5936 -0.4357
 6884SOL    HW221725   2.783   0.947   7.248  1.0463  0.3134  0.0828
 6885SOL     OW21726   7.663   1.679   2.020 -0.0380  0.4157 -0.2667
 6885SOL    HW121727   7.609   1.706   2.094  3.1746  0.0485  2.4320
 6885SOL    HW221728   7.710   1.601   2.051  1.0689 -0.0790 -2.8991
 6886SOL     OW21729   0.505   6.796   5.803  0.1310  0.0205 -0.4055
 6886SOL    HW121730   0.601   6.794   5.811  0.3798  3.1589 -1.1320
 6886SOL    HW221731   0.479   6.704   5.801  2.9511 -0.9436  1.5354
 6887SOL     OW21732   6.396   5.617   2.043 -0.6596 -0.1322 -0.0872
 6887SOL    HW121733   6.426   5.542   2.093 -0.4256 -0.8528 -1.2646
 6887SOL    HW221734   6.319   5.649   2.090 -0.5497 -0.8921  0.6180
 6888SOL     OW21735   1.982   5.913   0.513  0.2185 -0.2438  0.1406
 6888SOL    HW121736   1.888   5.931   0.508  0.4585  0.8058 -1.1839
 6888SOL    HW221737   2.002   5.868   0.431  0.8056 -0.8473  0.6066
 6889SOL     OW21738   4.051   4.621   2.466 -0.2391  0.0205 -0.2164
 6889SOL    HW121739   4.025   4.707   2.499  0.2728  0.1830 -0.2329
 6889SOL    HW221740   4.019   4.620   2.375 -0.7379 -0.0286 -0.0444
 6890SOL     OW21741   1.822   5.440   4.809  0.5399 -0.2253 -0.7261
 6890SOL    HW121742   1.856   5.396   4.732 -0.7652 -0.5740 -1.1304
 6890SOL    HW221743   1.737   5.476   4.781 -0.0790 -0.5766  0.6032
 6891SOL     OW21744   6.210   6.362   6.477 -0.3447 -0.4712 -1.0887
 6891SOL    HW121745   6.284   6.393   6.425 -1.2048 -0.0772 -2.1183
 6891SOL    HW221746   6.138   6.421   6.454 -0.8519 -0.5354  0.2757
 6892SOL     OW21747   7.316   7.454   3.521 -0.5068 -0.5948  0.3422
 6892SOL    HW121748   7.370   7.531   3.538  0.0342 -1.2214  1.5984
 6892SOL    HW221749   7.240   7.465   3.579 -1.5817  0.0787 -1.1132
 6893SOL     OW21750   1.361   4.962   3.189 -0.4771 -0.1083  0.5765
 6893SOL    HW121751   1.352   4.877   3.145 -1.4706  1.2760 -2.1223
 6893SOL    HW221752   1.456   4.975   3.195 -0.3126 -1.3534  0.9837
 6894SOL     OW21753   3.711   4.619   2.547 -0.3943 -0.0023  0.0908
 6894SOL    HW121754   3.789   4.599   2.599 -0.8862 -2.1695  0.1010
 6894SOL    HW221755   3.719   4.712   2.526  1.4715  0.1531  1.2632
 6895SOL     OW21756   0.108   0.529   5.735 -0.4563 -0.3278 -0.7893
 6895SOL    HW121757   0.148   0.479   5.663  1.0219  0.3061 -0.4384
 6895SOL    HW221758   0.182   0.559   5.788 -1.5277 -1.3450  1.4193
 6896SOL     OW21759   5.312   5.357   5.452  0.1356 -0.9397  0.5476
 6896SOL    HW121760   5.256   5.282   5.428  0.3103 -0.7943 -0.3608
 6896SOL    HW221761   5.251   5.421   5.489 -0.6056 -0.1773 -1.7903
 6897SOL     OW21762   4.039   2.811   3.042  0.0317 -0.4336 -0.6642
 6897SOL    HW121763   4.025   2.735   3.097 -2.3030  1.1277  1.0593
 6897SOL    HW221764   3.979   2.799   2.968  0.7623 -0.9447 -1.1889
 6898SOL     OW21765   7.238   6.120   4.188  0.0172 -0.6256  0.9936
 6898SOL    HW121766   7.250   6.177   4.264  2.0287 -1.5251  1.4197
 6898SOL    HW221767   7.263   6.033   4.220  0.4660 -1.0917 -0.5693
 6899SOL     OW21768   5.668   7.299   6.940 -0.5810 -0.3019  0.2197
 6899SOL    HW121769   5.730   7.284   6.868  0.7742  1.2803  1.0017
 6899SOL    HW221770   5.623   7.215   6.950  0.1124 -0.9520 -1.5951
 6900SOL     OW21771   3.033   0.037   0.392 -0.0439  0.2982 -0.0444
 6900SOL    HW121772   3.115  -0.002   0.362 -0.0346 -0.3593  0.8032
 6900SOL    HW221773   3.044   0.131   0.377  0.1106  0.0473 -1.6948
 6901SOL     OW21774   5.035   7.135   4.715  0.3767  0.3688  0.1750
 6901SOL    HW121775   5.098   7.097   4.777 -0.1866 -0.2119  0.4009
 6901SOL    HW221776   4.972   7.181   4.771 -0.4155 -0.5776  0.0740
 6902SOL     OW21777   2.388   1.488   2.292 -0.1237 -0.1747  0.4428
 6902SOL    HW121778   2.446   1.502   2.367  0.1717 -0.0952  0.2026
 6902SOL    HW221779   2.442   1.510   2.216 -0.1516 -1.0932  0.1560
 6903SOL     OW21780   4.733   2.295   0.287  0.4939 -0.3326  0.2144
 6903SOL    HW121781   4.645   2.331   0.270  0.7957 -0.6339 -2.3212
 6903SOL    HW221782   4.758   2.334   0.371 -1.0094  1.8584 -0.2462
 6904SOL     OW21783   1.894   6.214   1.391 -0.3515  0.3192 -0.0300
 6904SOL    HW121784   1.843   6.181   1.465 -0.4228  0.3884 -0.0474
 6904SOL    HW221785   1.889   6.145   1.325  0.3268 -0.0624  0.3043
 6905SOL     OW21786   0.697   7.932   6.295 -0.5015 -1.0156  0.6449
 6905SOL    HW121787   0.652   7.942   6.211 -0.0270  2.5568  0.6693
 6905SOL    HW221788   0.632   7.960   6.360  0.0041 -1.1473  1.2098
 6906SOL     OW21789   3.401   8.068   6.311 -0.1432  0.5856 -0.2301
 6906SOL    HW121790   3.308   8.047   6.318  0.3129 -1.1665  1.2306
 6906SOL    HW221791   3.428   8.090   6.400  1.0522  0.0813 -0.4506
 6907SOL     OW21792   1.031   7.495   7.888 -0.4649 -0.6765 -0.2228
 6907SOL    HW121793   1.050   7.469   7.798 -0.7249  1.4403 -0.9472
 6907SOL    HW221794   1.116   7.498   7.931 -0.0942  0.3352 -1.0053
 6908SOL     OW21795   7.856   1.577   0.214 -0.0475 -0.0177 -0.3305
 6908SOL    HW121796   7.800   1.618   0.280 -0.2038 -0.8758  0.0817
 6908SOL    HW221797   7.834   1.484   0.218  1.0197 -0.2930 -0.5410
 6909SOL     OW21798   3.278   5.145   2.465  0.7628 -0.0293 -0.2306
 6909SOL    HW121799   3.224   5.079   2.507  0.2280  0.3233 -0.3596
 6909SOL    HW221800   3.346   5.165   2.530  0.8171 -0.5564 -0.1170
 6910SOL     OW21801   2.025   4.293   5.619 -0.0070 -0.2285 -0.2277
 6910SOL    HW121802   2.067   4.231   5.679  0.9619 -0.3331 -0.9923
 6910SOL    HW221803   2.081   4.292   5.541 -1.3415 -0.2284 -1.2030
 6911SOL     OW21804   7.622   0.407   3.831 -0.1609  0.1092 -0.7804
 6911SOL    HW121805   7.543   0.456   3.857 -0.3893 -1.1100  1.0116
 6911SOL    HW221806   7.588   0.327   3.791  0.0948 -0.9747  1.0722
 6912SOL     OW21807   0.612   2.536   2.163  0.2871  0.0583  0.3488
 6912SOL    HW121808   0.700   2.544   2.126  0.4990 -1.2220  0.5316
 6912SOL    HW221809   0.555   2.572   2.095  0.8593 -0.2383 -0.3086
 6913SOL     OW21810   1.294   5.819   7.584  0.1755  0.5476  0.2568
 6913SOL    HW121811   1.260   5.908   7.584 -0.1681  0.4202  0.0146
 6913SOL    HW221812   1.243   5.774   7.651  0.5664  0.6113  0.6007
 6914SOL     OW21813   6.158   3.797   1.068  0.3073  0.0200 -0.6033
 6914SOL    HW121814   6.141   3.761   0.980  0.4548 -0.2500 -0.5218
 6914SOL    HW221815   6.083   3.853   1.085 -1.8910 -3.0693  0.8044
 6915SOL     OW21816   4.399   5.060   3.458 -0.2735  0.2734 -0.2108
 6915SOL    HW121817   4.340   5.065   3.383 -1.2695 -0.1405  0.5105
 6915SOL    HW221818   4.485   5.039   3.421 -0.9869 -1.1215 -1.1461
 6916SOL     OW21819   4.133   4.580   7.498 -1.1222  0.1624 -0.2596
 6916SOL    HW121820   4.096   4.656   7.542 -0.1238  0.6201 -0.1673
 6916SOL    HW221821   4.180   4.532   7.566 -0.9936 -0.0470 -0.4903
 6917SOL     OW21822   7.837   5.656   1.596 -0.1067 -0.3344  0.2843
 6917SOL    HW121823   7.796   5.691   1.675 -0.7000 -0.2129 -0.0719
 6917SOL    HW221824   7.892   5.584   1.627  0.3317  0.2520  0.9027
 6918SOL     OW21825   3.174   7.683   0.650 -0.2775  0.4922  0.0304
 6918SOL    HW121826   3.253   7.733   0.672  0.6586 -0.8285 -0.2126
 6918SOL    HW221827   3.202   7.624   0.580 -0.8675 -1.5374  1.4311
 6919SOL     OW21828   6.899   3.689   7.980 -0.0145 -0.1734  0.2513
 6919SOL    HW121829   6.897   3.740   7.900  1.2525 -0.4255  0.0474
 6919SOL    HW221830   6.961   3.735   8.037  0.3236 -0.8837  0.4683
 6920SOL     OW21831   1.056   0.758   5.917  0.2878 -0.1995 -0.2478
 6920SOL    HW121832   1.058   0.665   5.941 -1.2536 -1.1797 -3.3402
 6920SOL    HW221833   1.132   0.796   5.961  1.4911 -3.1154  0.4230
 6921SOL     OW21834   8.096   1.214   3.241 -0.1680  0.3102 -0.1832
 6921SOL    HW121835   8.164   1.262   3.288 -1.9177  1.7418  1.0431
 6921SOL    HW221836   8.082   1.135   3.292  0.8513 -0.2139 -0.6920
 6922SOL     OW21837   6.391   5.294   0.293 -0.5546 -0.2862 -0.1425
 6922SOL    HW121838   6.352   5.351   0.359  0.9978  0.4779  0.1510
 6922SOL    HW221839   6.460   5.247   0.340  1.2053  0.9527 -1.3879
 6923SOL     OW21840   3.091   5.584   7.754 -0.2414 -0.2760  0.0701
 6923SOL    HW121841   3.176   5.553   7.723 -1.1081 -1.0599 -1.6320
 6923SOL    HW221842   3.113   5.658   7.811  1.5606 -0.0361 -0.8313
 6924SOL     OW21843   2.834   0.271   5.498  0.5174 -0.0643 -0.1501
 6924SOL    HW121844   2.922   0.236   5.483  0.1615 -0.3636 -1.7691
 6924SOL    HW221845   2.842   0.323   5.578  2.3335  0.4805 -0.6264
 6925SOL     OW21846   3.141   4.348   4.804  0.3490 -0.1105 -0.0699
 6925SOL    HW121847   3.143   4.418   4.739 -1.3171  0.6464  0.6372
 6925SOL    HW221848   3.227   4.308   4.799  0.0262 -0.5956 -3.2687
 6926SOL     OW21849   2.085   3.418   0.463 -0.4710  0.3067 -0.0513
 6926SOL    HW121850   2.035   3.474   0.522 -0.9880 -1.5318  1.3374
 6926SOL    HW221851   2.029   3.408   0.386  0.0596  2.4397 -0.7893
 6927SOL     OW21852   4.778   7.688   3.822 -0.0131 -0.2621 -0.0015
 6927SOL    HW121853   4.775   7.606   3.870 -2.0348 -0.8124 -0.9719
 6927SOL    HW221854   4.735   7.751   3.880 -2.1521 -0.8512 -0.8715
 6928SOL     OW21855   2.445   8.073   6.248  0.1080  0.4681 -0.3548
 6928SOL    HW121856   2.501   8.114   6.314 -1.2479 -0.6019  1.5424
 6928SOL    HW221857   2.468   7.980   6.252  1.1497  0.5531 -2.6073
 6929SOL     OW21858   2.915   2.715   0.574 -0.8174  0.4052 -0.2362
 6929SOL    HW121859   2.828   2.746   0.597 -0.5485  0.6146  0.5037
 6929SOL    HW221860   2.900   2.650   0.505 -1.4466  1.5290 -1.1867
 6930SOL     OW21861   1.446   5.410   5.121 -0.9685  0.1855  0.1602
 6930SOL    HW121862   1.365   5.427   5.171 -0.8415 -1.6189  1.0847
 6930SOL    HW221863   1.427   5.330   5.072  0.2442 -0.2597  0.3871
 6931SOL     OW21864   3.956   5.998   7.637 -0.3800  0.3023 -0.4978
 6931SOL    HW121865   3.907   6.004   7.555 -2.6133  4.0442  0.8792
 6931SOL    HW221866   3.974   5.904   7.647 -3.2006 -0.7420 -3.4281
 6932SOL     OW21867   0.591   1.880   1.087  0.4137 -0.2619 -0.2953
 6932SOL    HW121868   0.645   1.902   1.163  1.0034 -1.8193 -0.2131
 6932SOL    HW221869   0.635   1.804   1.048 -0.3864 -0.0554 -1.6597
 6933SOL     OW21870   1.689   2.823   7.602  0.2777 -0.4792  0.0045
 6933SOL    HW121871   1.688   2.810   7.697 -0.4685 -1.1421 -0.0830
 6933SOL    HW221872   1.598   2.811   7.576  0.3813  0.2603 -0.7290
 6934SOL     OW21873   3.285   0.051   5.306 -0.3541  0.1148 -0.0911
 6934SOL    HW121874   3.310  -0.010   5.375  1.5185  1.4369  0.4917
 6934SOL    HW221875   3.263  -0.004   5.231  0.2884 -1.2879  0.7103
 6935SOL     OW21876   2.972   2.169   6.322 -0.6121 -0.3224 -0.1278
 6935SOL    HW121877   2.974   2.215   6.239 -1.0533  0.5571  0.3389
 6935SOL    HW221878   2.908   2.098   6.309  0.3214 -1.0287 -0.9502
 6936SOL     OW21879   6.645   5.386   3.592  0.2246  0.2416  0.5396
 6936SOL    HW121880   6.584   5.460   3.595  1.0429  1.2951 -2.9580
 6936SOL    HW221881   6.730   5.424   3.616  0.3220 -0.0042  0.5895
 6937SOL     OW21882   6.820   6.123   0.159  0.5098 -0.4093 -0.5260
 6937SOL    HW121883   6.912   6.147   0.171  0.6675 -1.3988  0.3301
 6937SOL    HW221884   6.817   6.029   0.172 -0.2848 -0.7514 -2.7619
 6938SOL     OW21885   7.240   0.409   4.980 -0.3664  0.2320  0.1170
 6938SOL    HW121886   7.324   0.450   5.002 -0.4455  0.3572  0.1857
 6938SOL    HW221887   7.240   0.326   5.028 -0.4042  0.3625  0.3431
 6939SOL     OW21888   1.390   3.929   1.224 -1.0210  0.9990  0.3777
 6939SOL    HW121889   1.443   3.998   1.265  1.6077  0.5154 -1.8984
 6939SOL    HW221890   1.352   3.972   1.147 -2.7250  0.8882  1.1102
 6940SOL     OW21891   5.728   1.746   3.839  0.4098 -0.4119  0.3716
 6940SOL    HW121892   5.804   1.740   3.897  0.3498 -0.1626  0.4767
 6940SOL    HW221893   5.654   1.724   3.895  0.5486 -2.1353 -0.0818
 6941SOL     OW21894   7.061   6.340   3.425 -0.4802 -0.3922  0.1422
 6941SOL    HW121895   7.035   6.422   3.467 -0.5641 -0.7848  0.8667
 6941SOL    HW221896   7.127   6.303   3.483 -0.7912 -1.0769  0.0687
 6942SOL     OW21897   4.931   4.750   5.465 -0.3880  0.2928  0.1317
 6942SOL    HW121898   4.935   4.717   5.375  1.3736  0.9509 -0.0626
 6942SOL    HW221899   4.857   4.811   5.464 -1.4660 -0.9624 -0.3910
 6943SOL     OW21900   0.490   4.770   1.432  0.0049 -0.0142 -0.1583
 6943SOL    HW121901   0.501   4.682   1.469 -1.3965  0.6886  2.0740
 6943SOL    HW221902   0.576   4.811   1.444  0.2331 -0.5749  0.1823
 6944SOL     OW21903   6.489   1.758   0.505  0.0252  0.2648  0.1793
 6944SOL    HW121904   6.404   1.721   0.479  0.3111  0.5424 -1.2406
 6944SOL    HW221905   6.535   1.686   0.547 -0.3930 -0.2939 -0.3050
 6945SOL     OW21906   1.918   3.683   3.723  0.0157 -0.3486 -0.0174
 6945SOL    HW121907   1.871   3.702   3.642  1.1202 -0.8707 -0.8118
 6945SOL    HW221908   1.850   3.657   3.785 -0.8576  0.1460 -0.7495
 6946SOL     OW21909   3.986   7.953   4.488 -0.0136 -0.2734  0.2284
 6946SOL    HW121910   3.939   7.871   4.503 -1.0528  0.5860  1.9612
 6946SOL    HW221911   3.933   8.019   4.532 -0.5025  1.7860 -3.1300
 6947SOL     OW21912   1.893   4.878   3.481  0.1456 -0.2714  0.1799
 6947SOL    HW121913   1.866   4.813   3.416 -1.8866 -0.6149  1.2999
 6947SOL    HW221914   1.983   4.853   3.503  0.2169 -1.2698 -1.1269
 6948SOL     OW21915   3.228   6.597   3.596  0.8566  0.1948 -0.2169
 6948SOL    HW121916   3.233   6.670   3.533  0.9530  2.4169  2.2099
 6948SOL    HW221917   3.135   6.586   3.612  0.7469 -1.2539 -1.6242
 6949SOL     OW21918   3.473   1.592   1.996  0.1170  0.6679  0.1055
 6949SOL    HW121919   3.389   1.637   1.987 -0.1447  0.2195  0.2375
 6949SOL    HW221920   3.468   1.550   2.082  0.3987  0.4840  0.0321
 6950SOL     OW21921   5.251   1.307   1.201  0.1237 -0.1325  0.5222
 6950SOL    HW121922   5.308   1.233   1.181 -2.4977 -2.0548 -0.3570
 6950SOL    HW221923   5.243   1.305   1.297  0.4413 -0.7068  0.5436
 6951SOL     OW21924   6.154   3.024   7.177  0.7158  0.5591 -0.8118
 6951SOL    HW121925   6.135   3.084   7.249  0.4259  1.1432 -1.3695
 6951SOL    HW221926   6.241   2.989   7.197  0.6136  0.6777 -0.1536
 6952SOL     OW21927   0.975   1.084   6.370  0.5437  0.4715  0.3957
 6952SOL    HW121928   0.880   1.074   6.372  0.6105 -0.5151 -0.6397
 6952SOL    HW221929   0.996   1.132   6.450 -0.6128 -1.2045  1.7656
 6953SOL     OW21930   7.749   4.276   8.059 -0.1063 -0.9009  0.2623
 6953SOL    HW121931   7.810   4.293   8.131  0.4026 -1.3348 -0.0660
 6953SOL    HW221932   7.785   4.323   7.984 -0.8698 -0.0860  0.3897
 6954SOL     OW21933   6.956   5.582   4.223 -0.3026 -0.4054 -0.4202
 6954SOL    HW121934   7.036   5.587   4.172  0.1005 -2.0305  0.0151
 6954SOL    HW221935   6.942   5.672   4.255  1.1476 -0.0395 -0.7681
 6955SOL     OW21936   7.828   4.885   4.642  0.1139  0.2973  0.1864
 6955SOL    HW121937   7.920   4.865   4.660 -0.0789  0.7383  1.8635
 6955SOL    HW221938   7.830   4.959   4.582  0.9651  2.3401  2.5284
 6956SOL     OW21939   0.248   7.924   4.296 -0.2799 -0.4959  0.0964
 6956SOL    HW121940   0.219   7.891   4.212  2.0835 -0.0696 -0.9825
 6956SOL    HW221941   0.241   8.020   4.288 -1.0370 -0.4804  0.8012
 6957SOL     OW21942   3.789   6.335   5.158  0.3895  0.5304  0.5547
 6957SOL    HW121943   3.701   6.344   5.194  0.2406 -1.5055  0.7842
 6957SOL    HW221944   3.780   6.273   5.086  1.0997  2.7642 -1.6105
 6958SOL     OW21945   0.645   4.544   4.216 -0.1202  0.0879  0.3037
 6958SOL    HW121946   0.652   4.448   4.211  0.9811  0.1734 -0.0112
 6958SOL    HW221947   0.692   4.568   4.296  0.9160  0.4660 -0.3932
 6959SOL     OW21948   7.819   2.912   3.098  0.9814  0.1240  0.5968
 6959SOL    HW121949   7.913   2.907   3.082  0.6396  0.8691 -2.0085
 6959SOL    HW221950   7.782   2.943   3.016 -1.7400 -1.7511  0.9943
 6960SOL     OW21951   3.861   0.877   6.519 -0.3708  0.5184 -0.2390
 6960SOL    HW121952   3.907   0.837   6.445  1.3035 -1.5164  1.7693
 6960SOL    HW221953   3.926   0.935   6.559  0.6674 -2.3027  2.5663
 6961SOL     OW21954   3.157   1.107   0.519  0.1543 -0.3001 -0.9878
 6961SOL    HW121955   3.078   1.096   0.467  0.6436 -0.2911 -1.7400
 6961SOL    HW221956   3.181   1.199   0.509  0.2226 -0.2847 -0.6994
 6962SOL     OW21957   7.605   2.390   3.684  0.1942  0.0975 -0.5384
 6962SOL    HW121958   7.526   2.436   3.709  0.2627  0.7978 -1.5414
 6962SOL    HW221959   7.676   2.453   3.701  0.1503  1.0981 -3.4562
 6963SOL     OW21960   7.106   4.343   2.752 -0.2334 -0.2948  0.1537
 6963SOL    HW121961   7.132   4.271   2.695  0.7857 -0.3732  0.6961
 6963SOL    HW221962   7.174   4.347   2.819  0.5750  2.1158 -0.7009
 6964SOL     OW21963   1.298   6.437   4.832 -0.0217 -0.2006  0.0166
 6964SOL    HW121964   1.213   6.394   4.842 -0.0033 -0.2256  0.0699
 6964SOL    HW221965   1.312   6.482   4.916  0.2741 -0.6640  0.2234
 6965SOL     OW21966   7.145   4.963   4.341  0.6102 -0.2432  0.0869
 6965SOL    HW121967   7.101   4.971   4.425 -1.2848  0.5404 -0.9084
 6965SOL    HW221968   7.156   4.869   4.328 -0.6605 -0.4674  0.4572
 6966SOL     OW21969   0.603   0.794   3.810 -0.3304  0.0543 -0.0445
 6966SOL    HW121970   0.678   0.763   3.861  0.5412 -0.4040 -1.5147
 6966SOL    HW221971   0.543   0.833   3.874  0.9297 -0.0422  1.2292
 6967SOL     OW21972   8.090   1.159   6.793  0.0206 -0.0726 -0.3195
 6967SOL    HW121973   8.119   1.249   6.776  2.3152 -0.4808  1.0829
 6967SOL    HW221974   8.009   1.169   6.845 -0.3537  1.1442 -1.1040
 6968SOL     OW21975   0.082   1.486   5.282  0.0994  0.4565  0.6810
 6968SOL    HW121976   0.071   1.469   5.188 -2.2970  2.0446  0.5996
 6968SOL    HW221977   0.090   1.399   5.321 -2.1524 -0.4434 -0.6703
 6969SOL     OW21978   7.623   2.047   0.600 -0.1809 -0.1758 -0.1304
 6969SOL    HW121979   7.682   2.096   0.542  1.2502 -1.8711 -0.1915
 6969SOL    HW221980   7.542   2.038   0.551  0.1709  0.5376 -0.8558
 6970SOL     OW21981   3.883   6.861   1.958 -0.0748  0.2939  0.0604
 6970SOL    HW121982   3.903   6.953   1.942  0.0068  0.2526 -0.0753
 6970SOL    HW221983   3.930   6.813   1.889 -0.6763  0.1940 -0.2888
 6971SOL     OW21984   3.196   1.913   6.110 -0.2097  0.6294 -0.4071
 6971SOL    HW121985   3.218   2.005   6.095  3.4905 -0.1717 -0.8028
 6971SOL    HW221986   3.213   1.899   6.203 -2.8324  0.7019  0.1820
 6972SOL     OW21987   4.995   0.106   4.292  0.1345  0.7696  0.1257
 6972SOL    HW121988   4.980   0.197   4.266 -1.3615  0.3285 -0.6364
 6972SOL    HW221989   5.059   0.073   4.229 -0.6676  0.7975 -0.7320
 6973SOL     OW21990   1.247   6.711   4.636 -0.1670  0.5677 -0.2766
 6973SOL    HW121991   1.316   6.669   4.585  1.0105  1.3811  0.5991
 6973SOL    HW221992   1.281   6.798   4.656 -0.5634  0.2902  1.8844
 6974SOL     OW21993   5.638   4.339   6.888 -0.0406  0.1556 -0.0412
 6974SOL    HW121994   5.643   4.249   6.921 -1.2800 -0.0316 -0.3138
 6974SOL    HW221995   5.585   4.384   6.954  2.3309  1.2510  1.2231
 6975SOL     OW21996   5.282   6.640   1.025 -0.5297  0.2396 -0.8458
 6975SOL    HW121997   5.221   6.713   1.041 -0.7805 -0.3704  1.3297
 6975SOL    HW221998   5.265   6.614   0.935 -2.5666  0.9540 -0.7206
 6976SOL     OW21999   4.429   7.230   7.613  0.1628 -0.5795  0.4881
 6976SOL    HW122000   4.458   7.245   7.703  0.1661 -1.7019  0.6918
 6976SOL    HW222001   4.436   7.135   7.602  0.2500 -0.4366 -0.7278
 6977SOL     OW22002   2.743   1.840   4.865 -0.0585  0.1965  0.3988
 6977SOL    HW122003   2.810   1.838   4.933  0.0598  2.6816  0.4605
 6977SOL    HW222004   2.744   1.753   4.826  2.1029 -0.2858  1.4304
 6978SOL     OW22005   3.881   5.150   2.397  0.0566  0.0676  0.2328
 6978SOL    HW122006   3.969   5.112   2.401 -0.5763 -1.5553 -0.1970
 6978SOL    HW222007   3.864   5.160   2.303  0.2565  1.6243  0.3369
 6979SOL     OW22008   6.706   1.284   3.455  0.0260 -0.0509 -0.4094
 6979SOL    HW122009   6.712   1.374   3.485 -0.0593 -0.1236 -0.1723
 6979SOL    HW222010   6.628   1.282   3.400 -2.4292 -0.8617  2.7870
 6980SOL     OW22011   4.003   4.415   4.303 -0.4986 -0.3376  0.3333
 6980SOL    HW122012   3.987   4.321   4.306 -0.8722 -0.3597 -1.5277
 6980SOL    HW222013   4.042   4.431   4.217 -1.2900  1.3415  0.2393
 6981SOL     OW22014   2.882   0.681   0.467  0.0186  0.0941 -0.0935
 6981SOL    HW122015   2.880   0.591   0.497  0.8685  0.1041  0.0208
 6981SOL    HW222016   2.871   0.734   0.546  0.5134  0.0941 -0.0169
 6982SOL     OW22017   8.130   4.222   3.130 -0.1181 -0.1242  0.3593
 6982SOL    HW122018   8.142   4.288   3.062  0.5924 -0.6454 -0.0342
 6982SOL    HW222019   8.192   4.153   3.107  1.4058  0.4563  2.5243
 6983SOL     OW22020   0.955   1.173   7.270 -0.4163  0.5136  0.0074
 6983SOL    HW122021   0.946   1.130   7.355 -0.2651  0.6507  0.0934
 6983SOL    HW222022   1.046   1.203   7.267 -0.0792 -0.5031 -0.6838
 6984SOL     OW22023   7.839   4.466   2.918  0.5922 -0.1718 -0.2946
 6984SOL    HW122024   7.896   4.540   2.897 -0.4550  0.4387 -1.0785
 6984SOL    HW222025   7.829   4.420   2.835 -1.8721  1.0436 -0.7425
 6985SOL     OW22026   6.712   6.242   7.891  0.2752  0.7375  0.0513
 6985SOL    HW122027   6.623   6.261   7.861 -0.6021 -0.8211  1.4647
 6985SOL    HW222028   6.768   6.300   7.840 -1.5406  1.6811 -0.9576
 6986SOL     OW22029   4.614   2.410   5.293  0.3288 -0.1579 -0.2435
 6986SOL    HW122030   4.698   2.429   5.335 -0.0685 -0.4735  0.7222
 6986SOL    HW222031   4.575   2.497   5.280  1.1411  0.0568 -1.4706
 6987SOL     OW22032   3.632   7.435   2.734  0.2559  0.3812  0.4091
 6987SOL    HW122033   3.636   7.528   2.757  0.2340  0.5942 -0.3900
 6987SOL    HW222034   3.672   7.431   2.647  3.5178 -0.8841  1.8051
 6988SOL     OW22035   7.602   3.534   6.090  0.1957 -0.4777  0.2410
 6988SOL    HW122036   7.668   3.602   6.102  0.3621 -0.7325  0.7826
 6988SOL    HW222037   7.528   3.580   6.049  0.5014 -0.0829  0.1163
 6989SOL     OW22038   7.431   6.589   7.441 -0.1838  0.6258 -0.0422
 6989SOL    HW122039   7.391   6.660   7.492  0.3045  1.4213 -0.7447
 6989SOL    HW222040   7.415   6.613   7.350 -1.9442 -1.2789 -0.3357
 6990SOL     OW22041   0.657   4.143   3.172 -0.0516 -0.5693  0.0476
 6990SOL    HW122042   0.657   4.212   3.238 -0.1491 -0.5138 -0.0100
 6990SOL    HW222043   0.609   4.071   3.213  0.5944 -0.8365  0.3475
 6991SOL     OW22044   0.420   5.751   7.268 -0.1294 -0.0593 -0.8428
 6991SOL    HW122045   0.403   5.759   7.362  0.1856  0.5507 -0.8324
 6991SOL    HW222046   0.516   5.753   7.261 -0.0548 -2.0071 -1.0250
 6992SOL     OW22047   7.449   3.604   2.933  0.2810 -0.4121  0.3478
 6992SOL    HW122048   7.541   3.626   2.920  0.0236  0.5975  0.2070
 6992SOL    HW222049   7.418   3.667   2.997  0.0500 -1.6859  1.5257
 6993SOL     OW22050   4.834   3.584   2.346 -0.8246  0.1033 -0.6663
 6993SOL    HW122051   4.923   3.607   2.319 -0.9327  0.5989 -0.6119
 6993SOL    HW222052   4.831   3.489   2.340  0.2276 -0.0764  0.9025
 6994SOL     OW22053   3.551   8.009   6.863  0.0426  0.3282 -0.5900
 6994SOL    HW122054   3.565   7.937   6.802 -0.7363 -1.0481  0.7603
 6994SOL    HW222055   3.456   8.018   6.869  0.1038  0.6168  0.1848
 6995SOL     OW22056   4.611   7.286   6.846 -0.5040 -0.5454 -0.4629
 6995SOL    HW122057   4.547   7.247   6.786 -1.2242 -0.1186  0.0011
 6995SOL    HW222058   4.580   7.376   6.858 -1.2426 -1.0459  1.6981
 6996SOL     OW22059   6.888   1.069   3.273 -0.0618  0.1355 -0.0080
 6996SOL    HW122060   6.902   1.119   3.354  1.4546 -0.8960  0.4207
 6996SOL    HW222061   6.943   1.113   3.209 -0.3462  0.2511 -0.1731
 6997SOL     OW22062   2.126   4.158   1.282 -0.0385  1.0071 -0.3387
 6997SOL    HW122063   2.170   4.233   1.323 -0.2754  1.8441 -1.5599
 6997SOL    HW222064   2.193   4.117   1.229  0.3032 -0.1598  0.9269
 6998SOL     OW22065   7.128   0.406   7.164  0.5214  0.9295  0.0889
 6998SOL    HW122066   7.050   0.412   7.108  0.3240 -0.8137  0.1051
 6998SOL    HW222067   7.093   0.394   7.253  0.7692 -0.1283  0.0632
 6999SOL     OW22068   5.597   6.681   5.723  0.1038  0.1093  0.0441
 6999SOL    HW122069   5.674   6.632   5.753 -0.3371 -0.3860  0.3839
 6999SOL    HW222070   5.531   6.665   5.790 -0.1527  0.9142 -0.0073
 7000SOL     OW22071   1.481   4.371   6.551  0.0156  0.1595 -0.8001
 7000SOL    HW122072   1.491   4.324   6.469  1.3454 -2.7669  0.8988
 7000SOL    HW222073   1.568   4.407   6.570  0.1423 -0.5964  0.0983
 7001SOL     OW22074   1.636   6.414   1.134  0.0353 -0.1646 -0.3261
 7001SOL    HW122075   1.631   6.507   1.156 -2.4314 -0.4237  0.5230
 7001SOL    HW222076   1.573   6.372   1.192 -0.3809 -2.1084 -2.0479
 7002SOL     OW22077   2.933   7.287   6.182  0.4482  0.0610  0.7024
 7002SOL    HW122078   2.897   7.315   6.266 -0.2773 -0.4822  0.5809
 7002SOL    HW222079   2.861   7.296   6.120  0.3607 -1.4045  0.5373
 7003SOL     OW22080   1.916   1.605   8.082  0.1824 -0.4411 -0.2039
 7003SOL    HW122081   1.865   1.570   8.009  0.7308  0.9485 -1.3001
 7003SOL    HW222082   2.007   1.595   8.055  0.4104 -0.4263  0.5471
 7004SOL     OW22083   2.657   2.959   6.487  0.3516 -0.5790  0.1828
 7004SOL    HW122084   2.626   2.868   6.486  0.6119 -0.6844  1.1237
 7004SOL    HW222085   2.628   2.994   6.571 -0.9079  0.6326 -0.7150
 7005SOL     OW22086   2.718   2.806   0.113  0.4500 -0.0515 -0.3433
 7005SOL    HW122087   2.812   2.815   0.103  0.3136 -0.3541 -2.4154
 7005SOL    HW222088   2.684   2.895   0.107  0.7006  0.3583  2.7876
 7006SOL     OW22089   7.775   3.009   6.474 -0.0250 -0.1841  0.4837
 7006SOL    HW122090   7.819   3.094   6.468 -1.4605  0.5738  0.2837
 7006SOL    HW222091   7.768   2.991   6.567 -1.7323  1.0337  0.6235
 7007SOL     OW22092   7.042   3.456   0.625 -0.1248 -0.1028 -0.2221
 7007SOL    HW122093   6.968   3.417   0.672  0.4804 -1.3477 -0.2789
 7007SOL    HW222094   7.010   3.543   0.599 -1.7902 -0.8375 -0.7664
 7008SOL     OW22095   7.950   1.885   4.703 -0.8359 -0.6053  0.0660
 7008SOL    HW122096   8.025   1.832   4.676  0.4607 -0.6175  3.2324
 7008SOL    HW222097   7.988   1.971   4.721 -1.7442 -0.3714  0.8950
 7009SOL     OW22098   2.353   3.704   2.147 -0.2489  0.1105 -0.3532
 7009SOL    HW122099   2.377   3.700   2.240  0.6031 -2.0885 -0.6048
 7009SOL    HW222100   2.391   3.787   2.117  0.6696  0.2063  0.9491
 7010SOL     OW22101   4.520   3.388   7.604 -0.4108 -0.6859 -0.8100
 7010SOL    HW122102   4.447   3.361   7.660 -0.7608 -0.7070 -1.2727
 7010SOL    HW222103   4.592   3.405   7.665 -0.7419 -0.8593 -0.3669
 7011SOL     OW22104   3.171   0.245   1.765  0.3588 -0.3112 -0.0149
 7011SOL    HW122105   3.156   0.244   1.670 -0.5097  1.5214  0.0537
 7011SOL    HW222106   3.125   0.323   1.795  2.7575  0.6076  1.5612
 7012SOL     OW22107   6.012   8.141   4.647  0.4317  0.5479 -0.7684
 7012SOL    HW122108   5.926   8.149   4.689  0.5767  0.1536 -0.3919
 7012SOL    HW222109   5.993   8.107   4.560  0.2837 -0.5661 -0.3096
 7013SOL     OW22110   7.193   4.184   2.038  0.6870 -0.2721  0.1174
 7013SOL    HW122111   7.163   4.210   2.125 -1.8607 -1.0840 -0.4482
 7013SOL    HW222112   7.162   4.094   2.027  0.1778  0.1001 -1.9511
 7014SOL     OW22113   0.922   8.001   5.268  0.1551 -0.2081  0.2433
 7014SOL    HW122114   0.911   7.910   5.293  0.2248 -0.1406  0.5238
 7014SOL    HW222115   0.991   7.999   5.201 -1.6007 -0.6458 -1.6570
 7015SOL     OW22116   5.141   2.767   3.488  0.5440  0.2971 -0.4358
 7015SOL    HW122117   5.166   2.847   3.534 -0.7681  0.4629  0.0343
 7015SOL    HW222118   5.179   2.696   3.541  0.1539  0.5401  0.1819
 7016SOL     OW22119   0.816   7.760   5.360 -0.0982  0.1099 -0.0747
 7016SOL    HW122120   0.759   7.804   5.424  0.6819  0.9829  0.0443
 7016SOL    HW222121   0.794   7.667   5.368 -1.7146  0.4471 -0.2440
 7017SOL     OW22122   5.808   8.117   2.768 -0.2885  0.3341 -0.2857
 7017SOL    HW122123   5.789   8.095   2.677  1.0487  1.6969 -0.9348
 7017SOL    HW222124   5.781   8.039   2.817 -3.2280  0.4099 -1.5326
 7018SOL     OW22125   6.429   0.543   0.089  0.7812 -0.7395 -0.8456
 7018SOL    HW122126   6.442   0.489   0.167  1.3250  1.5253  0.7100
 7018SOL    HW222127   6.516   0.546   0.048  0.9473 -0.3523 -0.4666
 7019SOL     OW22128   3.909   3.948   6.990 -0.4347 -0.2208  0.3116
 7019SOL    HW122129   3.878   4.037   7.005  0.0812 -0.3150  2.1202
 7019SOL    HW222130   3.832   3.901   6.959 -0.4365  1.0891 -1.8311
 7020SOL     OW22131   3.570   2.035   7.158 -0.1129 -0.5696  0.2761
 7020SOL    HW122132   3.520   2.087   7.094 -0.5350 -0.5279  0.6351
 7020SOL    HW222133   3.656   2.022   7.117  0.4642  1.5101  0.6950
 7021SOL     OW22134   5.714   0.461   7.262  0.3917 -0.0643 -0.3152
 7021SOL    HW122135   5.671   0.535   7.218 -0.2714 -0.5460 -0.4810
 7021SOL    HW222136   5.770   0.422   7.195 -0.8194 -0.9625 -0.8398
 7022SOL     OW22137   3.980   1.848   0.138  0.1640  0.4728 -0.1055
 7022SOL    HW122138   3.966   1.934   0.098 -0.6193 -0.9374 -3.1351
 7022SOL    HW222139   3.917   1.791   0.094  0.0587 -1.5421  2.4148
 7023SOL     OW22140   8.138   5.673   4.461  0.0823  0.1713  0.0388
 7023SOL    HW122141   8.103   5.753   4.501  1.2364  0.1350  1.1680
 7023SOL    HW222142   8.228   5.695   4.439 -0.0959 -0.2898 -1.2460
 7024SOL     OW22143   4.372   7.074   5.594 -0.3169  0.6329  0.1543
 7024SOL    HW122144   4.457   7.093   5.555 -0.9230  2.6586 -0.2827
 7024SOL    HW222145   4.329   7.016   5.532  0.7908 -0.6104  0.4907
 7025SOL     OW22146   0.827   4.131   6.037  0.0161  0.2206  0.7772
 7025SOL    HW122147   0.784   4.207   6.076 -1.8104 -0.3332 -0.0314
 7025SOL    HW222148   0.910   4.164   6.005 -1.7418  2.6168 -1.8255
 7026SOL     OW22149   6.859   0.498   5.956 -0.3124 -0.2957 -0.0003
 7026SOL    HW122150   6.840   0.467   6.045  2.2326 -1.0945  0.3662
 7026SOL    HW222151   6.902   0.582   5.969  0.0544 -0.4109 -0.4423
 7027SOL     OW22152   5.237   5.549   4.823  0.1653  0.5851  0.6373
 7027SOL    HW122153   5.227   5.593   4.738 -0.8673  1.5250  1.2099
 7027SOL    HW222154   5.194   5.465   4.812 -1.3201  1.3020  0.6316
 7028SOL     OW22155   0.777   6.793   5.846 -0.5337  0.8228  0.2368
 7028SOL    HW122156   0.854   6.753   5.887 -2.0117  0.3382  2.7598
 7028SOL    HW222157   0.793   6.887   5.853  1.0189  0.7706 -1.8064
 7029SOL     OW22158   2.349   3.203   2.378  0.0046  0.0478  0.2530
 7029SOL    HW122159   2.339   3.142   2.452  0.8082  1.9393  2.0324
 7029SOL    HW222160   2.301   3.281   2.406 -0.5795  0.4483 -1.7402
 7030SOL     OW22161   7.531   6.068   2.344 -0.0370 -0.2379 -0.1878
 7030SOL    HW122162   7.557   5.988   2.390  1.9192  1.1484  1.3094
 7030SOL    HW222163   7.477   6.037   2.271  0.7700 -2.9243  0.2257
 7031SOL     OW22164   5.650   2.084   1.946  0.8092 -0.5825 -0.1976
 7031SOL    HW122165   5.557   2.086   1.924  0.9690 -0.6660 -0.8902
 7031SOL    HW222166   5.685   2.165   1.910  0.7321  0.1883  1.3663
 7032SOL     OW22167   0.437   5.756   0.957  0.0624  0.4821  0.0215
 7032SOL    HW122168   0.422   5.720   0.869 -0.8568 -1.2343  0.8205
 7032SOL    HW222169   0.525   5.794   0.953  0.0703  0.3500 -1.6097
 7033SOL     OW22170   2.225   6.723   0.760  0.6230  0.3088 -0.5112
 7033SOL    HW122171   2.188   6.735   0.848 -0.2011 -0.6157 -0.7173
 7033SOL    HW222172   2.297   6.661   0.773 -0.6592 -1.2829 -0.7331
 7034SOL     OW22173   2.746   4.561   0.290 -0.1658 -0.3685  0.2682
 7034SOL    HW122174   2.659   4.524   0.305  0.0412 -0.0002  2.8034
 7034SOL    HW222175   2.749   4.640   0.344  1.1480  0.6366 -1.1767
 7035SOL     OW22176   0.910   2.063   6.736 -0.1038 -0.2293 -0.1404
 7035SOL    HW122177   0.875   1.993   6.792 -0.3504 -0.1181 -0.1574
 7035SOL    HW222178   0.860   2.140   6.759 -1.1786 -0.4795 -1.4969
 7036SOL     OW22179   5.084   5.761   4.312 -0.2730  0.7513  0.0060
 7036SOL    HW122180   5.078   5.696   4.241 -0.0052  1.0814 -0.3220
 7036SOL    HW222181   5.178   5.773   4.326 -0.3228  0.4527  0.6395
 7037SOL     OW22182   1.833   1.173   4.427  0.1442  0.3820  0.3497
 7037SOL    HW122183   1.890   1.210   4.494 -0.0192 -0.2524  0.8498
 7037SOL    HW222184   1.807   1.248   4.373  0.5816  0.8393  0.7608
 7038SOL     OW22185   2.520   4.675   3.880 -0.0239  0.1393  0.1335
 7038SOL    HW122186   2.516   4.766   3.851 -0.7565 -0.1408 -0.6925
 7038SOL    HW222187   2.594   4.638   3.832  0.4287  0.3634  0.6587
 7039SOL     OW22188   6.022   6.969   7.763  0.2414 -0.5445 -0.4830
 7039SOL    HW122189   6.004   6.912   7.688 -0.8674 -1.0076  0.1096
 7039SOL    HW222190   6.117   6.964   7.774  0.5153  0.0863 -2.2678
 7040SOL     OW22191   4.180   3.809   3.809 -0.3593  0.1811 -0.7501
 7040SOL    HW122192   4.180   3.724   3.766 -0.5501  0.2019 -0.7943
 7040SOL    HW222193   4.122   3.863   3.755  0.2559  0.5272 -1.0833
 7041SOL     OW22194   6.974   2.722   5.840 -0.1784  0.1562  0.3652
 7041SOL    HW122195   7.037   2.679   5.897  0.3203  2.0723  1.3682
 7041SOL    HW222196   6.925   2.651   5.798  1.8934 -1.3635  0.4024
 7042SOL     OW22197   6.157   0.818   3.712 -0.3213  0.0316 -0.1447
 7042SOL    HW122198   6.149   0.891   3.774 -1.9260  1.2399 -1.6996
 7042SOL    HW222199   6.071   0.811   3.671 -0.1368 -2.5858 -0.2797
 7043SOL     OW22200   4.028   4.247   0.995 -0.7156 -0.6732 -0.2071
 7043SOL    HW122201   4.103   4.188   0.995 -2.0260 -2.4058 -0.1452
 7043SOL    HW222202   3.967   4.208   0.933 -1.6584  0.5981 -0.1133
 7044SOL     OW22203   6.998   7.484   5.279 -0.1253  0.0700 -0.0314
 7044SOL    HW122204   7.005   7.551   5.211 -1.3208 -1.4424 -1.7691
 7044SOL    HW222205   6.962   7.408   5.233  0.3485 -1.4866  2.0377
 7045SOL     OW22206   7.764   4.418   3.670 -0.1831  0.0711 -0.3399
 7045SOL    HW122207   7.738   4.469   3.594  0.4079  1.8479  0.5827
 7045SOL    HW222208   7.857   4.440   3.683 -0.2107 -0.3794  0.7309
 7046SOL     OW22209   3.445   3.653   5.413 -0.2520  0.2173 -0.3645
 7046SOL    HW122210   3.430   3.747   5.423 -0.2953  0.0621  1.3388
 7046SOL    HW222211   3.517   3.634   5.472  0.1658 -0.7302 -1.1532
 7047SOL     OW22212   3.933   4.712   3.066 -0.6770  0.5791 -0.4848
 7047SOL    HW122213   3.994   4.683   2.998 -1.0028 -1.4449  0.0093
 7047SOL    HW222214   3.906   4.799   3.039  0.6850  0.5986 -1.9177
 7048SOL     OW22215   1.345   4.152   5.247 -0.3069 -0.2607 -0.1957
 7048SOL    HW122216   1.350   4.178   5.155  0.2799 -0.8931 -0.3501
 7048SOL    HW222217   1.428   4.108   5.264 -0.3765 -0.0657  0.6663
 7049SOL     OW22218   7.455   5.583   0.815  0.0097 -0.1245  0.3488
 7049SOL    HW122219   7.463   5.520   0.886  0.7123 -0.0579  0.3343
 7049SOL    HW222220   7.524   5.558   0.753 -0.5291 -0.1219 -0.2626
 7050SOL     OW22221   5.435   0.544   2.211  0.5064 -0.1566 -0.3392
 7050SOL    HW122222   5.530   0.553   2.200  0.5658 -1.3069 -0.9973
 7050SOL    HW222223   5.397   0.608   2.152  0.8834 -0.8309 -1.3394
 7051SOL     OW22224   2.832   2.172   1.296 -0.0337  0.1200 -0.6046
 7051SOL    HW122225   2.748   2.129   1.314 -0.9153  2.3377  1.0386
 7051SOL    HW222226   2.808   2.257   1.259  1.2802  1.7722  1.9951
 7052SOL     OW22227   7.807   6.529   2.796  0.2208 -0.0921 -0.2203
 7052SOL    HW122228   7.798   6.534   2.701 -1.9425 -0.8161 -0.1051
 7052SOL    HW222229   7.822   6.436   2.814  3.7531  0.3833  0.0242
 7053SOL     OW22230   3.251   4.156   6.853 -0.0384 -0.2063  0.3249
 7053SOL    HW122231   3.156   4.162   6.838  0.1149  1.2285 -0.2609
 7053SOL    HW222232   3.288   4.135   6.767  0.3046  1.2004  0.1003
 7054SOL     OW22233   7.700   4.634   2.734 -0.5750 -0.6665 -0.3929
 7054SOL    HW122234   7.687   4.704   2.798 -1.9550 -1.5578  0.3643
 7054SOL    HW222235   7.795   4.629   2.723 -0.4214  0.9338 -0.0527
 7055SOL     OW22236   3.973   6.317   3.568  0.0030 -0.4053  0.0399
 7055SOL    HW122237   3.980   6.241   3.626  1.4952  0.4478  1.0608
 7055SOL    HW222238   3.908   6.373   3.610 -2.1620 -1.6419 -1.4407
 7056SOL     OW22239   0.864   2.189   7.721 -0.5235 -0.2460  0.4455
 7056SOL    HW122240   0.783   2.141   7.736 -0.4509 -0.3718  0.4340
 7056SOL    HW222241   0.836   2.280   7.709 -0.7383 -0.4113 -0.3712
 7057SOL     OW22242   1.534   4.607   7.797 -0.1978  0.0078 -0.2873
 7057SOL    HW122243   1.585   4.565   7.866  1.4438 -0.3873 -1.6610
 7057SOL    HW222244   1.449   4.563   7.799  0.4556 -1.2544  0.2701
 7058SOL     OW22245   7.409   2.749   2.410 -0.1496  0.2951 -0.0294
 7058SOL    HW122246   7.491   2.699   2.405 -0.2400  0.1817 -0.4732
 7058SOL    HW222247   7.394   2.762   2.503 -0.0484 -0.3800  0.0841
 7059SOL     OW22248   4.554   2.984   0.086  0.0419 -0.2176 -0.3040
 7059SOL    HW122249   4.605   2.995   0.006  1.3496  1.8872  0.7337
 7059SOL    HW222250   4.473   3.032   0.071  0.0884 -0.2181 -0.5479
 7060SOL     OW22251   2.492   7.332   7.895 -0.0864 -0.4485  0.0942
 7060SOL    HW122252   2.509   7.318   7.802 -0.6904  0.9215 -0.2494
 7060SOL    HW222253   2.453   7.250   7.926 -0.7665 -0.5802 -1.0797
 7061SOL     OW22254   4.383   6.736   5.547 -0.0234  0.2137 -0.4851
 7061SOL    HW122255   4.413   6.679   5.617 -2.1104 -2.3549 -1.5288
 7061SOL    HW222256   4.462   6.784   5.520  1.7256 -1.7472  0.8304
 7062SOL     OW22257   6.999   3.244   3.048 -0.7127  0.2824 -0.6360
 7062SOL    HW122258   7.036   3.326   3.016 -0.1239 -0.8106 -2.9759
 7062SOL    HW222259   6.909   3.266   3.073 -0.5719  1.6222 -1.2389
 7063SOL     OW22260   6.174   3.171   7.627  0.5758 -0.6591  0.3068
 7063SOL    HW122261   6.178   3.180   7.531  0.4187 -0.9853  0.2696
 7063SOL    HW222262   6.235   3.238   7.659 -1.2962  1.2560  0.0744
 7064SOL     OW22263   2.723   7.252   4.986  0.0941 -0.1183 -0.6136
 7064SOL    HW122264   2.743   7.163   4.957 -0.8002 -0.5272 -0.0357
 7064SOL    HW222265   2.639   7.271   4.946  0.1693  0.3783 -0.5331
 7065SOL     OW22266   3.994   3.086   7.157 -0.3129  0.3521  0.0439
 7065SOL    HW122267   3.921   3.144   7.181 -0.8800 -0.7672  1.1409
 7065SOL    HW222268   4.069   3.122   7.205  0.1185  2.0254 -1.7627
 7066SOL     OW22269   7.200   0.423   1.517  0.1560  0.6581 -0.1283
 7066SOL    HW122270   7.154   0.504   1.496 -1.2300  0.2818  1.2433
 7066SOL    HW222271   7.137   0.373   1.569  1.0032 -1.2632 -0.8456
 7067SOL     OW22272   2.835   2.306   5.496 -0.2933  0.0745 -0.8949
 7067SOL    HW122273   2.877   2.370   5.438  3.2183 -2.5869 -1.6362
 7067SOL    HW222274   2.875   2.222   5.472 -1.7791 -1.8526  2.5895
 7068SOL     OW22275   0.700   2.555   0.429 -0.4827 -0.2336 -0.3401
 7068SOL    HW122276   0.739   2.614   0.365 -0.1812  2.3058  2.0225
 7068SOL    HW222277   0.773   2.520   0.479 -0.8094 -1.0633 -0.4175
 7069SOL     OW22278   7.383   3.287   4.443  0.4923  0.6811  0.1461
 7069SOL    HW122279   7.291   3.279   4.418  0.6678  0.3446 -0.4171
 7069SOL    HW222280   7.387   3.253   4.533  0.0601  0.7480  0.1912
 7070SOL     OW22281   2.100   6.286   2.926  0.4310  0.1584 -0.0273
 7070SOL    HW122282   2.063   6.198   2.910  0.9531  0.1682 -1.4675
 7070SOL    HW222283   2.041   6.325   2.990 -0.3292 -0.9268 -0.0325
 7071SOL     OW22284   5.906   6.158   3.320  0.5699  0.1897 -0.4715
 7071SOL    HW122285   5.862   6.161   3.405  0.2294  1.1346 -0.6670
 7071SOL    HW222286   5.846   6.111   3.263 -0.4506  1.8631 -0.8569
 7072SOL     OW22287   0.602   5.604   0.206 -0.9532  0.2338 -0.2132
 7072SOL    HW122288   0.656   5.666   0.256 -0.6907 -0.1235 -0.0489
 7072SOL    HW222289   0.659   5.575   0.134 -2.3546  3.1934 -2.7217
 7073SOL     OW22290   6.914   0.357   7.800 -0.3710  0.0810 -0.0282
 7073SOL    HW122291   6.947   0.267   7.809 -1.3842 -0.3869 -0.8113
 7073SOL    HW222292   6.820   0.349   7.812 -0.3865  1.1708  0.6653
 7074SOL     OW22293   6.685   0.744   6.743  0.3411 -0.2461 -0.0458
 7074SOL    HW122294   6.760   0.803   6.739  0.5533 -0.5849 -2.2359
 7074SOL    HW222295   6.722   0.657   6.727  0.0963 -1.1869  3.4946
 7075SOL     OW22296   3.190   0.077   3.017  0.0431 -0.4209 -0.4475
 7075SOL    HW122297   3.225   0.126   3.092 -0.5024  0.9895 -1.0642
 7075SOL    HW222298   3.266   0.057   2.963  0.2759 -0.1669 -0.2151
 7076SOL     OW22299   5.567   3.693   4.620 -0.1174 -0.7910  0.3551
 7076SOL    HW122300   5.575   3.598   4.608 -0.9656 -0.5804 -2.5961
 7076SOL    HW222301   5.475   3.712   4.603  0.3145  0.6995 -0.4855
 7077SOL     OW22302   3.085   2.421   1.177  0.9647 -0.1199  0.0847
 7077SOL    HW122303   3.147   2.413   1.105  0.9939  2.1052 -0.2077
 7077SOL    HW222304   3.141   2.422   1.256  1.1242 -0.1287 -0.0277
 7078SOL     OW22305   2.905   0.359   4.358  0.2030  0.3593  0.3865
 7078SOL    HW122306   2.997   0.353   4.336  1.0838  0.6474  3.4502
 7078SOL    HW222307   2.876   0.269   4.367  0.7921  0.2519  1.3943
 7079SOL     OW22308   1.852   2.485   0.672  0.4179 -0.4650  0.4049
 7079SOL    HW122309   1.861   2.549   0.601 -3.2415 -0.2640 -0.0858
 7079SOL    HW222310   1.854   2.538   0.752  2.6499 -0.4689  0.4081
 7080SOL     OW22311   2.963   6.488   2.653 -0.5970 -0.5746  0.6811
 7080SOL    HW122312   2.928   6.400   2.665 -0.7798 -0.3867  1.6438
 7080SOL    HW222313   2.930   6.516   2.568  0.0831 -1.7152  0.0254
 7081SOL     OW22314   8.012   5.722   0.718  0.7688 -0.4715 -0.7038
 7081SOL    HW122315   8.067   5.755   0.647 -0.4181  0.3092 -1.3051
 7081SOL    HW222316   7.925   5.759   0.699  0.1838 -1.1645  0.5436
 7082SOL     OW22317   4.778   6.198   4.785  0.0231 -0.1515 -0.4408
 7082SOL    HW122318   4.850   6.259   4.770  1.0665 -1.3002 -0.2564
 7082SOL    HW222319   4.818   6.123   4.830 -1.3345 -0.7018 -0.0884
 7083SOL     OW22320   7.991   1.586   2.954 -0.2926  0.1275  0.1621
 7083SOL    HW122321   7.986   1.566   3.047 -0.2030  0.4685  0.2440
 7083SOL    HW222322   7.988   1.501   2.910 -0.2081 -0.0403  0.4810
 7084SOL     OW22323   7.408   3.513   2.670  0.4874 -0.1187 -0.1468
 7084SOL    HW122324   7.424   3.600   2.633  0.3010 -0.2286 -0.4951
 7084SOL    HW222325   7.395   3.528   2.764  0.0830  0.2728 -0.2658
 7085SOL     OW22326   2.773   0.098   1.465 -0.8651 -0.0029 -0.9348
 7085SOL    HW122327   2.835   0.152   1.416 -0.5160  0.3671 -0.1065
 7085SOL    HW222328   2.700   0.157   1.485 -1.4947 -0.4363 -1.9053
 7086SOL     OW22329   2.353   7.894   0.022 -1.0420  0.1479 -0.2837
 7086SOL    HW122330   2.427   7.883   0.082 -1.4177 -0.6685  0.0469
 7086SOL    HW222331   2.342   7.809  -0.019 -3.3254 -0.4999  1.4822
 7087SOL     OW22332   1.252   0.106   0.790  0.2994 -0.2073 -0.1040
 7087SOL    HW122333   1.215   0.114   0.878  0.3889 -0.7670 -0.0121
 7087SOL    HW222334   1.346   0.118   0.803  0.1336  1.9485 -0.4330
 7088SOL     OW22335   2.535   0.265   1.631  0.3050 -0.6219 -0.2685
 7088SOL    HW122336   2.625   0.298   1.634  0.2682 -0.5744  0.9238
 7088SOL    HW222337   2.493   0.306   1.706 -0.2990 -1.8211  0.0713
 7089SOL     OW22338   6.886   4.894   3.964 -0.5381  0.5172 -0.1310
 7089SOL    HW122339   6.859   4.826   3.902  0.9228  0.3651 -0.6369
 7089SOL    HW222340   6.974   4.868   3.991 -0.4646  1.5288  0.6693
 7090SOL     OW22341   5.602   0.971   6.236 -0.4880 -0.1075  0.9430
 7090SOL    HW122342   5.572   1.037   6.298  0.3187  1.2968 -0.1142
 7090SOL    HW222343   5.679   0.933   6.277 -1.3441 -0.9195  1.8632
 7091SOL     OW22344   2.135   1.093   3.682  0.4760  0.2681  0.1446
 7091SOL    HW122345   2.043   1.076   3.704  0.0325  1.0415 -0.9917
 7091SOL    HW222346   2.138   1.088   3.586  1.9133 -1.0866  0.2178
 7092SOL     OW22347   0.530   0.162   2.771 -0.3150  0.0282  0.0545
 7092SOL    HW122348   0.514   0.252   2.741  0.4367  0.1403 -0.0152
 7092SOL    HW222349   0.566   0.173   2.859 -0.3749 -0.2169  0.1097
 7093SOL     OW22350   0.131   5.469   5.452  0.6258  0.0080  0.1201
 7093SOL    HW122351   0.036   5.467   5.464  0.2879  1.0993 -1.9675
 7093SOL    HW222352   0.162   5.386   5.488 -1.3657 -1.2972 -1.0057
 7094SOL     OW22353   3.486   6.060   5.159  0.2769  0.2656  0.6931
 7094SOL    HW122354   3.524   5.972   5.152 -1.3126 -0.3690 -0.7103
 7094SOL    HW222355   3.513   6.104   5.078 -2.9905 -0.7324 -1.1709
 7095SOL     OW22356   3.829   6.864   3.686  0.0494 -0.4837 -0.4349
 7095SOL    HW122357   3.764   6.883   3.619 -0.4652  1.2804  0.4958
 7095SOL    HW222358   3.913   6.876   3.642 -0.2761 -0.0415 -0.9497
 7096SOL     OW22359   1.796   2.959   3.400  0.1303  0.3930 -0.2491
 7096SOL    HW122360   1.879   2.919   3.428 -0.1909 -0.4079 -0.4305
 7096SOL    HW222361   1.740   2.955   3.477 -0.9561 -2.3400 -1.0498
 7097SOL     OW22362   0.728   2.771   6.299 -0.7134  0.1505  0.0640
 7097SOL    HW122363   0.717   2.793   6.206 -1.8161  0.9242  0.3562
 7097SOL    HW222364   0.660   2.822   6.344  1.7262  2.3054  1.6430
 7098SOL     OW22365   4.564   0.201   3.633  0.1849  0.4255  0.0983
 7098SOL    HW122366   4.615   0.123   3.658  1.2930  0.4627 -1.8802
 7098SOL    HW222367   4.618   0.274   3.661  0.2271  0.4736 -0.1086
 7099SOL     OW22368   1.146   0.835   3.785  0.0900  0.2329  0.9699
 7099SOL    HW122369   1.222   0.781   3.763 -0.5610 -0.3437  0.0283
 7099SOL    HW222370   1.110   0.861   3.700 -1.6695 -0.8293  1.3371
 7100SOL     OW22371   2.907   5.540   5.099 -0.4594  0.2323  0.5306
 7100SOL    HW122372   2.893   5.634   5.111  0.7893  0.4636  0.3841
 7100SOL    HW222373   2.996   5.534   5.063  0.3656 -1.1101  2.6029
 7101SOL     OW22374   4.603   4.552   5.425 -0.3622  0.1110  0.1903
 7101SOL    HW122375   4.602   4.497   5.504 -1.2981 -1.5112 -0.8818
 7101SOL    HW222376   4.556   4.631   5.451  0.2377  0.0619  1.5411
 7102SOL     OW22377   4.630   0.698   3.096  0.6976 -0.1482 -0.8289
 7102SOL    HW122378   4.685   0.721   3.171  0.8283  0.4221 -1.0974
 7102SOL    HW222379   4.598   0.610   3.117 -0.1285  0.4151  0.3996
 7103SOL     OW22380   4.843   8.052   3.428  0.4345 -0.2634  0.4918
 7103SOL    HW122381   4.826   7.961   3.454 -0.7858  0.1773  1.3736
 7103SOL    HW222382   4.832   8.102   3.509 -0.9782  0.8861 -0.3519
 7104SOL     OW22383   2.589   4.219   5.588  0.1633 -0.1472 -0.4306
 7104SOL    HW122384   2.604   4.294   5.531  0.0282  0.8212  0.7591
 7104SOL    HW222385   2.677   4.186   5.607  0.4246  1.1277  0.8171
 7105SOL     OW22386   2.109   3.945   3.817  0.7112 -0.5499  0.0388
 7105SOL    HW122387   2.125   3.862   3.771  0.0892 -1.0766  0.7485
 7105SOL    HW222388   2.071   4.002   3.750  0.6489 -1.0122 -0.3290
 7106SOL     OW22389   3.445   1.569   0.314 -0.3507  0.1722  0.1049
 7106SOL    HW122390   3.446   1.664   0.301 -1.3729 -0.0172 -1.6519
 7106SOL    HW222391   3.363   1.552   0.361 -1.9693 -0.1104 -2.6343
 7107SOL     OW22392   6.581   1.580   2.560 -0.1708  0.2754  0.1308
 7107SOL    HW122393   6.655   1.638   2.544 -0.9405  1.1759 -0.2652
 7107SOL    HW222394   6.514   1.608   2.498 -0.6744 -0.8450  0.1375
 7108SOL     OW22395   6.425   5.477   4.022  0.5315 -0.2365  0.2108
 7108SOL    HW122396   6.379   5.515   4.097  1.7774 -0.7308  1.2740
 7108SOL    HW222397   6.510   5.522   4.021  1.5545 -2.0516  0.7366
 7109SOL     OW22398   8.000   6.070   4.211  0.0103  0.2470  0.0682
 7109SOL    HW122399   8.039   6.113   4.287  0.5099 -1.8579  1.0748
 7109SOL    HW222400   8.061   6.000   4.189  0.3687  1.3639 -2.9292
 7110SOL     OW22401   4.558   6.357   0.071 -0.0859 -0.2081  0.6722
 7110SOL    HW122402   4.527   6.267   0.082  0.1950 -0.2708  0.9576
 7110SOL    HW222403   4.479   6.408   0.057 -0.2240 -0.5460  0.1704
 7111SOL     OW22404   2.424   5.519   6.195  0.7248  0.3326 -0.4711
 7111SOL    HW122405   2.345   5.466   6.184  1.0035 -0.2488  0.2230
 7111SOL    HW222406   2.405   5.601   6.149 -0.5350  0.4566  0.2267
 7112SOL     OW22407   7.625   4.366   7.200  0.8409  0.0665  1.0508
 7112SOL    HW122408   7.562   4.409   7.259  1.5905 -1.2435  2.8812
 7112SOL    HW222409   7.572   4.304   7.150  0.0622  1.7344 -0.3349
 7113SOL     OW22410   3.840   7.891   5.716 -0.1448 -0.1951 -0.0521
 7113SOL    HW122411   3.781   7.927   5.782 -1.0386 -0.6137 -0.5906
 7113SOL    HW222412   3.923   7.936   5.730  0.1588 -1.3862  2.3396
 7114SOL     OW22413   3.778   0.592   3.943  0.2332  0.4838  0.5278
 7114SOL    HW122414   3.784   0.678   3.986  2.3023  1.7478 -2.0165
 7114SOL    HW222415   3.697   0.598   3.891 -0.4209  0.2810  1.4956
 7115SOL     OW22416   1.383   1.905   6.401 -0.3426  0.1679 -0.1628
 7115SOL    HW122417   1.364   1.823   6.356 -1.4536  0.3211 -0.0054
 7115SOL    HW222418   1.457   1.883   6.459 -1.1838 -0.9817  0.5394
 7116SOL     OW22419   3.044   0.880   0.773  0.1553 -0.0040  0.9872
 7116SOL    HW122420   3.028   0.830   0.852  2.4410  2.1974  3.0211
 7116SOL    HW222421   3.138   0.898   0.774  0.3187  0.0823 -2.3029
 7117SOL     OW22422   1.923   3.553   2.301 -0.1938  0.0897  0.1361
 7117SOL    HW122423   1.907   3.613   2.229 -0.0352  0.8405  0.7143
 7117SOL    HW222424   1.989   3.596   2.355  0.9413 -1.2143 -0.1380
 7118SOL     OW22425   1.100   3.389   4.208  0.1315  0.4398 -0.1970
 7118SOL    HW122426   1.078   3.308   4.253 -2.1180  0.5071 -1.0355
 7118SOL    HW222427   1.189   3.410   4.237 -0.4173 -0.6255  2.5189
 7119SOL     OW22428   7.261   1.535   6.123 -0.5505  0.4752 -0.1137
 7119SOL    HW122429   7.250   1.463   6.186  0.0906  0.1841 -0.3334
 7119SOL    HW222430   7.175   1.577   6.120 -1.0174 -0.4650 -0.2077
 7120SOL     OW22431   7.695   6.033   1.029  0.5044  0.0377 -0.3273
 7120SOL    HW122432   7.712   6.028   1.123 -0.5562  1.7584 -0.0046
 7120SOL    HW222433   7.777   6.066   0.992  0.7762 -0.2124  0.0442
 7121SOL     OW22434   0.174   4.905   6.851 -0.6630 -0.0076  0.4671
 7121SOL    HW122435   0.195   4.819   6.886 -0.4374 -0.2951 -0.3586
 7121SOL    HW222436   0.249   4.960   6.875  0.1667 -0.5601 -0.8078
 7122SOL     OW22437   2.085   0.021   3.602 -0.0649  0.3790  0.2720
 7122SOL    HW122438   2.064  -0.072   3.601  1.2722  0.0240  1.6127
 7122SOL    HW222439   2.115   0.040   3.513 -0.5538 -0.4095 -0.0688
 7123SOL     OW22440   0.743   4.861   4.429  0.1493  0.3627 -0.7137
 7123SOL    HW122441   0.702   4.848   4.514 -0.1697 -0.4519 -0.9824
 7123SOL    HW222442   0.836   4.872   4.448  0.2299 -0.8611 -0.3334
 7124SOL     OW22443   2.351   6.515   3.667  0.0804 -0.0805 -0.7149
 7124SOL    HW122444   2.352   6.607   3.638 -0.5941 -0.7745 -3.1591
 7124SOL    HW222445   2.265   6.504   3.707  0.5271  0.5611  0.4804
 7125SOL     OW22446   5.921   2.063   1.404 -0.2340 -0.2461 -0.6433
 7125SOL    HW122447   5.983   2.114   1.353 -2.1027 -0.2358 -3.0608
 7125SOL    HW222448   5.867   2.128   1.449  1.7599 -0.2533  1.9786
 7126SOL     OW22449   1.658   2.334   2.797 -0.1878 -0.2998 -0.1255
 7126SOL    HW122450   1.662   2.415   2.746  0.6095 -0.9361 -1.1087
 7126SOL    HW222451   1.746   2.325   2.835 -0.5199 -0.2828  0.6781
 7127SOL     OW22452   1.905   1.183   7.912 -0.6356 -0.1125  0.1622
 7127SOL    HW122453   1.999   1.197   7.923 -0.7537  0.2775  0.6810
 7127SOL    HW222454   1.880   1.130   7.988 -0.7558 -0.5906 -0.2066
 7128SOL     OW22455   1.683   3.703   6.659  0.0675  0.0100 -0.3156
 7128SOL    HW122456   1.668   3.756   6.580  2.1096  0.9791 -0.1090
 7128SOL    HW222457   1.741   3.633   6.630  1.4563  0.8140  0.4551
 7129SOL     OW22458   2.445   5.471   3.694 -0.2634  0.4323 -0.0683
 7129SOL    HW122459   2.419   5.526   3.620  2.0296 -0.1906 -1.4233
 7129SOL    HW222460   2.540   5.478   3.698 -0.1729 -1.0125  1.6695
 7130SOL     OW22461   2.145   7.802   4.662  0.0219  0.5274  0.1627
 7130SOL    HW122462   2.196   7.883   4.654  1.0988 -0.2470 -1.4169
 7130SOL    HW222463   2.163   7.754   4.581 -1.8230 -0.6152  0.3599
 7131SOL     OW22464   5.457   5.613   2.529 -0.2288  0.5721  0.6273
 7131SOL    HW122465   5.392   5.625   2.599 -1.1470 -1.1510  0.1122
 7131SOL    HW222466   5.541   5.610   2.575 -0.6003  1.6150  1.4266
 7132SOL     OW22467   0.389   1.453   3.772  0.0683  0.2487 -0.1626
 7132SOL    HW122468   0.320   1.519   3.775 -0.3179 -0.1138 -0.8591
 7132SOL    HW222469   0.466   1.498   3.805 -0.4449  0.7308  0.3940
 7133SOL     OW22470   2.452   2.280   4.083 -0.1626 -0.0912 -0.3365
 7133SOL    HW122471   2.482   2.362   4.124  0.1116 -0.5032  0.3078
 7133SOL    HW222472   2.451   2.299   3.989  2.3568 -0.1182 -0.4404
 7134SOL     OW22473   6.521   5.900   0.307  0.1088  0.5187  0.0972
 7134SOL    HW122474   6.559   5.847   0.236  1.2895 -0.2443  1.2619
 7134SOL    HW222475   6.456   5.955   0.263  1.8749  1.1902 -1.8687
 7135SOL     OW22476   5.998   5.965   6.400  0.4596  0.2056  0.0537
 7135SOL    HW122477   6.029   6.012   6.478  0.1301  0.3786  0.0828
 7135SOL    HW222478   5.906   5.990   6.392  0.0753 -1.0011  0.4809
 7136SOL     OW22479   6.191   0.154   2.126 -0.1574  0.5077  0.5653
 7136SOL    HW122480   6.180   0.232   2.071  1.1030  0.7194  0.6003
 7136SOL    HW222481   6.227   0.088   2.067 -3.2804 -0.8491 -0.0718
 7137SOL     OW22482   7.326   5.719   0.623 -0.5394 -0.0023 -0.2415
 7137SOL    HW122483   7.391   5.693   0.688  0.1015  0.6389 -0.6078
 7137SOL    HW222484   7.250   5.747   0.674 -0.0807  0.4000  0.2341
 7138SOL     OW22485   0.822   2.826   2.869  0.5490  0.0246 -0.2534
 7138SOL    HW122486   0.850   2.814   2.960 -0.0231  1.6237  0.1753
 7138SOL    HW222487   0.880   2.895   2.836  1.8129 -1.6235 -1.6441
 7139SOL     OW22488   3.465   5.777   6.250 -0.3556 -0.3225 -0.2470
 7139SOL    HW122489   3.530   5.813   6.190 -0.4062 -0.4811 -0.3978
 7139SOL    HW222490   3.507   5.783   6.336 -0.5730  0.5892 -0.1902
 7140SOL     OW22491   5.754   0.887   5.403 -0.2999  0.3303  0.5201
 7140SOL    HW122492   5.658   0.892   5.399 -0.2583  0.5169 -0.6295
 7140SOL    HW222493   5.772   0.807   5.451 -1.0429 -0.5816 -0.6769
 7141SOL     OW22494   3.117   3.258   7.976 -0.3709 -0.1433 -0.2926
 7141SOL    HW122495   3.202   3.262   8.019  0.0538 -0.9961 -1.0293
 7141SOL    HW222496   3.073   3.339   8.003 -0.0317 -0.5082  1.5226
 7142SOL     OW22497   3.618   4.406   1.264 -0.2025 -0.2200  0.8347
 7142SOL    HW122498   3.533   4.450   1.257 -0.1825 -0.2385  0.4927
 7142SOL    HW222499   3.682   4.477   1.261 -0.1454 -0.3075 -0.2369
 7143SOL     OW22500   1.605   0.190   0.053 -0.2603 -0.5214  0.3195
 7143SOL    HW122501   1.532   0.198   0.114 -0.2222  1.8395  0.1345
 7143SOL    HW222502   1.584   0.250  -0.018  1.9516  0.4668  0.4022
 7144SOL     OW22503   7.186   7.215   1.157  0.0420  0.0785 -0.4231
 7144SOL    HW122504   7.180   7.259   1.072  1.0901  0.9689 -0.0631
 7144SOL    HW222505   7.252   7.147   1.144 -1.1403 -1.0443 -0.8091
 7145SOL     OW22506   4.610   4.873   6.022  0.7836  0.0170  0.4006
 7145SOL    HW122507   4.655   4.912   5.947  2.5729  1.5644  2.1746
 7145SOL    HW222508   4.637   4.781   6.021  2.1222  0.3992  0.0727
 7146SOL     OW22509   2.647   5.631   0.769  0.2238 -0.1260 -0.0352
 7146SOL    HW122510   2.660   5.714   0.814 -0.8387  0.6823 -1.1602
 7146SOL    HW222511   2.553   5.615   0.775  0.2459 -0.6267 -0.8973
 7147SOL     OW22512   2.837   2.180   2.978 -0.0081 -0.1591  0.1490
 7147SOL    HW122513   2.895   2.251   2.951 -0.6574 -0.0409 -0.9902
 7147SOL    HW222514   2.891   2.101   2.973  0.1548 -0.0041 -0.5643
 7148SOL     OW22515   7.848   6.428   0.638  0.2420  0.5784 -0.2560
 7148SOL    HW122516   7.798   6.374   0.699  0.2553  1.2156  0.3369
 7148SOL    HW222517   7.940   6.410   0.660  0.2857 -0.3013 -1.0870
 7149SOL     OW22518   4.241   4.660   6.530  0.0991  0.1075 -0.2282
 7149SOL    HW122519   4.320   4.616   6.561 -0.0489  1.5200  2.3890
 7149SOL    HW222520   4.243   4.648   6.435  0.7904 -4.2354  0.1126
 7150SOL     OW22521   3.545   4.024   1.224  0.1822 -0.3320 -0.5976
 7150SOL    HW122522   3.455   4.025   1.256  0.3460 -0.4131 -0.1266
 7150SOL    HW222523   3.576   4.114   1.237  0.8849 -0.8115  1.3317
 7151SOL     OW22524   7.120   6.553   1.579 -0.0502 -0.1382  0.3249
 7151SOL    HW122525   7.088   6.617   1.643 -0.8869 -0.7945  0.5880
 7151SOL    HW222526   7.070   6.473   1.598 -2.3429  0.3412 -2.7903
 7152SOL     OW22527   3.255   4.211   3.633  0.3759  0.6442  0.2152
 7152SOL    HW122528   3.236   4.143   3.698  2.0226  1.1073  1.2327
 7152SOL    HW222529   3.169   4.238   3.600 -0.3449 -1.5162  0.1888
 7153SOL     OW22530   0.847   5.789   4.618  0.4486  1.0665  0.2953
 7153SOL    HW122531   0.894   5.710   4.591  0.2276  1.4833 -1.3816
 7153SOL    HW222532   0.910   5.860   4.606 -0.4288  1.5796 -1.5969
 7154SOL     OW22533   5.154   1.518   4.606 -0.2920  0.8533 -0.4130
 7154SOL    HW122534   5.100   1.475   4.672 -0.8901 -0.7526 -1.8846
 7154SOL    HW222535   5.195   1.591   4.653 -0.2222 -0.5489  1.8698
 7155SOL     OW22536   2.226   3.430   1.257 -0.2610 -0.0411  0.2600
 7155SOL    HW122537   2.226   3.482   1.177 -0.7653 -0.3234  0.0764
 7155SOL    HW222538   2.208   3.341   1.228 -0.5188 -0.1329  0.6985
 7156SOL     OW22539   7.975   5.748   5.390  0.2304 -0.0525  0.3171
 7156SOL    HW122540   7.920   5.809   5.439  0.5674 -1.5272  2.7022
 7156SOL    HW222541   8.065   5.781   5.403  0.4295 -1.0738  1.7598
 7157SOL     OW22542   0.840   5.004   7.280 -0.6082 -0.1266  0.3624
 7157SOL    HW122543   0.805   5.031   7.195  1.1178 -0.1828 -0.4113
 7157SOL    HW222544   0.787   4.927   7.304  0.0043 -1.2107 -1.5346
 7158SOL     OW22545   2.293   4.835   2.376  0.3191 -0.2413  0.5669
 7158SOL    HW122546   2.345   4.892   2.433  1.1668 -0.6327  0.2074
 7158SOL    HW222547   2.356   4.771   2.343 -0.6512 -1.5974  1.2194
 7159SOL     OW22548   2.498   7.615   3.426  0.0471 -0.7827  0.5246
 7159SOL    HW122549   2.529   7.704   3.445  0.0967 -0.5134 -0.7565
 7159SOL    HW222550   2.576   7.567   3.400 -0.1463 -0.8945  0.1367
 7160SOL     OW22551   2.106   4.103   8.057 -0.0153  0.9756 -0.2844
 7160SOL    HW122552   2.179   4.043   8.044 -0.9815 -0.3894  0.3264
 7160SOL    HW222553   2.129   4.181   8.005  0.5685 -0.5195 -2.4130
 7161SOL     OW22554   2.223   2.065   6.581  0.7026 -0.2636  0.5405
 7161SOL    HW122555   2.227   2.074   6.676 -1.5244  0.6372  0.6299
 7161SOL    HW222556   2.246   2.152   6.548  0.7875 -0.3818  0.2880
 7162SOL     OW22557   1.393   4.027   7.173  0.1692 -0.7552  0.7891
 7162SOL    HW122558   1.325   3.960   7.176  1.0411 -1.6364  1.2662
 7162SOL    HW222559   1.347   4.109   7.192 -1.0491 -1.0827 -0.5754
 7163SOL     OW22560   7.113   6.871   3.309  0.4675  0.3328 -0.5235
 7163SOL    HW122561   7.086   6.961   3.323  0.6059  0.6297 -1.9502
 7163SOL    HW222562   7.044   6.818   3.351 -0.0758  1.0926 -0.4354
 7164SOL     OW22563   3.552   5.062   8.116 -1.0041 -0.3943  0.2131
 7164SOL    HW122564   3.584   5.039   8.203 -0.7643  0.1936  0.2863
 7164SOL    HW222565   3.626   5.045   8.057 -0.7582  0.3544  0.2950
 7165SOL     OW22566   2.939   8.110   3.121 -0.0895 -0.2785 -0.4941
 7165SOL    HW122567   2.879   8.184   3.127  1.2288  0.9107 -1.2509
 7165SOL    HW222568   3.004   8.137   3.056  0.8396 -1.8274 -0.2730
 7166SOL     OW22569   5.124   3.299   0.947  0.9990  0.0545 -0.0087
 7166SOL    HW122570   5.192   3.252   0.898  0.2160 -1.2762  0.1360
 7166SOL    HW222571   5.135   3.390   0.921  2.7138 -0.1601 -0.1327
 7167SOL     OW22572   3.251   7.139   3.444 -0.5672 -0.3892  0.2721
 7167SOL    HW122573   3.249   7.210   3.380  1.1642  0.2760  0.9166
 7167SOL    HW222574   3.181   7.159   3.506 -1.1469 -0.1444 -0.4443
 7168SOL     OW22575   3.770   2.157   3.451  0.6203  1.0386  0.3782
 7168SOL    HW122576   3.769   2.218   3.377 -0.6437 -0.7119 -1.1325
 7168SOL    HW222577   3.683   2.167   3.490  0.7498  0.8922  0.7011
 7169SOL     OW22578   4.284   3.439   0.500  0.8823 -0.3372 -0.4998
 7169SOL    HW122579   4.360   3.475   0.545  1.6680 -0.9741 -1.2932
 7169SOL    HW222580   4.314   3.356   0.462  0.7094  0.7667 -3.3498
 7170SOL     OW22581   1.167   6.667   0.131 -0.0337  0.1739  0.3403
 7170SOL    HW122582   1.207   6.686   0.046  0.0491  1.1004  0.5716
 7170SOL    HW222583   1.231   6.700   0.195 -0.0824 -0.5371  0.7659
 7171SOL     OW22584   1.818   6.412   6.380 -0.3130 -0.5374  0.0461
 7171SOL    HW122585   1.730   6.430   6.347 -0.2957  2.3885  1.2632
 7171SOL    HW222586   1.804   6.367   6.463 -0.6339 -0.5334 -0.0070
 7172SOL     OW22587   6.756   7.959   7.399 -0.0448  0.6037  0.4928
 7172SOL    HW122588   6.847   7.930   7.393  0.4737  2.0378  0.8942
 7172SOL    HW222589   6.714   7.897   7.458  0.8912  0.4075  0.9615
 7173SOL     OW22590   2.999   1.386   1.188  0.5439 -0.4745  0.2130
 7173SOL    HW122591   2.914   1.419   1.219  0.3972 -0.0031 -0.6630
 7173SOL    HW222592   2.979   1.300   1.153  0.4142 -0.3478 -0.0285
 7174SOL     OW22593   6.379   4.079   3.519  0.2745  0.7420 -0.4922
 7174SOL    HW122594   6.316   4.069   3.590  0.1413 -0.2666 -0.7435
 7174SOL    HW222595   6.461   4.044   3.554  0.9231  2.6676  0.0783
 7175SOL     OW22596   5.352   4.417   0.665  0.2914 -1.2089  0.4613
 7175SOL    HW122597   5.442   4.388   0.677  0.2650 -1.8668 -0.7485
 7175SOL    HW222598   5.348   4.503   0.706  2.7818  1.0570 -3.4494
 7176SOL     OW22599   7.859   2.394   2.457  0.1895 -0.5255  0.2100
 7176SOL    HW122600   7.908   2.390   2.374 -0.6034  3.5744 -0.6890
 7176SOL    HW222601   7.767   2.393   2.431 -0.0695  1.1960  0.9281
 7177SOL     OW22602   5.096   1.504   7.732  0.3594 -0.7396 -0.0789
 7177SOL    HW122603   5.075   1.454   7.811  0.6647  0.4327  0.7711
 7177SOL    HW222604   5.176   1.463   7.699 -0.8167 -2.4875 -0.9198
 7178SOL     OW22605   2.974   2.513   4.200 -0.4228 -0.1092 -0.5178
 7178SOL    HW122606   3.017   2.599   4.210  0.7761 -0.8070  0.6901
 7178SOL    HW222607   3.038   2.450   4.233 -1.5799 -1.4118 -0.6563
 7179SOL     OW22608   5.775   7.089   1.141  0.1027 -0.1533 -0.1163
 7179SOL    HW122609   5.757   7.033   1.065  0.8227 -1.0803  0.3721
 7179SOL    HW222610   5.711   7.061   1.207 -1.6181  1.7594 -0.8696
 7180SOL     OW22611   5.079   7.377   1.793  0.2963 -0.1424  0.3617
 7180SOL    HW122612   5.151   7.360   1.854 -0.2125 -0.7918  0.7865
 7180SOL    HW222613   5.096   7.465   1.760  0.9686 -0.0636  0.8977
 7181SOL     OW22614   0.945   0.744   5.104  0.3195 -0.2863  0.2383
 7181SOL    HW122615   0.902   0.728   5.020  2.0843 -0.5892 -0.6475
 7181SOL    HW222616   0.874   0.772   5.162 -0.7465  1.3801 -1.7281
 7182SOL     OW22617   3.962   1.865   5.245  0.5831 -0.4179 -0.2045
 7182SOL    HW122618   4.007   1.919   5.180  1.2575  0.8300  1.2443
 7182SOL    HW222619   3.870   1.890   5.237  0.8000  0.4910  0.0089
 7183SOL     OW22620   2.932   5.567   0.845 -0.0665  0.2825 -0.1409
 7183SOL    HW122621   2.977   5.610   0.772 -0.4702  1.6009  0.3667
 7183SOL    HW222622   2.843   5.553   0.812  0.3125 -1.1548 -0.6724
 7184SOL     OW22623   4.971   3.820   4.695 -0.3305  0.0700  0.6286
 7184SOL    HW122624   4.913   3.874   4.749 -0.0066 -0.5816  1.6464
 7184SOL    HW222625   5.006   3.881   4.629 -1.6752  0.6054  0.3760
 7185SOL     OW22626   7.768   2.558   3.983  0.2255  0.3612 -0.3737
 7185SOL    HW122627   7.821   2.582   3.906 -0.7304  2.5807 -0.4338
 7185SOL    HW222628   7.773   2.635   4.040 -0.4702 -0.5859  1.0184
 7186SOL     OW22629   7.253   0.332   1.882 -0.1656  0.0447 -0.4248
 7186SOL    HW122630   7.237   0.398   1.815  1.0141 -2.7085 -3.7194
 7186SOL    HW222631   7.309   0.268   1.840  1.3047 -1.5904  3.5360
 7187SOL     OW22632   5.601   7.594   2.816 -0.4047  0.3773 -0.5009
 7187SOL    HW122633   5.523   7.540   2.807  0.1769 -1.0240  1.9937
 7187SOL    HW222634   5.667   7.552   2.760 -0.2665 -0.9350  0.6082
 7188SOL     OW22635   2.877   0.495   2.153  0.3614  0.1055  0.3113
 7188SOL    HW122636   2.936   0.501   2.228 -0.3180  2.5521  0.7393
 7188SOL    HW222637   2.894   0.575   2.103 -1.6718  0.2576 -0.2151
 7189SOL     OW22638   1.991   6.740   1.778  0.0702  0.0363  0.3623
 7189SOL    HW122639   2.008   6.812   1.717  1.7499 -0.4392  0.2256
 7189SOL    HW222640   1.992   6.781   1.864 -0.3167  0.3808  0.2073
 7190SOL     OW22641   1.156   5.592   2.388  0.2789  0.4229  0.0616
 7190SOL    HW122642   1.146   5.683   2.361 -0.3028  1.0722  2.2510
 7190SOL    HW222643   1.107   5.542   2.323 -3.0377  2.0835  1.0528
 7191SOL     OW22644   2.680   3.904   1.454  0.1071  0.0924 -0.2175
 7191SOL    HW122645   2.599   3.950   1.476  0.3281  0.3025  0.1593
 7191SOL    HW222646   2.730   3.967   1.404  0.0879  0.0001 -0.3540
 7192SOL     OW22647   7.304   0.059   5.988  0.1181  0.4052 -0.2096
 7192SOL    HW122648   7.319   0.153   5.991 -1.8906  0.7407  2.1757
 7192SOL    HW222649   7.392   0.020   5.994  0.9067  2.1033 -0.2390
 7193SOL     OW22650   4.877   0.451   1.613 -0.2315  0.0548  0.3829
 7193SOL    HW122651   4.782   0.443   1.603 -0.5049  1.6949  1.3898
 7193SOL    HW222652   4.892   0.438   1.707  0.8360 -2.3854 -0.0415
 7194SOL     OW22653   3.542   1.635   5.599  0.5279 -0.0169  0.0424
 7194SOL    HW122654   3.614   1.679   5.644  0.3682  0.5412 -0.2433
 7194SOL    HW222655   3.522   1.691   5.524 -0.9477  0.4271  0.7258
 7195SOL     OW22656   3.685   5.772   2.841  0.1937  0.0928 -0.0501
 7195SOL    HW122657   3.724   5.857   2.819  1.3162 -0.3960 -0.0155
 7195SOL    HW222658   3.757   5.723   2.882  0.6601 -2.1199 -3.1489
 7196SOL     OW22659   0.656   3.051   5.475  0.4322 -0.3588  0.2044
 7196SOL    HW122660   0.619   3.123   5.424  1.0704 -1.0310 -1.3073
 7196SOL    HW222661   0.626   2.972   5.429  1.9210 -0.9605  0.2099
 7197SOL     OW22662   6.748   5.955   7.480 -0.0964  0.7570  0.2218
 7197SOL    HW122663   6.766   5.861   7.474 -0.0586  0.8037 -0.4677
 7197SOL    HW222664   6.732   5.970   7.573 -2.3439 -0.3676  0.1082
 7198SOL     OW22665   4.327   4.191   1.531 -0.0113 -0.0358 -0.2976
 7198SOL    HW122666   4.420   4.194   1.550  0.4139 -1.0064 -2.0095
 7198SOL    HW222667   4.285   4.187   1.617  1.5641 -0.6147  0.4790
 7199SOL     OW22668   0.736   4.342   0.372  0.1053 -0.2304 -0.6271
 7199SOL    HW122669   0.684   4.311   0.447 -2.4461  2.0208 -1.2986
 7199SOL    HW222670   0.758   4.433   0.394  1.0685 -0.1689 -1.7523
 7200SOL     OW22671   8.038   2.094   6.720  0.4510 -0.1439  0.5705
 7200SOL    HW122672   7.956   2.062   6.682  0.3328  1.2887 -0.4444
 7200SOL    HW222673   8.102   2.083   6.650  0.4788  1.4532  0.3087
 7201SOL     OW22674   1.737   0.958   2.965  0.1250 -0.0915 -0.3318
 7201SOL    HW122675   1.693   0.886   2.921  1.0898 -0.3741 -0.8835
 7201SOL    HW222676   1.756   0.925   3.053  1.4682 -0.9369 -0.8942
 7202SOL     OW22677   0.805   1.330   3.584  0.6976  0.3734 -0.2647
 7202SOL    HW122678   0.785   1.411   3.632  2.7084  0.6423  0.2228
 7202SOL    HW222679   0.844   1.361   3.502  0.6591 -0.1090 -0.4643
 7203SOL     OW22680   3.111   0.446   0.535  0.0861  0.5004 -0.3822
 7203SOL    HW122681   3.195   0.401   0.525 -0.0014  0.6722 -2.1732
 7203SOL    HW222682   3.119   0.494   0.617  1.0227 -0.9694  0.4375
 7204SOL     OW22683   0.265   3.641   0.248  0.0927 -0.9838  0.4419
 7204SOL    HW122684   0.282   3.723   0.295 -0.2865 -1.0398  0.6856
 7204SOL    HW222685   0.169   3.632   0.249  0.1098 -1.2366  0.0847
 7205SOL     OW22686   0.067   7.344   2.216 -0.1882 -0.1884  0.4750
 7205SOL    HW122687   0.036   7.361   2.305  0.4423 -1.9140  1.0762
 7205SOL    HW222688   0.068   7.248   2.209  0.1813 -0.0893 -1.2497
 7206SOL     OW22689   2.992   3.506   7.568 -0.7761 -0.0977 -0.1487
 7206SOL    HW122690   3.003   3.411   7.563  0.3332  0.0775 -2.3497
 7206SOL    HW222691   2.914   3.524   7.516 -0.2536  0.2794 -0.8203
 7207SOL     OW22692   6.995   5.268   5.181 -0.4117 -0.6333 -0.3194
 7207SOL    HW122693   6.982   5.342   5.121  0.0563 -0.3880 -0.1237
 7207SOL    HW222694   6.944   5.197   5.142 -1.5555  0.0122 -0.0793
 7208SOL     OW22695   4.784   6.276   5.163 -0.4736  0.6995 -0.0062
 7208SOL    HW122696   4.711   6.232   5.119  1.8582  0.0056 -3.6233
 7208SOL    HW222697   4.829   6.206   5.210 -1.1081  0.7814  0.7342
 7209SOL     OW22698   0.604   6.587   6.042 -0.2422  0.2026  0.0136
 7209SOL    HW122699   0.558   6.650   6.098 -1.3730 -0.2823 -0.3527
 7209SOL    HW222700   0.697   6.608   6.054 -0.5770  1.6089  0.2778
 7210SOL     OW22701   1.629   4.796   6.960 -0.4458  0.1469  0.2827
 7210SOL    HW122702   1.541   4.797   6.999 -1.1977 -2.1352 -1.1237
 7210SOL    HW222703   1.639   4.706   6.929  1.6739  0.8465 -1.2237
 7211SOL     OW22704   5.275   2.999   5.865  0.2238 -0.7167  0.2369
 7211SOL    HW122705   5.348   2.965   5.917  0.3705 -0.0717  0.4572
 7211SOL    HW222706   5.316   3.041   5.790  0.1556  0.5261  0.8611
 7212SOL     OW22707   7.404   2.713   4.474 -0.4952  0.3050 -0.6779
 7212SOL    HW122708   7.444   2.747   4.554 -0.5684  0.0798 -0.5441
 7212SOL    HW222709   7.401   2.788   4.414  0.4104  0.2505 -0.8030
 7213SOL     OW22710   4.324   0.165   7.463  0.0032 -0.1550  0.5213
 7213SOL    HW122711   4.335   0.148   7.369  4.5296 -0.1123  0.8062
 7213SOL    HW222712   4.308   0.078   7.501 -1.9912 -0.1567 -0.2095
 7214SOL     OW22713   4.479   3.868   3.366  0.4169  0.3989 -0.2527
 7214SOL    HW122714   4.484   3.963   3.382 -0.2724  0.4595 -0.3335
 7214SOL    HW222715   4.566   3.844   3.334  1.4328  0.5134  2.1941
 7215SOL     OW22716   4.564   1.922   6.660 -0.1192 -0.2360  0.2333
 7215SOL    HW122717   4.559   2.018   6.664 -1.3633 -0.3306  2.4125
 7215SOL    HW222718   4.649   1.901   6.697  0.2100  0.0104 -0.3667
 7216SOL     OW22719   3.002   1.520   7.221  0.4237  0.0987  0.0437
 7216SOL    HW122720   3.075   1.484   7.271 -0.8655  0.0270  1.9725
 7216SOL    HW222721   3.005   1.614   7.239 -1.4929 -0.1972  2.4139
 7217SOL     OW22722   6.012   5.291   8.157 -0.7454  0.2119 -0.7186
 7217SOL    HW122723   6.064   5.248   8.225 -2.0156  0.6057  0.5697
 7217SOL    HW222724   5.993   5.221   8.094 -0.6359 -0.5031  0.0162
 7218SOL     OW22725   3.865   7.622   4.020  0.3196 -0.1907  0.0884
 7218SOL    HW122726   3.795   7.623   4.086  1.3695  1.0770  1.2390
 7218SOL    HW222727   3.918   7.545   4.042  0.6946  0.2548  0.7873
 7219SOL     OW22728   7.993   6.488   5.559  0.4126  0.1778  0.0080
 7219SOL    HW122729   7.949   6.488   5.644 -0.7226  0.0018 -0.5547
 7219SOL    HW222730   8.086   6.497   5.580  0.2920 -1.1924  1.3325
 7220SOL     OW22731   3.862   3.420   0.298 -0.1061  0.1437  0.0903
 7220SOL    HW122732   3.919   3.347   0.322  1.0749  0.5302 -1.3926
 7220SOL    HW222733   3.788   3.379   0.253  0.8425 -0.1345 -1.2660
 7221SOL     OW22734   0.082   2.037   4.368  0.3758 -0.3969  0.1455
 7221SOL    HW122735   0.061   1.948   4.339  1.5808 -0.6892  0.1026
 7221SOL    HW222736   0.060   2.093   4.293 -0.5265 -0.6227  0.2270
 7222SOL     OW22737   2.419   6.806   7.061  0.1195  0.0211  0.0660
 7222SOL    HW122738   2.455   6.872   7.001 -0.5811  0.6060  0.2704
 7222SOL    HW222739   2.493   6.748   7.080  0.8324  0.9145  0.0974
 7223SOL     OW22740   8.065   0.716   5.698  0.0899  0.5607  0.0433
 7223SOL    HW122741   7.982   0.669   5.691  0.3768 -0.5101  2.7236
 7223SOL    HW222742   8.131   0.647   5.707  1.2515  1.4164 -1.3871
 7224SOL     OW22743   1.699   5.963   7.941  0.3532  0.0354  0.2095
 7224SOL    HW122744   1.733   5.874   7.943  1.2831  0.3747  0.3187
 7224SOL    HW222745   1.620   5.958   7.888 -1.5751 -1.4982  2.9729
 7225SOL     OW22746   2.949   3.221   1.198  0.1497 -0.2354  0.8113
 7225SOL    HW122747   2.918   3.230   1.288 -2.1993  1.1143 -0.0311
 7225SOL    HW222748   2.911   3.139   1.167  0.2451 -0.2686  0.7816
 7226SOL     OW22749   5.356   3.251   4.130  0.3395  0.0129  0.3248
 7226SOL    HW122750   5.334   3.340   4.104  1.3525  0.0403 -0.4868
 7226SOL    HW222751   5.302   3.196   4.073  2.0904  0.0840 -1.5052
 7227SOL     OW22752   7.406   7.679   7.529  0.1006 -0.2144 -0.1026
 7227SOL    HW122753   7.483   7.666   7.584  0.2877 -0.8752 -0.5153
 7227SOL    HW222754   7.421   7.624   7.452 -0.2193  0.5906 -0.7649
 7228SOL     OW22755   5.666   1.744   1.611 -0.1330  0.2253 -0.6890
 7228SOL    HW122756   5.639   1.781   1.695  1.3058 -0.9027  0.3335
 7228SOL    HW222757   5.654   1.815   1.548 -1.7827  0.9169  0.3444
 7229SOL     OW22758   5.348   4.446   4.270  0.2840 -0.1148 -0.0252
 7229SOL    HW122759   5.295   4.372   4.296 -0.1119  0.5603  1.1606
 7229SOL    HW222760   5.293   4.495   4.209 -0.2467  0.2543  0.7284
 7230SOL     OW22761   6.625   2.921   8.114  0.6276  0.2822  0.6741
 7230SOL    HW122762   6.659   2.977   8.044 -0.1463  1.4970  1.2484
 7230SOL    HW222763   6.701   2.869   8.142  1.2764  0.7978 -0.0999
 7231SOL     OW22764   6.096   2.592   3.555 -0.1989 -0.0698  0.3934
 7231SOL    HW122765   6.027   2.531   3.581 -0.3264 -0.5075 -0.8842
 7231SOL    HW222766   6.092   2.592   3.459  0.9473  0.6328  0.3349
 7232SOL     OW22767   1.534   7.494   1.977  0.5454  0.7601  0.1006
 7232SOL    HW122768   1.439   7.507   1.972  0.3785  0.0154  1.0997
 7232SOL    HW222769   1.569   7.548   1.906 -0.7018  0.1820 -1.0093
 7233SOL     OW22770   7.977   0.977   2.285  0.1207  0.0583 -0.0756
 7233SOL    HW122771   7.962   0.910   2.219  0.5557 -0.2146  0.1033
 7233SOL    HW222772   8.020   1.049   2.238  0.4245 -0.1327 -0.0898
 7234SOL     OW22773   3.809   0.784   7.462 -0.2688  0.4034  0.2612
 7234SOL    HW122774   3.784   0.871   7.492 -0.2191  1.2101 -1.8875
 7234SOL    HW222775   3.726   0.736   7.455 -0.2404 -0.0103  2.0876
 7235SOL     OW22776   3.476   4.282   1.523 -0.1238  0.4451  0.2960
 7235SOL    HW122777   3.551   4.325   1.483 -0.0569  1.2873  1.2889
 7235SOL    HW222778   3.514   4.219   1.585 -0.2234  0.9351  0.8643
 7236SOL     OW22779   4.095   0.744   4.835 -0.7572 -1.0591  0.3392
 7236SOL    HW122780   4.068   0.745   4.743 -0.7005  0.5853  0.3068
 7236SOL    HW222781   4.089   0.835   4.863  2.0899 -1.0236  1.1395
 7237SOL     OW22782   5.012   4.287   7.877 -0.0701  0.3554  0.7269
 7237SOL    HW122783   4.968   4.294   7.962  2.5384  0.7315  2.1539
 7237SOL    HW222784   5.048   4.199   7.876  2.1956  1.1802  1.3294
 7238SOL     OW22785   3.162   4.417   0.208  0.3783  0.2512 -0.1166
 7238SOL    HW122786   3.251   4.430   0.241  0.2338 -0.7396  0.7185
 7238SOL    HW222787   3.108   4.407   0.286 -0.1323 -1.2077 -0.6060
 7239SOL     OW22788   1.783   5.219   1.034  0.2029  0.1841  0.1613
 7239SOL    HW122789   1.774   5.154   0.964 -0.8176  0.3007  0.1743
 7239SOL    HW222790   1.701   5.268   1.033  0.4654  0.6701  0.9674
 7240SOL     OW22791   0.933   5.890   6.502  0.2320 -0.6224  0.2212
 7240SOL    HW122792   0.935   5.856   6.413  0.1033 -0.0457 -0.0092
 7240SOL    HW222793   0.887   5.974   6.495 -1.9975 -1.6815  1.2180
 7241SOL     OW22794   4.392   0.069   4.471 -0.1354 -0.3553 -0.3996
 7241SOL    HW122795   4.470   0.018   4.495 -0.1434 -0.9403 -1.5241
 7241SOL    HW222796   4.377   0.127   4.546 -0.2494 -2.1607  1.0526
 7242SOL     OW22797   5.333   3.982   1.772 -0.0991 -0.4719  0.0197
 7242SOL    HW122798   5.349   3.921   1.700  0.5063  0.8757 -1.0246
 7242SOL    HW222799   5.420   4.004   1.804 -0.3516 -0.7471  0.9084
 7243SOL     OW22800   6.406   3.347   2.577 -0.4388  0.1470 -0.1010
 7243SOL    HW122801   6.349   3.361   2.653 -1.4607  0.7893 -0.9645
 7243SOL    HW222802   6.423   3.435   2.544 -0.6541 -0.1751 -1.0859
 7244SOL     OW22803   3.324   3.799   5.958  0.4377 -0.0989  0.0599
 7244SOL    HW122804   3.344   3.721   6.011  2.3220 -0.0230 -0.4528
 7244SOL    HW222805   3.232   3.790   5.935 -0.0333 -0.9146  2.0662
 7245SOL     OW22806   2.635   7.147   6.252  0.4642 -0.2519 -0.6906
 7245SOL    HW122807   2.702   7.094   6.297 -1.0786 -1.3930  0.3511
 7245SOL    HW222808   2.618   7.099   6.171  2.3106  1.1265 -1.9887
 7246SOL     OW22809   2.850   5.788   2.460  0.6310  0.7190  0.1357
 7246SOL    HW122810   2.842   5.874   2.501  0.3872  1.0250 -0.5377
 7246SOL    HW222811   2.765   5.747   2.476  0.9410  0.3701  0.9510
 7247SOL     OW22812   6.446   1.039   7.979  0.8399 -0.1223 -0.0306
 7247SOL    HW122813   6.406   1.124   7.961 -1.0161 -1.2575 -1.5621
 7247SOL    HW222814   6.539   1.052   7.959  0.4141  1.2490 -1.2735
 7248SOL     OW22815   5.455   2.786   4.547  0.2007 -0.4464 -0.0749
 7248SOL    HW122816   5.381   2.804   4.605  0.9092  0.2520  0.6252
 7248SOL    HW222817   5.497   2.709   4.585  0.9350  0.2853  0.6178
 7249SOL     OW22818   5.649   2.833   7.370  0.5931 -0.0339  0.8894
 7249SOL    HW122819   5.698   2.759   7.404  0.2678 -0.9041 -0.4716
 7249SOL    HW222820   5.558   2.803   7.366  0.4977  0.3284  0.0753
 7250SOL     OW22821   4.034   7.338   4.611 -0.6992 -0.7761 -0.8489
 7250SOL    HW122822   3.943   7.310   4.624 -0.5748 -0.9623 -0.3644
 7250SOL    HW222823   4.069   7.347   4.699 -0.0485 -1.3432 -1.0440
 7251SOL     OW22824   1.015   2.533   1.392 -0.0078 -0.2972 -0.6134
 7251SOL    HW122825   1.050   2.531   1.481  1.3050  0.8865 -1.0611
 7251SOL    HW222826   0.948   2.601   1.393 -0.4502 -0.7315 -0.3874
 7252SOL     OW22827   5.183   6.577   4.689 -0.2865 -0.2667  0.0041
 7252SOL    HW122828   5.246   6.505   4.678  0.8092  0.7314 -0.4163
 7252SOL    HW222829   5.110   6.554   4.632  0.5441 -0.5155 -0.9802
 7253SOL     OW22830   0.131   6.824   1.058 -0.2948 -0.0168 -0.2401
 7253SOL    HW122831   0.127   6.767   1.135  3.0946  2.0306  1.7291
 7253SOL    HW222832   0.153   6.765   0.986 -1.0399 -1.6750  0.8359
 7254SOL     OW22833   0.377   2.377   3.905 -0.1935 -0.3212  0.4839
 7254SOL    HW122834   0.299   2.321   3.899 -0.0086 -0.5229 -0.0552
 7254SOL    HW222835   0.367   2.422   3.989 -0.8233 -0.4505  0.4860
 7255SOL     OW22836   4.061   6.151   4.849  0.2051 -0.8228  0.0210
 7255SOL    HW122837   4.142   6.184   4.811 -1.0040  1.5703 -0.6794
 7255SOL    HW222838   4.002   6.140   4.774 -0.2666 -2.1237  0.5602
 7256SOL     OW22839   5.219   4.054   1.245 -0.1695 -0.5323  0.4014
 7256SOL    HW122840   5.185   4.099   1.323 -1.3672 -2.7090  1.2441
 7256SOL    HW222841   5.237   3.965   1.276 -1.3486 -1.6576 -1.9574
 7257SOL     OW22842   3.162   2.968   6.297  0.0424  0.1232 -0.5343
 7257SOL    HW122843   3.071   2.987   6.321 -0.2463 -1.7433 -0.0032
 7257SOL    HW222844   3.213   3.036   6.343 -1.0536  1.2340 -0.8949
 7258SOL     OW22845   3.851   6.272   0.043 -0.1654 -0.2294  0.4837
 7258SOL    HW122846   3.899   6.319   0.110  0.4446 -1.1847  0.7404
 7258SOL    HW222847   3.885   6.306  -0.040  0.6078 -0.5318  0.6676
 7259SOL     OW22848   6.343   5.054   7.053 -0.2361  0.2495  0.2945
 7259SOL    HW122849   6.309   4.964   7.055 -1.3188  0.5603 -1.9143
 7259SOL    HW222850   6.294   5.097   6.983 -1.0250  3.1214  2.4026
 7260SOL     OW22851   2.911   4.532   6.632 -0.0935  0.4132  0.2777
 7260SOL    HW122852   2.969   4.559   6.703 -0.6589 -0.6302  1.1723
 7260SOL    HW222853   2.823   4.550   6.665 -0.3423  0.7797 -0.5497
 7261SOL     OW22854   4.543   4.708   3.943 -0.3801  0.2248 -0.4518
 7261SOL    HW122855   4.589   4.706   4.026  0.1851  0.9827 -0.7308
 7261SOL    HW222856   4.452   4.727   3.966 -0.0873  1.1721 -0.0518
 7262SOL     OW22857   5.168   1.461   6.030  0.0679 -0.3283  0.0098
 7262SOL    HW122858   5.139   1.412   5.953 -0.4819 -0.4257  0.2733
 7262SOL    HW222859   5.146   1.404   6.104  0.5668 -0.2218  0.2452
 7263SOL     OW22860   5.308   4.476   0.317  0.4424 -0.0816 -0.1141
 7263SOL    HW122861   5.213   4.480   0.328  0.6352  0.8012  1.5387
 7263SOL    HW222862   5.333   4.392   0.356  0.3780 -0.1600 -0.2414
 7264SOL     OW22863   0.666   4.172   6.770 -0.3270 -0.2174  0.4507
 7264SOL    HW122864   0.572   4.163   6.757 -0.1141 -3.3618  0.2843
 7264SOL    HW222865   0.705   4.109   6.709  1.9652  1.6538 -0.1433
 7265SOL     OW22866   2.113   4.115   6.108  0.2091  0.8800 -0.7771
 7265SOL    HW122867   2.076   4.049   6.050 -0.6107  0.9854 -0.3983
 7265SOL    HW222868   2.165   4.172   6.051 -0.0076  0.5716 -1.2833
 7266SOL     OW22869   6.830   7.289   5.201  0.5376  0.6574 -0.0770
 7266SOL    HW122870   6.860   7.306   5.111  1.6238 -1.6766 -0.2326
 7266SOL    HW222871   6.774   7.211   5.194 -1.1686  1.7183  1.0147
 7267SOL     OW22872   0.295   3.552   5.600  0.1767  0.0498  0.6826
 7267SOL    HW122873   0.244   3.597   5.667 -1.9726 -0.5660 -0.4490
 7267SOL    HW222874   0.374   3.522   5.645 -0.5851  0.7787  2.5808
 7268SOL     OW22875   1.540   5.426   4.204  0.5230 -0.1096 -0.2497
 7268SOL    HW122876   1.568   5.493   4.142  0.7438 -0.0641 -0.1045
 7268SOL    HW222877   1.601   5.353   4.190  2.8293  1.1453  2.2128
 7269SOL     OW22878   1.060   7.066   3.299 -0.2993  0.3328  0.2441
 7269SOL    HW122879   1.088   7.007   3.229 -1.7619  0.3070 -0.3592
 7269SOL    HW222880   0.968   7.084   3.279  0.0286  2.6633  0.5006
 7270SOL     OW22881   6.689   4.888   5.555 -0.6106 -0.3161 -0.1114
 7270SOL    HW122882   6.756   4.839   5.602  0.6129  0.1773 -1.2768
 7270SOL    HW222883   6.645   4.940   5.622  0.2789 -0.5158  0.6413
 7271SOL     OW22884   0.776   6.136   4.359 -0.4880  0.2381  0.1002
 7271SOL    HW122885   0.834   6.131   4.435  0.0381  0.1707 -0.3029
 7271SOL    HW222886   0.805   6.064   4.302 -0.6417  0.5119 -0.3248
 7272SOL     OW22887   2.958   0.877   7.862 -0.1291  0.2499 -0.4473
 7272SOL    HW122888   2.959   0.790   7.823  3.5791  0.5969 -1.4572
 7272SOL    HW222889   2.995   0.865   7.949  1.2773  0.8824 -0.9327
 7273SOL     OW22890   6.836   7.706   4.080 -0.1654  0.3613  0.3167
 7273SOL    HW122891   6.781   7.686   4.155  0.4484 -2.3169  0.1563
 7273SOL    HW222892   6.784   7.680   4.004 -0.3646  2.0344 -0.1489
 7274SOL     OW22893   2.545   6.944   4.315 -0.2808  0.0187 -0.1011
 7274SOL    HW122894   2.473   6.974   4.259 -0.8522 -0.7774  0.1859
 7274SOL    HW222895   2.541   6.849   4.309  2.2493 -0.0712 -1.9545
 7275SOL     OW22896   2.475   3.672   3.181  0.2750 -0.2656  0.2499
 7275SOL    HW122897   2.550   3.698   3.129 -0.7436 -0.1128 -1.1920
 7275SOL    HW222898   2.512   3.640   3.263  1.8243  1.1644  0.1524
 7276SOL     OW22899   7.349   8.131   1.212  0.0549  0.1575 -0.4931
 7276SOL    HW122900   7.386   8.215   1.187  0.5650 -0.3298 -1.4155
 7276SOL    HW222901   7.298   8.103   1.136 -0.6974 -0.0444  0.0722
 7277SOL     OW22902   6.726   0.821   5.263 -0.7834  0.0332  0.4679
 7277SOL    HW122903   6.808   0.834   5.216  0.0869 -0.8217  1.6849
 7277SOL    HW222904   6.663   0.794   5.196  0.6076 -1.9237 -0.1371
 7278SOL     OW22905   5.302   0.855   6.950 -0.4189 -0.4348  0.4827
 7278SOL    HW122906   5.335   0.920   6.888 -0.0719 -0.7354  0.3519
 7278SOL    HW222907   5.311   0.772   6.904 -1.8078 -0.4860  0.2484
 7279SOL     OW22908   1.907   2.509   4.979 -0.0510  0.0290  0.1832
 7279SOL    HW122909   1.945   2.435   5.026  0.3774  0.3967  0.4299
 7279SOL    HW222910   1.829   2.474   4.938  0.7212 -0.8345 -0.6009
 7280SOL     OW22911   1.568   5.710   4.013 -0.1469  0.1562  0.3641
 7280SOL    HW122912   1.643   5.769   4.005 -0.5883  0.6402 -0.2383
 7280SOL    HW222913   1.546   5.686   3.923  0.2454 -1.2170  0.6011
 7281SOL     OW22914   3.215   3.546   2.808 -0.1651  0.2531 -0.0260
 7281SOL    HW122915   3.179   3.634   2.821 -0.2920  0.1455  0.3866
 7281SOL    HW222916   3.307   3.561   2.789 -0.3333  0.5120 -0.6623
 7282SOL     OW22917   6.461   7.208   1.237 -0.0251  0.8456 -0.0516
 7282SOL    HW122918   6.553   7.228   1.218  0.7513 -1.7479  0.5831
 7282SOL    HW222919   6.424   7.290   1.268  1.8899  2.1219 -0.9778
 7283SOL     OW22920   0.964   4.965   2.328 -0.2754  0.2064 -0.5284
 7283SOL    HW122921   1.008   5.027   2.386 -1.1194  0.5057 -0.2000
 7283SOL    HW222922   1.020   4.963   2.250  1.2425 -0.7077  0.5237
 7284SOL     OW22923   0.381   5.358   4.591 -0.3745 -0.0814  0.2789
 7284SOL    HW122924   0.331   5.324   4.517 -0.7837 -0.5617  0.7693
 7284SOL    HW222925   0.382   5.286   4.654  0.9772 -0.1072  0.2666
 7285SOL     OW22926   4.339   0.938   4.121 -0.4155 -0.3463 -0.2627
 7285SOL    HW122927   4.355   0.850   4.156 -0.5661  0.0412  0.8245
 7285SOL    HW222928   4.269   0.926   4.057  0.6127 -1.2459 -1.2559
 7286SOL     OW22929   6.368   2.808   3.157 -0.4533  0.1974 -0.1534
 7286SOL    HW122930   6.299   2.751   3.121  0.5495 -0.4267 -1.1501
 7286SOL    HW222931   6.433   2.747   3.192  0.4821  0.7077 -0.9308
 7287SOL     OW22932   5.577   2.896   1.955 -0.0235 -0.1346  0.2440
 7287SOL    HW122933   5.638   2.940   2.015 -0.7844 -1.1346  1.8499
 7287SOL    HW222934   5.517   2.849   2.014 -1.7403  0.0285 -1.2974
 7288SOL     OW22935   5.591   1.041   0.232 -0.1827  0.1550  0.4392
 7288SOL    HW122936   5.644   1.014   0.158 -0.9561 -2.5180  0.7706
 7288SOL    HW222937   5.595   1.137   0.231  0.8978  0.1493 -2.2161
 7289SOL     OW22938   6.520   3.775   5.443  0.3667 -0.5951  0.1247
 7289SOL    HW122939   6.514   3.680   5.440  2.2789 -0.7403 -1.8471
 7289SOL    HW222940   6.452   3.805   5.383  1.0613 -0.8689 -0.8398
 7290SOL     OW22941   6.266   5.767   2.866  0.9995 -0.0642  0.3538
 7290SOL    HW122942   6.280   5.837   2.930 -0.1546  0.0611  0.4885
 7290SOL    HW222943   6.201   5.802   2.806 -1.2369 -1.7371  1.6358
 7291SOL     OW22944   7.775   7.675   1.953  0.4673  0.0864 -0.3705
 7291SOL    HW122945   7.750   7.767   1.949  1.1270  0.2540 -1.0499
 7291SOL    HW222946   7.695   7.629   1.976  0.3743  0.9271  1.1004
 7292SOL     OW22947   4.862   6.505   6.015 -0.2962  0.2026  0.0938
 7292SOL    HW122948   4.792   6.469   5.960  1.3349 -2.7382 -0.2842
 7292SOL    HW222949   4.929   6.533   5.954 -0.1938  0.8786  0.5086
 7293SOL     OW22950   6.634   4.082   4.402 -0.1441  0.3123 -0.0168
 7293SOL    HW122951   6.565   4.146   4.416 -1.2177 -0.3300 -1.9487
 7293SOL    HW222952   6.597   4.020   4.339  2.3360  0.1811 -1.4785
 7294SOL     OW22953   6.925   6.840   6.212  0.1644  0.2819 -0.4158
 7294SOL    HW122954   6.883   6.754   6.218 -1.4310  1.0678  0.2411
 7294SOL    HW222955   6.951   6.848   6.120 -0.9333 -0.3444 -0.7988
 7295SOL     OW22956   4.623   7.787   5.286 -0.2521  0.3723  0.0464
 7295SOL    HW122957   4.607   7.808   5.378 -1.3306  0.3502 -0.1305
 7295SOL    HW222958   4.719   7.784   5.279 -0.1164 -1.7889  1.6687
 7296SOL     OW22959   7.362   3.668   1.238 -0.9069  0.0768  0.4240
 7296SOL    HW122960   7.274   3.667   1.275 -1.3185  0.1562 -0.5322
 7296SOL    HW222961   7.359   3.603   1.167 -0.3680  0.5136 -0.0070
 7297SOL     OW22962   3.138   6.426   7.715  0.0322 -0.1655 -0.7658
 7297SOL    HW122963   3.052   6.397   7.683 -0.4611 -0.1895  0.5121
 7297SOL    HW222964   3.117   6.496   7.778  0.8773 -0.9205  0.3912
 7298SOL     OW22965   2.670   2.204   6.755 -0.1267  0.7550 -0.0729
 7298SOL    HW122966   2.732   2.132   6.747 -0.7449  0.1449  0.5701
 7298SOL    HW222967   2.633   2.212   6.667 -0.4900 -0.1098 -0.0083
 7299SOL     OW22968   3.104   0.234   5.417  0.1502  0.0033 -0.6238
 7299SOL    HW122969   3.169   0.163   5.416 -0.4205 -0.5628  0.4194
 7299SOL    HW222970   3.103   0.267   5.327  2.0971  0.2445 -0.6029
 7300SOL     OW22971   0.925   1.070   7.532 -0.2388 -0.4497 -0.0829
 7300SOL    HW122972   0.966   1.002   7.586 -2.0954 -1.7122 -0.1853
 7300SOL    HW222973   0.928   1.149   7.587  0.0771 -1.1209  0.8862
 7301SOL     OW22974   5.831   3.835   5.729 -0.2968  0.2463  0.0913
 7301SOL    HW122975   5.801   3.782   5.803 -1.9165  0.2976 -0.4855
 7301SOL    HW222976   5.756   3.839   5.671  0.6653  0.9587 -1.1466
 7302SOL     OW22977   5.765   1.371   7.935 -0.5430  0.1244  0.4513
 7302SOL    HW122978   5.747   1.465   7.931  0.3014  0.2776  0.0336
 7302SOL    HW222979   5.689   1.331   7.894  0.5188  0.8345 -2.4838
 7303SOL     OW22980   2.955   7.387   6.972  0.2046 -0.2995  0.0730
 7303SOL    HW122981   2.989   7.458   6.917  0.7281 -1.7851 -1.6240
 7303SOL    HW222982   2.981   7.307   6.926 -2.1039 -1.5773  0.8511
 7304SOL     OW22983   6.071   1.710   7.123 -0.5600  0.6695  0.5543
 7304SOL    HW122984   6.077   1.674   7.034 -0.5696 -0.0864  0.8547
 7304SOL    HW222985   6.153   1.685   7.165 -0.9932  0.1134  1.0858
 7305SOL     OW22986   6.582   1.513   2.848  0.5851 -0.0278 -0.0703
 7305SOL    HW122987   6.659   1.564   2.825 -0.6739  1.7645 -0.5750
 7305SOL    HW222988   6.525   1.520   2.771  0.5042 -2.6136 -0.3403
 7306SOL     OW22989   6.701   0.463   2.986  0.1327  0.6347 -0.3006
 7306SOL    HW122990   6.784   0.417   2.999 -0.8282 -0.8888  0.8809
 7306SOL    HW222991   6.688   0.511   3.068 -0.4531  0.3284 -0.2113
 7307SOL     OW22992   5.782   4.245   3.817  0.0043  0.0382  0.2511
 7307SOL    HW122993   5.826   4.216   3.898 -0.1730 -0.0202  0.3274
 7307SOL    HW222994   5.817   4.187   3.749  0.5805  0.4546  0.1814
 7308SOL     OW22995   0.997   1.568   7.447 -0.0396  0.1127 -0.0895
 7308SOL    HW122996   1.088   1.599   7.454  0.5192 -1.6190  0.9091
 7308SOL    HW222997   0.982   1.521   7.528 -1.8113  0.2334 -0.3212
 7309SOL     OW22998   7.524   6.591   7.863  0.6587  0.7192  0.0280
 7309SOL    HW122999   7.490   6.680   7.872 -0.7761  0.2177 -0.1553
 7309SOL    HW223000   7.492   6.545   7.941  0.2047  0.0075 -0.5738
 7310SOL     OW23001   0.450   1.633   3.556  0.2551  0.4305  0.2176
 7310SOL    HW123002   0.417   1.549   3.524  1.6753 -0.4646  0.9898
 7310SOL    HW223003   0.373   1.688   3.565 -0.5460 -0.3057 -1.7034
 7311SOL     OW23004   2.803   2.581   5.087 -0.3356 -0.2126 -0.1897
 7311SOL    HW123005   2.846   2.541   5.012 -1.2895  0.0247 -0.8790
 7311SOL    HW223006   2.716   2.606   5.055 -0.8269 -0.2651  1.0335
 7312SOL     OW23007   6.360   0.607   0.728 -0.5484  0.2189  0.7941
 7312SOL    HW123008   6.287   0.627   0.785 -1.2673  0.5055 -0.1905
 7312SOL    HW223009   6.360   0.511   0.720 -3.2177  0.2881 -2.1070
 7313SOL     OW23010   2.358   0.253   0.161  0.1391 -0.0917  0.2272
 7313SOL    HW123011   2.417   0.307   0.108 -0.9762  0.9531  0.0284
 7313SOL    HW223012   2.415   0.218   0.230  1.5369 -1.1381 -1.3434
 7314SOL     OW23013   7.269   5.907   4.338 -1.0053 -0.5539  0.6362
 7314SOL    HW123014   7.326   5.881   4.411  0.3673  0.9813  0.1711
 7314SOL    HW223015   7.200   5.841   4.337 -0.3870 -1.2992  2.5524
 7315SOL     OW23016   0.154   4.106   3.467 -0.2196 -0.3798 -0.0183
 7315SOL    HW123017   0.129   4.086   3.557  0.0390  1.6989  0.5683
 7315SOL    HW223018   0.090   4.171   3.438  0.8910  0.4841 -0.6038
 7316SOL     OW23019   1.739   1.994   2.763 -0.1138  0.5757  0.1893
 7316SOL    HW123020   1.677   1.973   2.833 -1.3669 -0.6908 -1.2121
 7316SOL    HW223021   1.797   2.060   2.801 -0.5887 -0.2276  2.4732
 7317SOL     OW23022   2.745   1.158   3.953 -0.0975  0.2988 -0.7608
 7317SOL    HW123023   2.705   1.207   3.882  0.4008  0.1915 -1.1233
 7317SOL    HW223024   2.684   1.087   3.972 -0.6848  0.8790 -0.4299
 7318SOL     OW23025   6.419   3.443   4.369 -0.1580  0.1967 -0.1650
 7318SOL    HW123026   6.389   3.353   4.383 -0.2030  0.3060  0.4792
 7318SOL    HW223027   6.343   3.496   4.391 -0.2818  0.3818 -1.0001
 7319SOL     OW23028   2.150   6.240   3.382 -0.4127 -0.3017  0.6554
 7319SOL    HW123029   2.121   6.195   3.303  1.9979 -1.7293  0.4801
 7319SOL    HW223030   2.189   6.321   3.351  0.0317 -0.5992  0.4333
 7320SOL     OW23031   6.863   7.272   7.442  0.0902 -0.0066  0.1020
 7320SOL    HW123032   6.858   7.201   7.506 -0.1514  1.1891  1.4590
 7320SOL    HW223033   6.780   7.267   7.395 -0.4110  0.0697  0.9584
 7321SOL     OW23034   7.940   1.044   7.678  0.4857  0.6928 -0.1317
 7321SOL    HW123035   7.885   1.121   7.695  0.9371  0.7836  0.9785
 7321SOL    HW223036   7.991   1.033   7.758 -1.3452 -2.2868  0.7771
 7322SOL     OW23037   4.854   5.028   2.368  0.5943  0.1768 -0.1597
 7322SOL    HW123038   4.922   4.961   2.360  1.0225  0.5544  0.2380
 7322SOL    HW223039   4.795   4.994   2.436  0.5970  0.0248 -0.2327
 7323SOL     OW23040   3.020   5.234   6.768  0.8388  0.1421  0.2099
 7323SOL    HW123041   3.030   5.327   6.788  1.6552  0.2160 -0.5089
 7323SOL    HW223042   2.926   5.223   6.750  0.8870  0.9986 -0.5925
 7324SOL     OW23043   7.155   3.865   0.531  0.0737 -0.0013  0.0718
 7324SOL    HW123044   7.226   3.895   0.588  1.2105  0.4135 -1.4876
 7324SOL    HW223045   7.101   3.809   0.586  0.3402  1.4617  1.9122
 7325SOL     OW23046   1.351   0.308   1.768  0.1891 -0.2281 -0.5708
 7325SOL    HW123047   1.435   0.263   1.755 -0.0746 -0.3766 -1.9048
 7325SOL    HW223048   1.365   0.363   1.845  1.9698  0.7883 -1.5476
 7326SOL     OW23049   4.034   4.857   2.623  0.1092 -0.4484 -0.0109
 7326SOL    HW123050   4.124   4.889   2.628  0.9680 -2.8922  2.7262
 7326SOL    HW223051   3.980   4.930   2.654  1.2968  0.4842 -0.1012
 7327SOL     OW23052   8.022   0.129   5.730 -0.1959  0.1725 -0.5276
 7327SOL    HW123053   7.965   0.183   5.675 -1.4020  0.2693  0.7473
 7327SOL    HW223054   8.054   0.189   5.798  0.2122 -0.2232 -0.3652
 7328SOL     OW23055   7.459   6.312   7.289  0.3026  0.2086 -0.1508
 7328SOL    HW123056   7.418   6.280   7.208 -2.0600  1.0013  0.6635
 7328SOL    HW223057   7.453   6.407   7.283  1.8955  0.3552  0.1174
 7329SOL     OW23058   4.579   3.002   5.607  0.5184  0.2118 -0.3688
 7329SOL    HW123059   4.655   2.980   5.661 -0.7317  2.3792  2.5669
 7329SOL    HW223060   4.523   2.924   5.613  0.8787  0.0089  0.6291
 7330SOL     OW23061   4.274   5.938   6.091 -0.7058 -0.5114 -0.1798
 7330SOL    HW123062   4.328   5.859   6.096  0.6601  0.4451  1.3951
 7330SOL    HW223063   4.333   6.006   6.059 -1.5887  0.1061 -0.5549
 7331SOL     OW23064   2.592   6.747   1.226  0.4329  0.1692 -0.3957
 7331SOL    HW123065   2.519   6.735   1.287  0.5939  0.5053 -0.1279
 7331SOL    HW223066   2.556   6.800   1.155 -0.2253 -1.6523 -1.4835
 7332SOL     OW23067   2.754   4.019   4.088  0.2131  0.0958  0.2590
 7332SOL    HW123068   2.739   4.071   4.167 -0.3499  0.2098  0.0808
 7332SOL    HW223069   2.667   4.004   4.052  0.2644 -1.8126  0.8254
 7333SOL     OW23070   3.632   5.590   7.704  0.6458 -0.2171 -0.3425
 7333SOL    HW123071   3.630   5.651   7.631  0.3486  0.2105  0.0176
 7333SOL    HW223072   3.672   5.511   7.668 -1.1706 -0.6859 -1.4853
 7334SOL     OW23073   7.496   0.583   1.830  0.1871  0.3380  0.3219
 7334SOL    HW123074   7.449   0.591   1.747  1.7575 -0.3233 -0.6704
 7334SOL    HW223075   7.569   0.524   1.811  1.1893  0.9963  1.9078
 7335SOL     OW23076   6.369   3.546   3.934 -0.4130 -0.2776 -0.0666
 7335SOL    HW123077   6.284   3.544   3.978 -0.2269 -0.1627  0.3081
 7335SOL    HW223078   6.431   3.516   4.001 -0.2260 -0.8821 -0.5003
 7336SOL     OW23079   7.288   7.866   8.134 -0.4445  0.0436 -0.0941
 7336SOL    HW123080   7.321   7.956   8.129 -0.7828  0.2836  1.5720
 7336SOL    HW223081   7.351   7.821   8.190  0.4966 -1.1631 -2.0173
 7337SOL     OW23082   4.672   0.634   6.297  0.2134 -0.6301  0.5863
 7337SOL    HW123083   4.591   0.679   6.273  0.3748 -0.1107  0.9869
 7337SOL    HW223084   4.739   0.676   6.243 -0.0692 -2.4874 -1.3174
 7338SOL     OW23085   2.715   5.557   3.793  0.7423 -0.6749  0.1639
 7338SOL    HW123086   2.654   5.629   3.812  0.4448 -1.3676  2.0929
 7338SOL    HW223087   2.727   5.513   3.878  1.7100 -2.2806 -0.7543
 7339SOL     OW23088   6.170   5.952   7.799 -0.5253  0.2544 -0.0238
 7339SOL    HW123089   6.260   5.941   7.829 -1.1869 -0.3171  1.8724
 7339SOL    HW223090   6.165   6.044   7.774  0.7192  0.1641 -0.7303
 7340SOL     OW23091   6.620   0.444   1.223  0.5207  0.0121 -0.4239
 7340SOL    HW123092   6.637   0.530   1.185  1.9447  0.5720  1.3172
 7340SOL    HW223093   6.702   0.397   1.214  0.4804 -0.3014  0.7131
 7341SOL     OW23094   6.124   2.014   6.974 -0.8532 -0.7377 -0.2205
 7341SOL    HW123095   6.088   2.097   7.006 -1.1465 -1.1098  0.4356
 7341SOL    HW223096   6.048   1.967   6.938 -0.5112 -0.2721 -1.6122
 7342SOL     OW23097   0.747   7.779   7.632  0.1014  0.1762 -0.1962
 7342SOL    HW123098   0.736   7.684   7.624 -0.8928  0.2299  0.3570
 7342SOL    HW223099   0.812   7.790   7.701 -0.2377 -0.1046  0.1786
 7343SOL     OW23100   2.020   4.071   5.371 -0.1495  0.3940  0.5132
 7343SOL    HW123101   2.018   4.163   5.346  0.8321  0.0459 -0.9521
 7343SOL    HW223102   2.027   4.024   5.289 -0.3211 -0.9921  1.2632
 7344SOL     OW23103   2.474   7.185   1.929 -0.0296  0.4965 -0.0773
 7344SOL    HW123104   2.507   7.266   1.890  1.7351  0.3467  1.0051
 7344SOL    HW223105   2.487   7.119   1.861 -2.0895  1.1721 -1.2165
 7345SOL     OW23106   5.717   7.438   3.144 -0.1543 -0.1808  0.4289
 7345SOL    HW123107   5.779   7.381   3.190 -1.7031 -1.8973  0.4794
 7345SOL    HW223108   5.633   7.421   3.186 -0.6608  2.4554  0.6870
 7346SOL     OW23109   4.962   6.013   6.439  0.1419  0.7115  0.4063
 7346SOL    HW123110   4.957   5.993   6.346 -0.8130  0.2774  0.5455
 7346SOL    HW223111   5.056   6.028   6.455  0.4214 -0.0371 -0.4500
 7347SOL     OW23112   2.415   3.123   1.017  0.1478 -0.2709 -0.4360
 7347SOL    HW123113   2.321   3.137   1.026  0.3974  1.2239  0.0259
 7347SOL    HW223114   2.429   3.034   1.050 -1.0492 -0.3996 -0.2196
 7348SOL     OW23115   4.076   4.089   6.797 -0.7022  0.0128  0.5972
 7348SOL    HW123116   4.011   4.046   6.852  0.5131 -1.2272  1.1070
 7348SOL    HW223117   4.027   4.115   6.718 -1.4043 -2.8071 -0.0027
 7349SOL     OW23118   0.934   7.565   6.745 -0.3194 -0.2014  0.3091
 7349SOL    HW123119   0.873   7.558   6.818 -0.7477  2.2584  0.2972
 7349SOL    HW223120   0.880   7.553   6.667 -0.0544 -1.7930  0.3535
 7350SOL     OW23121   5.462   2.525   3.789 -0.4510 -0.0131 -0.3894
 7350SOL    HW123122   5.415   2.588   3.843 -0.6622 -1.6432  1.4600
 7350SOL    HW223123   5.482   2.453   3.849  2.1053 -0.5520 -1.7548
 7351SOL     OW23124   1.590   2.486   1.379 -0.3860  0.1906 -0.2542
 7351SOL    HW123125   1.507   2.506   1.336  0.0638  1.3344 -0.6360
 7351SOL    HW223126   1.642   2.441   1.313 -0.6249 -0.3355 -0.0835
 7352SOL     OW23127   1.991   7.325   7.116 -0.0768 -0.1369  0.2708
 7352SOL    HW123128   2.020   7.316   7.025 -0.6482 -1.1138  0.1670
 7352SOL    HW223129   1.908   7.276   7.119 -0.7704  1.0380  0.9868
 7353SOL     OW23130   2.688   4.666   5.787  0.6620  0.1285 -1.0379
 7353SOL    HW123131   2.681   4.744   5.731  0.9854  1.9141  1.2910
 7353SOL    HW223132   2.777   4.670   5.823 -1.0872  2.2443  3.8404
 7354SOL     OW23133   3.360   6.270   0.978  0.0991  0.6026 -0.0770
 7354SOL    HW123134   3.455   6.277   0.990  0.2588 -0.0389 -0.9176
 7354SOL    HW223135   3.338   6.342   0.920 -0.0331  1.1247  0.6050
 7355SOL     OW23136   5.843   5.771   3.086  0.0547 -0.2271 -0.0192
 7355SOL    HW123137   5.776   5.733   3.029 -0.7499 -1.0050  1.3896
 7355SOL    HW223138   5.829   5.729   3.171 -1.0012  3.2489  1.7361
 7356SOL     OW23139   1.590   2.912   3.970  0.4422 -0.0182  0.7176
 7356SOL    HW123140   1.513   2.901   3.914  1.5986  0.3641 -1.0312
 7356SOL    HW223141   1.631   2.826   3.971  1.1368  0.2975 -0.1322
 7357SOL     OW23142   2.606   5.851   2.229 -0.7550  0.5924  0.1452
 7357SOL    HW123143   2.662   5.921   2.194  0.1382 -1.2640 -2.4765
 7357SOL    HW223144   2.521   5.865   2.188 -0.7224  0.4594  0.0296
 7358SOL     OW23145   7.453   0.669   5.498 -0.1938  0.4103  0.0502
 7358SOL    HW123146   7.490   0.625   5.574  1.5240  1.5369 -0.0848
 7358SOL    HW223147   7.404   0.743   5.535 -2.6911 -1.2052  0.2451
 7359SOL     OW23148   3.460   5.538   4.974  0.0245  0.4623  0.4393
 7359SOL    HW123149   3.434   5.447   4.959  0.6505  0.2962  0.3113
 7359SOL    HW223150   3.394   5.590   4.927  0.6922  0.0126 -1.0791
 7360SOL     OW23151   0.195   5.886   0.645 -0.0360 -1.0704  0.3938
 7360SOL    HW123152   0.237   5.961   0.603 -0.2836  0.2322  2.3487
 7360SOL    HW223153   0.268   5.829   0.669  0.2880 -0.7185  0.2531
 7361SOL     OW23154   6.487   4.407   1.062  0.2755  0.2028  0.0473
 7361SOL    HW123155   6.523   4.457   1.136  1.6520  0.3859 -0.7180
 7361SOL    HW223156   6.448   4.329   1.103 -1.2101  1.4909  1.1759
 7362SOL     OW23157   0.665   0.219   7.667 -0.8157  0.7831  0.2566
 7362SOL    HW123158   0.594   0.282   7.681  1.8092  4.0150  0.0515
 7362SOL    HW223159   0.744   0.265   7.694  1.4904 -1.9237 -1.3581
 7363SOL     OW23160   8.041   2.415   3.814 -0.1080  0.4485 -0.3155
 7363SOL    HW123161   7.983   2.458   3.752 -1.3110 -1.0969 -0.3248
 7363SOL    HW223162   8.039   2.322   3.788  0.1068 -0.0848  1.4416
 7364SOL     OW23163   0.730   8.006   7.000  0.7130 -0.0314  0.4879
 7364SOL    HW123164   0.722   8.068   6.927  0.8281  0.4029  0.8359
 7364SOL    HW223165   0.657   8.029   7.058 -0.7676 -1.8560 -0.5566
 7365SOL     OW23166   1.005   6.104   5.820  0.3882  0.1488 -0.1408
 7365SOL    HW123167   0.969   6.149   5.743 -0.3376  1.1005  0.7086
 7365SOL    HW223168   0.987   6.012   5.805 -0.8883  0.4386 -0.5561
 7366SOL     OW23169   7.343   5.290   2.797 -0.4297  0.0490  0.5128
 7366SOL    HW123170   7.292   5.212   2.777 -0.4726  0.1712  0.1223
 7366SOL    HW223171   7.283   5.346   2.845 -0.1247 -0.5220  1.5853
 7367SOL     OW23172   7.695   4.713   5.851  0.0283 -0.3983  0.7225
 7367SOL    HW123173   7.681   4.623   5.823  1.4098 -0.8198  1.3285
 7367SOL    HW223174   7.726   4.706   5.942  0.3714  0.6668  0.7069
 7368SOL     OW23175   8.013   3.804   5.124  0.5303  0.6311  0.1506
 7368SOL    HW123176   7.952   3.749   5.075  0.6321  0.1275  0.5865
 7368SOL    HW223177   7.991   3.789   5.215  2.0569 -0.4514  0.3725
 7369SOL     OW23178   1.774   4.219   2.795  0.1344 -0.2035 -0.0527
 7369SOL    HW123179   1.795   4.213   2.888  2.4388 -0.4895 -0.5522
 7369SOL    HW223180   1.687   4.180   2.788 -0.0539 -0.2430  1.9594
 7370SOL     OW23181   7.692   3.052   0.598  0.1304 -0.2306  0.1365
 7370SOL    HW123182   7.680   2.994   0.523  0.5244 -0.4530  0.2434
 7370SOL    HW223183   7.787   3.059   0.608  0.1020  1.0088 -0.3235
 7371SOL     OW23184   6.036   6.675   5.664  0.0964 -0.0079  0.3993
 7371SOL    HW123185   5.983   6.690   5.586  3.6461 -0.2547 -2.3083
 7371SOL    HW223186   6.030   6.580   5.679  0.7326 -0.2657 -0.7684
 7372SOL     OW23187   3.292   0.248   0.487 -0.3780 -0.2376  0.2786
 7372SOL    HW123188   3.341   0.238   0.569 -0.6433 -1.9963  0.2560
 7372SOL    HW223189   3.302   0.164   0.442 -1.3872  0.2169 -0.8555
 7373SOL     OW23190   2.447   0.718   1.741 -0.2815 -0.1458 -0.8841
 7373SOL    HW123191   2.464   0.767   1.821  0.0129  0.7881 -1.5112
 7373SOL    HW223192   2.519   0.655   1.736 -0.5038 -0.4670 -0.2337
 7374SOL     OW23193   4.977   7.416   2.358 -0.5179 -0.1465 -0.9192
 7374SOL    HW123194   4.958   7.339   2.304  0.2275 -1.5837  0.7801
 7374SOL    HW223195   5.048   7.388   2.416 -1.1034  1.3953  0.6349
 7375SOL     OW23196   1.525   7.379   7.869  0.0748  0.5416  0.0308
 7375SOL    HW123197   1.559   7.304   7.820 -0.8021  0.1555 -0.0125
 7375SOL    HW223198   1.493   7.341   7.951  1.2669  1.1418  0.8021
 7376SOL     OW23199   1.952   5.051   2.793  0.1306 -0.3760 -0.0021
 7376SOL    HW123200   1.891   5.074   2.724 -0.0039 -2.3909 -0.6145
 7376SOL    HW223201   1.922   4.965   2.824  0.5332  0.1999  2.1653
 7377SOL     OW23202   3.781   2.124   1.767 -0.1156 -0.2585  0.1479
 7377SOL    HW123203   3.742   2.210   1.779  1.4875  0.6793 -0.9712
 7377SOL    HW223204   3.805   2.096   1.855  0.3762  0.9601  0.4215
 7378SOL     OW23205   6.363   0.805   7.876 -0.1028 -0.7416 -0.0341
 7378SOL    HW123206   6.278   0.775   7.910 -0.1015 -1.2564 -0.4811
 7378SOL    HW223207   6.374   0.891   7.916 -0.4506 -1.0139  0.6872
 7379SOL     OW23208   1.743   3.653   6.272 -0.6388 -0.1646  0.7425
 7379SOL    HW123209   1.745   3.690   6.184 -0.0383 -0.7001  0.5211
 7379SOL    HW223210   1.682   3.709   6.321 -0.4280  0.5702  0.1836
 7380SOL     OW23211   6.484   1.565   6.665 -0.3995 -0.5597  0.2573
 7380SOL    HW123212   6.578   1.584   6.659 -0.6753  0.4955 -2.3353
 7380SOL    HW223213   6.469   1.498   6.598 -1.6112 -0.0617 -0.0027
 7381SOL     OW23214   6.840   1.086   6.184 -0.1672 -0.5069  0.2160
 7381SOL    HW123215   6.852   1.135   6.103  1.1486 -1.1014  0.0288
 7381SOL    HW223216   6.793   1.007   6.158 -0.4896 -0.3064  0.1816
 7382SOL     OW23217   0.286   5.979   7.230 -0.1114  0.6037 -0.0065
 7382SOL    HW123218   0.321   6.002   7.144  0.0035 -0.7499 -0.3512
 7382SOL    HW223219   0.342   5.907   7.259 -0.0675  1.1298  1.2731
 7383SOL     OW23220   7.294   5.833   5.196  0.1694 -0.1811  0.1906
 7383SOL    HW123221   7.366   5.776   5.224 -0.4241 -0.8443  0.3864
 7383SOL    HW223222   7.242   5.779   5.138 -1.0350 -0.2330  1.2701
 7384SOL     OW23223   1.868   3.725   3.437 -0.1175  0.7211 -0.7851
 7384SOL    HW123224   1.933   3.655   3.434 -2.0570 -1.5967  2.8172
 7384SOL    HW223225   1.809   3.707   3.363  0.5525 -0.2407 -1.1020
 7385SOL     OW23226   6.035   6.063   0.532 -0.0951  0.9085  0.3036
 7385SOL    HW123227   5.956   6.055   0.586  1.3156  1.0781  2.5675
 7385SOL    HW223228   6.074   5.976   0.534 -0.1244  0.8718 -0.6349
 7386SOL     OW23229   6.714   7.937   1.185 -0.1920 -0.3333  0.4635
 7386SOL    HW123230   6.809   7.951   1.187 -0.0188 -0.6297 -2.2300
 7386SOL    HW223231   6.704   7.842   1.186 -0.4137 -0.3174  0.0339
 7387SOL     OW23232   4.617   1.384   4.830  0.0323  0.3389  0.0318
 7387SOL    HW123233   4.579   1.312   4.780 -0.9843  0.4804  0.5799
 7387SOL    HW223234   4.625   1.456   4.766 -1.4125  0.5726  0.0888
 7388SOL     OW23235   1.748   1.636   2.322 -0.4252 -0.2249  0.0383
 7388SOL    HW123236   1.755   1.696   2.396 -0.9600  0.2801 -0.3162
 7388SOL    HW223237   1.697   1.562   2.356 -1.2963  0.3347 -0.0170
 7389SOL     OW23238   6.626   4.310   4.857  0.4360  0.2867 -0.2824
 7389SOL    HW123239   6.539   4.305   4.816  0.7548 -0.1547 -0.9040
 7389SOL    HW223240   6.665   4.389   4.820  1.0094 -0.5028 -1.4114
 7390SOL     OW23241   0.754   0.587   2.617  0.0231 -0.3809  0.3947
 7390SOL    HW123242   0.840   0.547   2.634 -0.2132 -1.6988 -1.2460
 7390SOL    HW223243   0.743   0.651   2.687  2.1198 -0.5451  0.9372
 7391SOL     OW23244   7.205   1.589   3.492 -0.6684 -0.4838  0.8802
 7391SOL    HW123245   7.190   1.634   3.575 -0.2796  0.2714  0.5621
 7391SOL    HW223246   7.163   1.646   3.427  1.8506  0.7588  0.1779
 7392SOL     OW23247   4.010   7.374   6.361 -0.9100  0.0301  0.1115
 7392SOL    HW123248   4.103   7.392   6.377 -0.0665 -1.9441 -1.9756
 7392SOL    HW223249   3.984   7.315   6.432  0.5406 -2.3532 -1.2167
 7393SOL     OW23250   2.009   0.479   3.577  0.5234  0.1307  0.2746
 7393SOL    HW123251   1.947   0.491   3.649 -1.4324  0.5067 -1.4005
 7393SOL    HW223252   2.014   0.565   3.536  0.3881 -0.4366 -0.9670
 7394SOL     OW23253   7.222   7.116   6.140 -0.4299 -0.1297  0.2027
 7394SOL    HW123254   7.138   7.161   6.153  0.9252  2.5605  0.1627
 7394SOL    HW223255   7.236   7.118   6.045  0.1759  0.4022  0.3001
 7395SOL     OW23256   3.445   3.378   3.067 -0.3974  0.3036  0.1198
 7395SOL    HW123257   3.471   3.469   3.052 -0.0921 -0.0177 -1.5698
 7395SOL    HW223258   3.351   3.376   3.048 -0.3034  0.1830 -0.3553
 7396SOL     OW23259   6.216   0.581   0.477  0.5755 -0.1690  0.1147
 7396SOL    HW123260   6.159   0.550   0.547 -2.1269  2.6530 -0.6152
 7396SOL    HW223261   6.255   0.661   0.511  2.5550 -0.9439 -0.1973
 7397SOL     OW23262   6.261   5.389   3.791  0.2727  0.6546  0.0666
 7397SOL    HW123263   6.321   5.391   3.865  0.3750  1.1154 -0.0209
 7397SOL    HW223264   6.260   5.480   3.759  0.2234  0.4635 -0.4876
 7398SOL     OW23265   6.423   3.196   0.221  0.2269  0.8117 -0.4851
 7398SOL    HW123266   6.346   3.222   0.271  0.1153 -0.8577  0.2856
 7398SOL    HW223267   6.411   3.102   0.207  1.7840  0.6653 -0.9696
 7399SOL     OW23268   0.309   4.342   6.139 -0.5695  0.3778  0.2224
 7399SOL    HW123269   0.369   4.385   6.078 -0.7946 -0.8931 -0.9536
 7399SOL    HW223270   0.366   4.301   6.203 -0.2329  0.2701 -0.1382
 7400SOL     OW23271   5.130   0.316   4.717 -0.6208  0.0215  0.0214
 7400SOL    HW123272   5.188   0.351   4.649 -0.4345  1.1363  0.7187
 7400SOL    HW223273   5.087   0.394   4.753 -1.1666 -0.6123  0.7618
 7401SOL     OW23274   1.674   0.092   5.841  0.1853 -0.5612  0.1179
 7401SOL    HW123275   1.673   0.161   5.776  0.5110  0.1029  0.7998
 7401SOL    HW223276   1.736   0.122   5.907  0.3711 -1.5243  0.4083
 7402SOL     OW23277   1.001   0.909   3.566 -0.1712  0.2785  0.6072
 7402SOL    HW123278   1.002   0.852   3.490  0.3192  1.4081 -0.2671
 7402SOL    HW223279   0.912   0.947   3.566 -0.0149  0.6546  0.2919
 7403SOL     OW23280   1.893   7.423   3.623 -0.1172  0.0376  0.2606
 7403SOL    HW123281   1.934   7.387   3.702  0.9358 -0.3850 -0.4517
 7403SOL    HW223282   1.801   7.400   3.631 -0.3919  1.5741  2.2336
 7404SOL     OW23283   6.438   1.275   7.326 -0.9137 -0.2400 -0.2574
 7404SOL    HW123284   6.393   1.231   7.398  0.7860 -1.0281  0.3778
 7404SOL    HW223285   6.489   1.344   7.368 -0.5680 -0.1533 -0.8049
 7405SOL     OW23286   3.489   6.498   4.677  0.7612 -0.4560 -0.3641
 7405SOL    HW123287   3.412   6.472   4.728  1.2409  0.8580  1.0898
 7405SOL    HW223288   3.546   6.422   4.679  0.4882 -0.6489  0.5282
 7406SOL     OW23289   7.518   2.130   4.261  0.3093 -0.7994 -0.2873
 7406SOL    HW123290   7.492   2.222   4.270  0.5858 -0.7433 -0.0537
 7406SOL    HW223291   7.503   2.111   4.168  1.0744 -0.2579 -0.5347
 7407SOL     OW23292   1.921   2.833   4.554  0.2333  0.2121 -0.0668
 7407SOL    HW123293   1.939   2.908   4.497  1.6485  0.9929  1.3331
 7407SOL    HW223294   1.919   2.870   4.643  1.1947 -1.4228  0.6883
 7408SOL     OW23295   7.680   7.104   0.909  0.0682 -0.0223 -0.8580
 7408SOL    HW123296   7.765   7.096   0.953  0.8767  1.1501 -2.1032
 7408SOL    HW223297   7.658   7.015   0.882 -0.2106 -0.6941  1.3996
 7409SOL     OW23298   7.115   0.901   1.523 -0.0806  0.2595  0.1566
 7409SOL    HW123299   7.084   0.958   1.453  0.1679  0.9304  0.5829
 7409SOL    HW223300   7.209   0.918   1.527  0.4013 -1.8046 -1.1755
 7410SOL     OW23301   2.272   4.737   7.044  0.1356 -0.3060 -0.0237
 7410SOL    HW123302   2.179   4.758   7.045  0.3476  0.7054  0.9420
 7410SOL    HW223303   2.316   4.819   7.066  1.3452 -0.4670 -1.6360
 7411SOL     OW23304   0.170   4.267   2.549 -0.1690  0.8240 -0.2265
 7411SOL    HW123305   0.211   4.212   2.616 -0.5364  1.3288  0.4254
 7411SOL    HW223306   0.228   4.344   2.544  1.2157 -0.2543 -2.2379
 7412SOL     OW23307   8.034   1.049   3.445 -0.2971 -0.4447 -0.4743
 7412SOL    HW123308   7.962   0.986   3.443 -0.6586 -0.0401 -2.3275
 7412SOL    HW223309   7.996   1.128   3.482 -0.9858 -0.0812 -1.8791
 7413SOL     OW23310   5.985   5.390   7.210 -0.4903  0.1021 -0.1289
 7413SOL    HW123311   6.048   5.322   7.235  0.2556  1.1893  1.0813
 7413SOL    HW223312   5.915   5.382   7.275 -0.9311 -0.1956 -0.6338
 7414SOL     OW23313   4.256   3.351   3.874  0.0308  0.3086  0.2835
 7414SOL    HW123314   4.169   3.349   3.913  0.9195  1.5360  2.4985
 7414SOL    HW223315   4.252   3.422   3.809 -0.1091  1.8478  1.8891
 7415SOL     OW23316   4.179   1.725   4.520 -0.6872  0.1624  0.4696
 7415SOL    HW123317   4.243   1.656   4.503 -1.5162 -0.8571  1.3525
 7415SOL    HW223318   4.168   1.770   4.436  0.4103 -0.3105  0.0697
 7416SOL     OW23319   1.276   4.521   3.858 -0.5212 -0.7409 -0.1335
 7416SOL    HW123320   1.367   4.547   3.863 -1.1758  1.6974  0.0093
 7416SOL    HW223321   1.270   4.442   3.913  1.0147  0.4469  1.8379
 7417SOL     OW23322   6.876   0.903   0.364 -0.7683 -0.0287  0.0290
 7417SOL    HW123323   6.829   0.838   0.417 -0.9759 -1.0057 -1.3083
 7417SOL    HW223324   6.929   0.851   0.304 -2.4266  0.9416 -2.4233
 7418SOL     OW23325   5.343   5.812   6.526  0.4961 -0.0937  0.2049
 7418SOL    HW123326   5.377   5.901   6.524  0.0059  0.1388  1.3693
 7418SOL    HW223327   5.410   5.759   6.483  0.4623  0.9277 -1.1759
 7419SOL     OW23328   2.108   3.232   3.792 -0.3760 -0.1880 -0.8347
 7419SOL    HW123329   2.089   3.236   3.698 -1.9242  0.6007 -0.5392
 7419SOL    HW223330   2.029   3.269   3.833  1.2369  1.8326  0.6658
 7420SOL     OW23331   2.399   4.517   2.551  0.3275 -0.1848 -0.5425
 7420SOL    HW123332   2.466   4.449   2.565 -0.9144 -1.2036  0.6794
 7420SOL    HW223333   2.339   4.507   2.624  0.3408  2.5920 -0.0331
 7421SOL     OW23334   1.922   2.463   2.325  0.2726  0.5765  0.1454
 7421SOL    HW123335   1.891   2.550   2.350  1.6509  1.6888 -1.8082
 7421SOL    HW223336   1.854   2.429   2.266  1.1780  1.6915 -1.6071
 7422SOL     OW23337   3.935   0.538   2.013  0.2893 -0.5492  0.1668
 7422SOL    HW123338   3.992   0.462   2.024 -1.2287 -1.6993  0.4447
 7422SOL    HW223339   3.868   0.528   2.080 -1.3349 -0.2993 -1.3545
 7423SOL     OW23340   7.160   3.799   3.955  0.1373 -0.2463 -0.2719
 7423SOL    HW123341   7.237   3.797   4.013 -0.5767  1.2801  0.7999
 7423SOL    HW223342   7.117   3.715   3.969  0.9052 -0.5840  0.1123
 7424SOL     OW23343   6.911   7.418   0.252  0.0943 -0.1885 -0.4837
 7424SOL    HW123344   6.900   7.482   0.183 -2.4098 -0.7276 -0.7004
 7424SOL    HW223345   6.876   7.337   0.216 -0.7047 -0.6376  1.1747
 7425SOL     OW23346   5.331   1.608   5.390 -0.1634  0.2312 -0.0302
 7425SOL    HW123347   5.237   1.622   5.378 -0.5673 -1.3073  0.9982
 7425SOL    HW223348   5.360   1.684   5.440 -1.1556  0.0721  0.8309
 7426SOL     OW23349   3.817   3.990   2.866 -0.4748 -0.6502 -0.4540
 7426SOL    HW123350   3.728   4.012   2.838  0.3213  1.7691 -1.3204
 7426SOL    HW223351   3.828   3.899   2.840 -2.5733 -0.9172 -0.6139
 7427SOL     OW23352   0.407   1.406   3.071 -0.1157  0.0363  0.2041
 7427SOL    HW123353   0.352   1.347   3.122 -0.1385 -1.3898 -1.4007
 7427SOL    HW223354   0.496   1.388   3.101 -0.2848  0.5902  1.0708
 7428SOL     OW23355   5.920   3.219   6.653 -0.2225  0.3874  0.8623
 7428SOL    HW123356   5.979   3.214   6.577 -0.3756  2.1906  0.5937
 7428SOL    HW223357   5.952   3.150   6.712 -0.8291 -1.9159 -1.2896
 7429SOL     OW23358   4.841   0.332   7.664  0.1817 -0.3510 -0.0982
 7429SOL    HW123359   4.823   0.392   7.591  0.9651 -1.2022 -1.0263
 7429SOL    HW223360   4.879   0.387   7.732  2.4712  0.0032 -1.5639
 7430SOL     OW23361   3.875   3.871   3.999  0.0087  0.1422 -0.1084
 7430SOL    HW123362   3.931   3.806   3.956 -2.4001 -1.5748 -0.8460
 7430SOL    HW223363   3.814   3.819   4.052 -2.3713  1.7067 -1.1364
 7431SOL     OW23364   3.728   6.569   1.103  0.5581 -0.2565 -0.3344
 7431SOL    HW123365   3.735   6.556   1.009  0.4345  0.1607 -0.4020
 7431SOL    HW223366   3.809   6.615   1.127  0.9173 -0.9694 -0.1212
 7432SOL     OW23367   0.012   1.391   4.987  0.3234 -0.1607  0.1882
 7432SOL    HW123368   0.004   1.481   4.955  1.0538 -0.4234 -0.8008
 7432SOL    HW223369   0.023   1.338   4.908 -1.1179 -1.2674  0.6713
 7433SOL     OW23370   6.094   5.552   6.133  1.0882  0.2778 -0.6534
 7433SOL    HW123371   6.114   5.619   6.199  1.3188  0.3503 -0.7934
 7433SOL    HW223372   6.060   5.602   6.059  0.7823  0.1922 -0.5733
 7434SOL     OW23373   1.642   6.994   1.066 -0.2756 -0.6369  0.1503
 7434SOL    HW123374   1.563   7.026   1.024  0.1790  1.2100  0.6215
 7434SOL    HW223375   1.679   6.931   1.004 -1.6297 -0.8699 -0.4539
 7435SOL     OW23376   6.386   7.644   2.645 -0.4936  0.6180 -0.0509
 7435SOL    HW123377   6.407   7.550   2.644 -0.5174  0.6094 -1.2953
 7435SOL    HW223378   6.300   7.650   2.604  0.2381  1.3278 -1.5412
 7436SOL     OW23379   0.555   6.250   0.337  0.7461  0.2740  0.1409
 7436SOL    HW123380   0.513   6.325   0.380  2.0445  1.0301  0.1512
 7436SOL    HW223381   0.614   6.290   0.272  0.6832 -0.7800 -0.5814
 7437SOL     OW23382   2.267   2.348   0.395 -0.0411 -0.1197  0.3026
 7437SOL    HW123383   2.355   2.318   0.416  0.6854  0.9725 -0.9674
 7437SOL    HW223384   2.243   2.300   0.316  0.2982  1.0779 -0.5577
 7438SOL     OW23385   3.868   6.549   5.016  0.8295 -0.5398 -0.1243
 7438SOL    HW123386   3.958   6.576   4.995  1.1360 -1.4080  0.0524
 7438SOL    HW223387   3.878   6.470   5.068 -0.0235 -0.1799  0.6131
 7439SOL     OW23388   1.870   5.081   3.673  0.1625  0.0516 -0.2752
 7439SOL    HW123389   1.855   5.020   3.601  1.1470  0.3032 -0.7118
 7439SOL    HW223390   1.965   5.081   3.685  0.0308  0.2444  0.8240
 7440SOL     OW23391   2.856   2.622   5.482  0.3583 -0.4844  0.1239
 7440SOL    HW123392   2.942   2.582   5.495  0.2352 -0.4582  1.1078
 7440SOL    HW223393   2.822   2.636   5.571 -0.5873 -0.3296 -0.2447
 7441SOL     OW23394   6.277   2.637   1.818 -0.2504  0.1457  0.2487
 7441SOL    HW123395   6.364   2.666   1.791  0.0540  0.8275  1.8408
 7441SOL    HW223396   6.251   2.574   1.751  0.3021  1.9353 -1.7626
 7442SOL     OW23397   2.340   2.219   4.358  0.5105  0.2982  0.2948
 7442SOL    HW123398   2.353   2.307   4.323 -0.6583  0.5547  0.4712
 7442SOL    HW223399   2.395   2.163   4.303 -0.5781  0.8072 -1.3919
 7443SOL     OW23400   2.196   3.248   2.027  0.4411  0.3422  0.0752
 7443SOL    HW123401   2.272   3.199   2.057  1.5048  2.0739  0.3272
 7443SOL    HW223402   2.161   3.289   2.107 -0.0912  0.4676 -0.2146
 7444SOL     OW23403   0.305   1.068   2.853  0.5980 -0.6740  0.6941
 7444SOL    HW123404   0.390   1.085   2.811  0.3409 -1.0398  0.0072
 7444SOL    HW223405   0.242   1.068   2.781  0.1026 -1.0161  1.1202
 7445SOL     OW23406   5.425   6.004   1.082 -0.4303 -0.1778  0.1572
 7445SOL    HW123407   5.485   6.010   1.156 -3.5197  3.3742  2.7696
 7445SOL    HW223408   5.474   6.039   1.008  1.8447 -1.0564  1.1751
 7446SOL     OW23409   3.893   6.182   3.920  0.3859  1.1633  0.2365
 7446SOL    HW123410   3.975   6.173   3.968  0.5425 -0.5348 -0.3035
 7446SOL    HW223411   3.833   6.222   3.983  0.9126  0.0658  1.4918
 7447SOL     OW23412   2.163   4.189   2.777 -0.2251  0.5215  0.0614
 7447SOL    HW123413   2.250   4.200   2.815 -0.3268  1.0359  0.1522
 7447SOL    HW223414   2.111   4.149   2.847 -0.0611  0.1934  0.0001
 7448SOL     OW23415   6.606   2.172   5.147 -0.5114 -0.4031  0.1139
 7448SOL    HW123416   6.545   2.239   5.178  1.5715  1.2647  0.7821
 7448SOL    HW223417   6.587   2.095   5.202 -2.6766 -0.3168 -0.4103
 7449SOL     OW23418   2.915   1.580   2.208 -0.0585 -0.5990 -0.3689
 7449SOL    HW123419   2.924   1.515   2.278 -0.3311  0.7341  0.9638
 7449SOL    HW223420   2.992   1.567   2.153 -0.6028 -2.6725 -0.7194
 7450SOL     OW23421   3.243   1.375   4.045  0.3432  0.1213 -0.1470
 7450SOL    HW123422   3.180   1.313   4.081  0.9498 -0.9575 -0.8858
 7450SOL    HW223423   3.236   1.364   3.950  1.3333  0.2992 -0.2462
 7451SOL     OW23424   7.388   4.557   4.443 -0.0796  0.4015 -0.5320
 7451SOL    HW123425   7.318   4.581   4.383 -0.8545 -0.8811 -0.1634
 7451SOL    HW223426   7.415   4.640   4.483 -0.8065  1.0145 -1.2881
 7452SOL     OW23427   7.729   5.703   1.832 -0.6711  0.0411 -0.5801
 7452SOL    HW123428   7.674   5.765   1.879 -0.6543 -0.1307 -0.3375
 7452SOL    HW223429   7.778   5.657   1.900  0.6555  1.0069 -0.8303
 7453SOL     OW23430   1.720   0.057   7.085  0.7631  0.1216  0.4254
 7453SOL    HW123431   1.774   0.041   7.007  1.8608 -0.1808  1.2252
 7453SOL    HW223432   1.637   0.015   7.065  1.7339 -1.8548  0.2371
 7454SOL     OW23433   4.256   1.485   1.244  0.2805  0.0074 -0.4932
 7454SOL    HW123434   4.230   1.401   1.205 -0.2470  0.1774 -0.5245
 7454SOL    HW223435   4.312   1.526   1.178  1.8516 -0.9935  0.1677
 7455SOL     OW23436   7.993   4.147   3.812  0.3927  0.1848 -0.3363
 7455SOL    HW123437   7.923   4.103   3.860  0.4982 -0.4439 -0.7489
 7455SOL    HW223438   7.972   4.132   3.720  1.8598 -1.3396 -0.4712
 7456SOL     OW23439   1.260   6.809   4.085 -0.2940  0.1522 -0.2711
 7456SOL    HW123440   1.215   6.867   4.023  0.9864  1.1085 -0.3612
 7456SOL    HW223441   1.352   6.833   4.076  0.2660 -1.8457 -0.2082
 7457SOL     OW23442   3.094   5.076   5.653 -0.2399  0.0160  0.0453
 7457SOL    HW123443   3.114   4.996   5.702  1.0690  1.0388  1.2648
 7457SOL    HW223444   3.145   5.068   5.572  0.6455  0.0158  0.5854
 7458SOL     OW23445   0.037   1.261   7.193  0.0485 -0.1867 -0.3708
 7458SOL    HW123446  -0.009   1.327   7.140 -1.1024 -0.7614 -0.1256
 7458SOL    HW223447  -0.028   1.233   7.258  0.6804 -1.1859 -0.1444
 7459SOL     OW23448   7.021   3.508   2.979 -0.4245 -0.1410  0.3474
 7459SOL    HW123449   6.985   3.568   3.045  1.9330 -0.4553  2.0472
 7459SOL    HW223450   7.116   3.519   2.985 -0.0700 -0.5186 -2.7771
 7460SOL     OW23451   2.926   6.133   1.469 -0.9043  0.0089 -0.1328
 7460SOL    HW123452   2.962   6.096   1.389 -1.3764  1.9612 -1.3375
 7460SOL    HW223453   2.967   6.084   1.540  1.9141  0.2402 -1.4831
 7461SOL     OW23454   3.470   0.258   4.517 -0.2472  0.0273  0.1066
 7461SOL    HW123455   3.387   0.214   4.500  0.4873 -1.4477  0.1149
 7461SOL    HW223456   3.486   0.310   4.439 -0.5944 -0.6575 -0.4392
 7462SOL     OW23457   1.449   1.251   1.141  0.2920  0.2757 -0.3843
 7462SOL    HW123458   1.380   1.223   1.081 -0.3271  1.1109 -0.0869
 7462SOL    HW223459   1.444   1.188   1.213  0.3003 -0.0755 -0.6887
 7463SOL     OW23460   7.133   4.295   7.655  0.2161 -0.9923 -0.3004
 7463SOL    HW123461   7.085   4.329   7.579  0.1615 -0.8103 -0.1844
 7463SOL    HW223462   7.066   4.255   7.710  0.2697 -1.2137 -0.3940
 7464SOL     OW23463   6.402   4.203   7.044 -0.7735 -0.2170  0.2582
 7464SOL    HW123464   6.346   4.281   7.042  1.3420  1.3743 -0.7776
 7464SOL    HW223465   6.442   4.200   6.957  0.1980 -1.7088  0.7261
 7465SOL     OW23466   7.905   2.075   3.618 -0.6353  0.0792 -0.2495
 7465SOL    HW123467   7.995   2.107   3.623  0.2856 -1.9660 -2.1161
 7465SOL    HW223468   7.881   2.057   3.708  0.6056  1.1652  0.3330
 7466SOL     OW23469   2.462   0.179   1.158 -0.5296 -0.6565  0.3023
 7466SOL    HW123470   2.424   0.238   1.224  0.7580 -1.3382  1.7359
 7466SOL    HW223471   2.428   0.092   1.181  2.0464 -1.3783  1.9380
 7467SOL     OW23472   1.337   1.953   5.180 -0.5871  0.1961 -0.0731
 7467SOL    HW123473   1.382   1.871   5.196 -1.9943 -0.6018 -0.0963
 7467SOL    HW223474   1.315   1.986   5.267 -1.2823 -0.1896 -0.0922
 7468SOL     OW23475   5.156   1.204   1.517  0.1721 -0.3412 -0.5367
 7468SOL    HW123476   5.149   1.289   1.559 -0.3370 -0.1929 -0.9156
 7468SOL    HW223477   5.067   1.170   1.516  0.3227 -0.7414 -0.6706
 7469SOL     OW23478   2.140   0.392   7.737  0.0926 -0.2452 -0.0232
 7469SOL    HW123479   2.110   0.317   7.684  0.2429 -0.8604  0.7460
 7469SOL    HW223480   2.228   0.411   7.704  0.7077 -1.4506  0.8199
 7470SOL     OW23481   4.388   2.100   7.587  0.0100  0.1236  0.1722
 7470SOL    HW123482   4.440   2.059   7.657  2.6490 -1.0881 -2.2868
 7470SOL    HW223483   4.401   2.043   7.512 -0.9132  2.4990 -1.9096
 7471SOL     OW23484   7.377   5.141   6.593 -0.4734 -0.2248  0.2950
 7471SOL    HW123485   7.441   5.071   6.584 -0.8070 -0.4567 -0.3266
 7471SOL    HW223486   7.422   5.207   6.646  0.8139  0.2319 -1.2740
 7472SOL     OW23487   1.917   5.680   1.166 -0.0271 -0.3581 -0.2130
 7472SOL    HW123488   1.898   5.588   1.183  1.4032 -0.9681 -1.6885
 7472SOL    HW223489   1.894   5.693   1.074  0.1483  0.6607 -0.1221
 7473SOL     OW23490   0.611   6.766   5.203 -0.2988 -0.1583  0.2791
 7473SOL    HW123491   0.544   6.793   5.140 -0.2030  1.9499  0.9948
 7473SOL    HW223492   0.645   6.684   5.169 -1.6245 -0.0771 -1.3420
 7474SOL     OW23493   8.074   0.835   5.438  0.0913 -0.3182 -0.0437
 7474SOL    HW123494   8.065   0.750   5.481 -0.7132  0.0485  0.5377
 7474SOL    HW223495   7.987   0.874   5.444  0.9805  1.5851  1.8956
 7475SOL     OW23496   5.014   1.523   1.436 -0.4998 -0.3238 -0.0771
 7475SOL    HW123497   4.963   1.601   1.416 -1.0998 -0.6255  0.2245
 7475SOL    HW223498   5.067   1.547   1.512 -2.6719 -0.9833  1.7679
 7476SOL     OW23499   7.801   6.566   7.886 -0.5418 -0.1075 -0.0633
 7476SOL    HW123500   7.706   6.582   7.881 -0.6829 -1.0830 -0.8761
 7476SOL    HW223501   7.837   6.647   7.921 -1.7380  0.0905  0.7924
 7477SOL     OW23502   4.567   5.006   0.595  0.0210 -0.3710  0.7469
 7477SOL    HW123503   4.577   5.089   0.641 -1.9338  1.7158 -2.2101
 7477SOL    HW223504   4.656   4.982   0.570  0.5561  1.3966  0.8279
 7478SOL     OW23505   3.749   2.766   7.647 -0.1930 -0.1190  0.7051
 7478SOL    HW123506   3.756   2.671   7.658 -0.8219 -0.5146 -1.8401
 7478SOL    HW223507   3.657   2.786   7.666 -0.8738 -0.5660 -1.7478
 7479SOL     OW23508   5.065   0.678   1.580  0.3768  0.4489 -0.1978
 7479SOL    HW123509   5.005   0.733   1.530  0.5496  0.1231 -0.7732
 7479SOL    HW223510   5.017   0.597   1.595  0.9071 -0.0637 -1.2311
 7480SOL     OW23511   6.576   6.159   2.957  0.3220 -0.1800 -0.3706
 7480SOL    HW123512   6.589   6.253   2.942  2.3701 -0.2424  0.7241
 7480SOL    HW223513   6.625   6.117   2.886 -1.1970 -0.4658 -1.2955
 7481SOL     OW23514   5.524   4.091   1.472 -0.6917 -0.1410 -0.4097
 7481SOL    HW123515   5.432   4.109   1.491 -0.5842  0.6292 -0.6131
 7481SOL    HW223516   5.572   4.132   1.544 -0.4657  0.0293 -0.6562
 7482SOL     OW23517   1.716   4.878   8.022 -0.0472  0.4615  0.4710
 7482SOL    HW123518   1.729   4.842   8.110 -0.4558 -1.2361 -0.1354
 7482SOL    HW223519   1.631   4.844   7.994 -0.5457  2.0724 -0.0851
 7483SOL     OW23520   0.135   3.017   3.135  0.1231  0.3596 -0.3840
 7483SOL    HW123521   0.116   3.110   3.127 -0.6928  0.3138  0.8636
 7483SOL    HW223522   0.072   2.984   3.199  1.5143 -0.6980  0.5149
 7484SOL     OW23523   5.133   2.581   1.109 -0.0257  0.0912 -0.5017
 7484SOL    HW123524   5.129   2.536   1.024  1.3734 -0.5091 -0.2691
 7484SOL    HW223525   5.127   2.674   1.087 -2.9370 -0.1137 -1.0011
 7485SOL     OW23526   7.704   0.423   1.801 -0.8999  0.4363  0.0722
 7485SOL    HW123527   7.643   0.349   1.801 -3.4008  2.2874 -2.5033
 7485SOL    HW223528   7.731   0.432   1.709 -0.2359  2.3859  0.3995
 7486SOL     OW23529   5.246   6.063   1.308  0.1887 -0.1234  0.4523
 7486SOL    HW123530   5.153   6.071   1.289  0.7087  0.8708 -2.0746
 7486SOL    HW223531   5.289   6.067   1.222  2.6303  0.4308  1.6026
 7487SOL     OW23532   3.887   0.091   3.598 -0.3672 -0.5458 -0.8563
 7487SOL    HW123533   3.886   0.164   3.661 -1.7968 -2.6900  1.8249
 7487SOL    HW223534   3.980   0.069   3.589  0.0051  0.9371 -0.9288
 7488SOL     OW23535   1.996   7.018   5.253  0.3064  0.4160 -0.0073
 7488SOL    HW123536   2.042   6.954   5.308 -1.9141  0.7458  2.3927
 7488SOL    HW223537   2.061   7.045   5.188  2.4637 -1.4544  1.2497
 7489SOL     OW23538   1.945   1.065   4.938  0.0792 -0.2778 -0.0848
 7489SOL    HW123539   1.877   1.056   5.005  0.9501  1.1393  1.0469
 7489SOL    HW223540   1.920   1.145   4.890  0.2169 -0.5115 -0.5489
 7490SOL     OW23541   6.604   4.420   8.096  0.3901 -0.0695  0.5602
 7490SOL    HW123542   6.583   4.331   8.070  1.0586 -0.2155  0.5009
 7490SOL    HW223543   6.638   4.412   8.186 -0.4381  0.2430  0.9110
 7491SOL     OW23544   2.447   2.057   2.745 -0.3340 -0.2049  0.4038
 7491SOL    HW123545   2.416   2.012   2.824 -0.2733 -1.1148 -0.0694
 7491SOL    HW223546   2.425   2.149   2.759 -2.1650 -0.6359  0.6002
 7492SOL     OW23547   0.112   0.611   6.344 -0.3345  0.2077  0.6383
 7492SOL    HW123548   0.111   0.679   6.412 -0.0232  1.7829 -0.8627
 7492SOL    HW223549   0.194   0.563   6.360 -0.4328  0.3189  1.5658
 7493SOL     OW23550   2.049   2.926   1.087 -0.1873 -0.0118 -0.6455
 7493SOL    HW123551   2.049   2.865   1.014  2.0318  1.6481 -2.1609
 7493SOL    HW223552   1.976   2.985   1.069  0.2179  0.2614 -1.4618
 7494SOL     OW23553   1.000   5.384   4.937 -0.1013  0.1901  0.1934
 7494SOL    HW123554   1.073   5.433   4.900 -0.0803  0.8616  1.0835
 7494SOL    HW223555   1.039   5.305   4.973  0.2077  0.5469  0.6689
 7495SOL     OW23556   5.640   8.151   1.605 -0.0203  0.8513 -0.2392
 7495SOL    HW123557   5.581   8.202   1.550  0.5771  0.2115 -1.5201
 7495SOL    HW223558   5.704   8.114   1.544 -0.6402 -1.7540  0.5453
 7496SOL     OW23559   2.346   6.060   2.168 -0.4208  0.5010 -0.2210
 7496SOL    HW123560   2.336   5.975   2.124 -0.0134 -0.2504  1.0956
 7496SOL    HW223561   2.335   6.124   2.097 -2.2258 -0.5753 -0.9860
 7497SOL     OW23562   0.650   7.586   4.245  0.2317 -0.0584  0.1540
 7497SOL    HW123563   0.569   7.622   4.208  0.9717  1.6766  0.1206
 7497SOL    HW223564   0.628   7.571   4.337 -0.2954 -0.1321  0.0228
 7498SOL     OW23565   0.067   4.783   5.276  0.0646 -0.4739  0.2348
 7498SOL    HW123566   0.097   4.798   5.365 -0.9858  0.5701  0.4332
 7498SOL    HW223567   0.009   4.708   5.283  0.7722 -1.0378  0.2360
 7499SOL     OW23568   5.898   4.027   7.089 -0.2334  0.2517  0.3594
 7499SOL    HW123569   5.925   3.973   7.015 -1.6488 -0.0964  0.0710
 7499SOL    HW223570   5.976   4.031   7.146  0.5805 -0.2159 -0.6960
 7500SOL     OW23571   6.733   0.823   3.834  0.1258 -0.2764  0.1320
 7500SOL    HW123572   6.648   0.829   3.792  0.9098 -0.1854 -1.5416
 7500SOL    HW223573   6.774   0.746   3.794  0.0493 -1.6333  2.4869
 7501SOL     OW23574   4.716   1.395   0.569  0.0755 -0.1922  0.0952
 7501SOL    HW123575   4.663   1.355   0.500 -0.9468  0.4118  0.5105
 7501SOL    HW223576   4.806   1.390   0.536 -0.3328 -0.4064 -1.0320
 7502SOL     OW23577   6.553   2.488   6.419  0.0585 -0.6170 -0.0920
 7502SOL    HW123578   6.523   2.403   6.386 -2.4078 -0.1568  0.7439
 7502SOL    HW223579   6.526   2.489   6.511  0.3102  0.9499 -0.0055
 7503SOL     OW23580   0.287   7.209   5.482 -0.1441  0.2242 -0.1731
 7503SOL    HW123581   0.338   7.128   5.492 -0.7322 -0.1016  0.2240
 7503SOL    HW223582   0.331   7.256   5.411  0.6503 -0.1003  0.0914
 7504SOL     OW23583   5.840   6.147   1.873  0.5189  0.3969 -0.5817
 7504SOL    HW123584   5.828   6.164   1.780 -0.5663  1.5852 -0.2436
 7504SOL    HW223585   5.774   6.081   1.895 -0.0394  1.0062 -0.4100
 7505SOL     OW23586   7.814   5.721   1.159  0.3994  0.2526  0.3216
 7505SOL    HW123587   7.898   5.764   1.144 -0.0529  1.3468  0.8471
 7505SOL    HW223588   7.779   5.706   1.072  0.5364  1.0311  0.1247
 7506SOL     OW23589   6.165   2.979   4.880 -0.0466 -0.4265  0.3878
 7506SOL    HW123590   6.115   2.916   4.933 -1.9429  0.9319  0.3210
 7506SOL    HW223591   6.234   3.010   4.939 -1.7085  0.5591  1.9556
 7507SOL     OW23592   0.172   6.331   6.562  0.2514 -0.4575 -0.2558
 7507SOL    HW123593   0.100   6.272   6.584  0.4284 -1.3802 -2.0103
 7507SOL    HW223594   0.144   6.376   6.483  0.9558  0.3632 -0.0548
 7508SOL     OW23595   5.313   4.492   5.968  0.3334  0.7970  0.6600
 7508SOL    HW123596   5.279   4.553   6.033 -0.2370  1.6511 -0.4199
 7508SOL    HW223597   5.323   4.544   5.889 -1.6172 -0.8088 -0.7385
 7509SOL     OW23598   6.702   5.319   1.279  0.1723  0.2470 -0.2505
 7509SOL    HW123599   6.721   5.334   1.186 -0.7744  1.0476 -0.3184
 7509SOL    HW223600   6.750   5.388   1.325  0.9548 -0.3754 -0.0887
 7510SOL     OW23601   7.007   0.139   7.485  0.4440 -0.1619 -0.5169
 7510SOL    HW123602   6.984   0.226   7.520  0.6744  0.4085 -1.7340
 7510SOL    HW223603   7.010   0.083   7.562 -0.9742  0.6218  0.1656
 7511SOL     OW23604   3.417   6.545   1.647 -0.2916  0.2544  0.2382
 7511SOL    HW123605   3.407   6.450   1.641  0.3469  0.2619 -1.3657
 7511SOL    HW223606   3.392   6.577   1.560  2.5739  1.2392 -0.3160
 7512SOL     OW23607   6.940   7.244   6.146  0.1701  0.4343  0.1272
 7512SOL    HW123608   6.870   7.266   6.208 -0.1218  0.1321 -0.0953
 7512SOL    HW223609   6.899   7.250   6.060 -0.0656 -1.4689  0.0610
 7513SOL     OW23610   4.259   5.140   6.949  0.1032  0.1792 -0.2346
 7513SOL    HW123611   4.202   5.078   6.994 -0.8299  0.8138 -0.5200
 7513SOL    HW223612   4.340   5.091   6.932  0.2207 -0.2953  1.4975
 7514SOL     OW23613   0.431   0.838   2.651 -0.2312  0.2851  0.0377
 7514SOL    HW123614   0.343   0.877   2.648 -0.3557 -0.0325 -1.4017
 7514SOL    HW223615   0.465   0.863   2.737 -1.0551  1.8920 -0.0504
 7515SOL     OW23616   1.795   2.128   4.332  0.1620  0.3907 -0.1441
 7515SOL    HW123617   1.780   2.167   4.246  0.6858 -0.1846 -0.4996
 7515SOL    HW223618   1.888   2.108   4.334 -0.3960 -2.6779 -0.7737
 7516SOL     OW23619   6.266   2.006   4.327 -0.0392  0.1927 -0.4761
 7516SOL    HW123620   6.232   2.046   4.247 -0.5501 -0.2274 -0.4758
 7516SOL    HW223621   6.343   2.058   4.348  1.1965 -0.7897 -2.2632
 7517SOL     OW23622   4.018   2.243   3.596  0.4786 -0.0660  0.2622
 7517SOL    HW123623   3.984   2.235   3.685  1.9964 -0.8056  0.7956
 7517SOL    HW223624   3.945   2.215   3.540  0.2444 -1.7818  1.3714
 7518SOL     OW23625   7.249   2.041   5.132 -0.2813 -0.0604  0.1188
 7518SOL    HW123626   7.191   1.975   5.095  1.2005 -0.3783 -1.8546
 7518SOL    HW223627   7.332   2.027   5.086  0.1782  2.9516 -0.1801
 7519SOL     OW23628   7.980   6.901   3.675 -0.0665  0.2460  0.7086
 7519SOL    HW123629   7.944   6.989   3.691 -2.6565 -0.4163 -0.8474
 7519SOL    HW223630   8.074   6.915   3.669 -0.4105  2.9903  0.1541
 7520SOL     OW23631   4.933   5.931   6.141  0.2001 -0.5860  0.1262
 7520SOL    HW123632   4.976   6.015   6.130 -1.2931  0.2336  0.3165
 7520SOL    HW223633   4.897   5.911   6.054 -1.2363  0.0250  0.5451
 7521SOL     OW23634   5.092   5.689   1.159 -0.0302  0.5161 -1.0917
 7521SOL    HW123635   5.131   5.735   1.085 -2.2177  2.1627 -1.3133
 7521SOL    HW223636   5.116   5.741   1.236  0.8934 -0.2953 -0.8117
 7522SOL     OW23637   5.656   1.565   4.960  0.2994 -0.1178 -0.1584
 7522SOL    HW123638   5.657   1.536   5.051  2.3556 -0.6842 -0.3202
 7522SOL    HW223639   5.739   1.535   4.924 -0.4073  0.2153 -2.2022
 7523SOL     OW23640   5.224   6.394   6.807  0.5984 -0.3780 -0.3100
 7523SOL    HW123641   5.190   6.451   6.876 -1.9998 -0.5752 -1.3035
 7523SOL    HW223642   5.318   6.389   6.823  0.6098  2.4722  1.0615
 7524SOL     OW23643   3.695   5.033   7.846  0.4953 -0.5306 -0.2136
 7524SOL    HW123644   3.641   5.111   7.835  0.5845 -0.1869  1.4062
 7524SOL    HW223645   3.656   4.967   7.790  0.3095  0.6256 -1.4864
 7525SOL     OW23646   0.434   4.565   6.276  0.0983  0.2954 -0.0174
 7525SOL    HW123647   0.477   4.579   6.192  1.5437 -1.6907  0.3327
 7525SOL    HW223648   0.364   4.503   6.258  3.0243 -3.6077  0.7604
 7526SOL     OW23649   0.299   1.014   7.696 -0.7321  0.4109 -0.1148
 7526SOL    HW123650   0.207   1.040   7.702 -1.2476 -1.0837 -1.0008
 7526SOL    HW223651   0.346   1.082   7.743 -2.4831  0.1618  2.1669
 7527SOL     OW23652   3.074   6.722   1.429  0.2754  0.2386  0.3675
 7527SOL    HW123653   3.072   6.655   1.497  2.0769  0.0358  0.2603
 7527SOL    HW223654   2.993   6.709   1.380 -0.4436 -0.4267  1.6886
 7528SOL     OW23655   5.789   2.713   5.478 -0.0881  0.0622 -0.3513
 7528SOL    HW123656   5.756   2.761   5.402  0.2306 -0.6948 -0.9769
 7528SOL    HW223657   5.880   2.694   5.457 -0.1717 -0.6912 -0.0465
 7529SOL     OW23658   0.364   7.804   0.398 -0.2528 -0.0337 -0.7802
 7529SOL    HW123659   0.363   7.809   0.302  0.5609  0.5086 -0.7723
 7529SOL    HW223660   0.435   7.744   0.418 -0.6394 -0.4048 -0.5203
 7530SOL     OW23661   0.535   5.432   7.191  0.2429 -0.2053  0.1562
 7530SOL    HW123662   0.507   5.508   7.242 -0.1161 -2.3692  3.4316
 7530SOL    HW223663   0.454   5.395   7.157  0.0044 -1.0487  1.5607
 7531SOL     OW23664   0.731   3.559   4.573  0.0564 -0.3237  0.0040
 7531SOL    HW123665   0.808   3.616   4.580  1.2488 -2.0910  3.4247
 7531SOL    HW223666   0.762   3.473   4.603 -2.5559 -1.8933 -1.4274
 7532SOL     OW23667   1.159   7.974   0.943 -0.1367  0.1302 -0.1006
 7532SOL    HW123668   1.101   7.938   0.875  0.1691  1.0126 -0.8455
 7532SOL    HW223669   1.244   7.981   0.900  0.1765  0.2533  0.5313
 7533SOL     OW23670   2.243   6.896   0.542 -0.3499 -0.0167  0.1204
 7533SOL    HW123671   2.227   6.839   0.617  2.7904 -0.9917  0.2084
 7533SOL    HW223672   2.217   6.843   0.466 -0.2276 -0.4306  0.3633
 7534SOL     OW23673   6.733   7.438   4.783  0.2120 -0.1385  0.1109
 7534SOL    HW123674   6.715   7.414   4.692 -1.4408  1.5486 -0.0608
 7534SOL    HW223675   6.769   7.527   4.777 -2.6680  1.2039  1.2089
 7535SOL     OW23676   1.862   4.321   1.702  0.4754 -0.1295 -0.0893
 7535SOL    HW123677   1.771   4.292   1.696  0.5360 -0.4667  0.5669
 7535SOL    HW223678   1.908   4.270   1.636  0.0327  0.7107 -1.0803
 7536SOL     OW23679   0.820   4.003   4.675 -0.1011  0.7211 -0.0322
 7536SOL    HW123680   0.767   3.998   4.595 -1.0233  0.1158  0.5900
 7536SOL    HW223681   0.756   4.001   4.746  0.7868 -0.9662  0.7864
 7537SOL     OW23682   5.682   6.235   0.605  0.0538  0.3485 -0.1155
 7537SOL    HW123683   5.709   6.309   0.660 -0.1918 -0.6706  1.4540
 7537SOL    HW223684   5.592   6.218   0.632  0.3709 -1.0237  0.1748
 7538SOL     OW23685   8.079   8.000   3.103 -0.2667 -0.3072 -0.1147
 7538SOL    HW123686   8.129   8.078   3.079  1.6194 -1.8972 -1.8109
 7538SOL    HW223687   7.993   8.013   3.064 -0.5109  1.5000  0.8859
 7539SOL     OW23688   2.637   7.452   4.667  0.1227 -0.0806  0.0460
 7539SOL    HW123689   2.552   7.469   4.708  0.4096 -0.7368  0.9337
 7539SOL    HW223690   2.700   7.496   4.723  0.4205 -0.0809 -0.2879
 7540SOL     OW23691   6.039   4.569   7.126 -0.7432  0.3896 -0.0411
 7540SOL    HW123692   5.989   4.492   7.099  0.4500 -0.2392 -0.5122
 7540SOL    HW223693   6.014   4.637   7.063 -1.2038  0.1719 -0.1025
 7541SOL     OW23694   2.994   5.214   5.237 -0.0142  0.5448 -0.1496
 7541SOL    HW123695   2.953   5.148   5.293 -0.2837  0.9048  0.0749
 7541SOL    HW223696   3.087   5.211   5.261 -0.3939  2.0815  1.7627
 7542SOL     OW23697   4.152   0.818   3.637 -0.3658 -0.5987  0.0169
 7542SOL    HW123698   4.129   0.737   3.682  1.9533 -0.9815  0.6346
 7542SOL    HW223699   4.205   0.790   3.562  2.5476  0.3531  1.5737
 7543SOL     OW23700   6.526   0.746   4.489  0.3746 -0.1865  0.8321
 7543SOL    HW123701   6.442   0.783   4.515  0.1671 -0.4198  0.4974
 7543SOL    HW223702   6.531   0.662   4.534  0.6820  0.0839  1.3020
 7544SOL     OW23703   3.323   6.130   6.014  0.0341 -0.5444  0.0625
 7544SOL    HW123704   3.320   6.039   5.986  0.2185 -0.2243 -1.0486
 7544SOL    HW223705   3.233   6.151   6.038 -0.0613 -0.9332  0.0453
 7545SOL     OW23706   6.939   7.328   3.460  0.0710 -0.4729 -0.1998
 7545SOL    HW123707   6.964   7.277   3.384  1.5881  0.1326 -0.1392
 7545SOL    HW223708   7.002   7.305   3.528 -1.2825 -1.0411  0.9251
 7546SOL     OW23709   0.364   3.699   7.309 -0.4069  0.0218 -0.0593
 7546SOL    HW123710   0.372   3.661   7.397 -1.1024  0.1328  0.0563
 7546SOL    HW223711   0.300   3.644   7.265 -1.0931  0.7763 -0.0386
 7547SOL     OW23712   5.790   0.042   1.388 -0.2494  0.6356 -0.0509
 7547SOL    HW123713   5.876   0.035   1.429 -1.0310  0.4268  1.6194
 7547SOL    HW223714   5.779   0.136   1.372 -0.2216  0.8116  0.9034
 7548SOL     OW23715   5.791   1.129   3.732 -0.0355 -0.0579  0.0376
 7548SOL    HW123716   5.733   1.202   3.710  1.6386  1.4965  0.4773
 7548SOL    HW223717   5.849   1.121   3.657  2.5381  2.0095  1.6373
 7549SOL     OW23718   4.408   2.641   4.807 -0.4943  0.2391  0.2999
 7549SOL    HW123719   4.481   2.681   4.759  0.1034 -1.6686 -0.4799
 7549SOL    HW223720   4.451   2.584   4.871 -1.3126 -0.0807  0.5702
 7550SOL     OW23721   2.189   3.716   3.627 -0.2435  0.1750 -0.0098
 7550SOL    HW123722   2.118   3.652   3.637  0.2975 -0.5195 -0.5042
 7550SOL    HW223723   2.257   3.669   3.579  0.2753  1.0491 -0.1535
 7551SOL     OW23724   6.979   4.855   2.197  0.0313 -0.2691 -0.3211
 7551SOL    HW123725   7.057   4.805   2.221  1.3341  1.8488  0.1058
 7551SOL    HW223726   6.917   4.837   2.267  0.2153 -1.7236 -0.4916
 7552SOL     OW23727   5.618   3.986   2.788 -0.2970  0.0743 -0.5920
 7552SOL    HW123728   5.688   4.004   2.850 -0.1336 -1.3129 -0.3506
 7552SOL    HW223729   5.563   4.065   2.791 -0.8085 -0.2830  2.0018
 7553SOL     OW23730   7.430   7.488   3.953 -0.5513 -0.1525 -0.5338
 7553SOL    HW123731   7.443   7.567   3.901  0.1900 -0.4787 -0.8420
 7553SOL    HW223732   7.518   7.459   3.977 -0.8549  0.8479  2.2256
 7554SOL     OW23733   0.577   0.079   0.786  0.2672  0.6114  0.6601
 7554SOL    HW123734   0.570   0.018   0.713  0.5942  0.2376  0.9400
 7554SOL    HW223735   0.601   0.162   0.745  0.5113  0.3892  0.3425
 7555SOL     OW23736   0.425   0.833   4.442 -0.1023 -0.2502  0.1305
 7555SOL    HW123737   0.509   0.845   4.486 -0.0711 -0.9706  0.2766
 7555SOL    HW223738   0.413   0.913   4.391  0.9424 -0.3874 -0.3429
 7556SOL     OW23739   7.934   4.710   1.229  0.6021  0.0941  0.2993
 7556SOL    HW123740   7.943   4.761   1.149  0.1452 -1.5653 -0.8677
 7556SOL    HW223741   7.874   4.639   1.206  0.2156 -0.2561  2.2087
 7557SOL     OW23742   6.279   5.750   4.575 -0.2632  0.1991  0.1013
 7557SOL    HW123743   6.349   5.813   4.556  2.4379 -2.0847  1.6460
 7557SOL    HW223744   6.260   5.763   4.668 -0.4290 -0.5189  0.1755
 7558SOL     OW23745   4.952   3.676   4.231 -0.3481 -0.1784 -0.1892
 7558SOL    HW123746   4.924   3.607   4.171 -0.1718 -0.7405  0.3576
 7558SOL    HW223747   5.043   3.694   4.206 -0.5929  0.3306 -0.7548
 7559SOL     OW23748   4.468   5.443   7.371  0.1323  0.5044 -0.3495
 7559SOL    HW123749   4.422   5.441   7.287 -0.2215 -0.8412 -0.1445
 7559SOL    HW223750   4.555   5.408   7.352 -0.2264 -0.5996 -0.0102
 7560SOL     OW23751   7.055   0.517   0.141  0.1455 -0.3437 -0.3381
 7560SOL    HW123752   6.967   0.482   0.123 -1.2606  2.4253  0.5929
 7560SOL    HW223753   7.062   0.516   0.237 -0.3152  2.4563 -0.1894
 7561SOL     OW23754   5.646   7.856   3.341 -0.6945 -0.3108  0.2983
 7561SOL    HW123755   5.684   7.902   3.416 -1.3415  1.1430 -0.2181
 7561SOL    HW223756   5.685   7.769   3.344  0.4671  0.2084  1.4230
 7562SOL     OW23757   6.260   4.586   5.353  0.1667 -0.1347  0.6213
 7562SOL    HW123758   6.258   4.625   5.266  1.4705 -1.5639 -0.1062
 7562SOL    HW223759   6.339   4.621   5.393  0.9965 -1.4643  0.2036
 7563SOL     OW23760   1.279   0.344   5.589 -0.5718 -0.0365  0.4062
 7563SOL    HW123761   1.259   0.262   5.634  1.7898 -1.3452 -0.7628
 7563SOL    HW223762   1.302   0.405   5.659  0.3134 -1.2168  1.1820
 7564SOL     OW23763   3.338   0.198   6.478  0.5576  0.2541 -0.0281
 7564SOL    HW123764   3.343   0.251   6.558  1.5085 -0.4454  0.3950
 7564SOL    HW223765   3.248   0.209   6.448  0.3404  0.9764  0.8261
 7565SOL     OW23766   2.601   1.669   1.616  0.3324 -0.4701  0.6371
 7565SOL    HW123767   2.688   1.708   1.630  0.4546 -0.6034  0.2422
 7565SOL    HW223768   2.596   1.653   1.522  0.1759 -1.1510  0.7515
 7566SOL     OW23769   2.690   6.795   7.315 -0.3931  0.6281 -0.6891
 7566SOL    HW123770   2.676   6.890   7.318 -2.1700  0.3970 -0.9438
 7566SOL    HW223771   2.713   6.771   7.404 -1.0824  1.1478 -0.3631
 7567SOL     OW23772   0.104   1.594   0.390  0.5701 -0.2939 -0.4946
 7567SOL    HW123773   0.087   1.517   0.444 -1.0552 -1.0930 -2.0144
 7567SOL    HW223774   0.179   1.637   0.431  0.6641 -1.9363  1.1784
 7568SOL     OW23775   5.843   0.710   2.059  0.4908 -0.6561  0.7283
 7568SOL    HW123776   5.913   0.767   2.090  0.3201  1.3403 -2.1308
 7568SOL    HW223777   5.763   0.759   2.074  0.4248  0.6939 -2.8757
 7569SOL     OW23778   2.826   4.915   3.438 -0.3791 -0.5345 -0.3621
 7569SOL    HW123779   2.862   4.854   3.503  1.3539 -0.0769 -0.8347
 7569SOL    HW223780   2.831   5.001   3.480 -3.1832 -0.6565  0.4573
 7570SOL     OW23781   4.007   5.081   3.507  0.2569  0.3592 -0.0343
 7570SOL    HW123782   3.983   5.043   3.591  1.2884 -2.0812 -0.7467
 7570SOL    HW223783   4.055   5.160   3.529 -1.0666  0.7641  1.5831
 7571SOL     OW23784   4.944   6.417   0.295 -0.2090  0.3519  0.9049
 7571SOL    HW123785   4.947   6.492   0.235 -1.2024 -2.0086 -2.3881
 7571SOL    HW223786   4.850   6.402   0.309 -0.0664 -0.8931  0.6042
 7572SOL     OW23787   1.817   3.523   0.307  0.2806 -0.2807 -0.0392
 7572SOL    HW123788   1.847   3.560   0.390 -1.2185  0.3016  0.2837
 7572SOL    HW223789   1.836   3.591   0.242  0.8053 -0.4432 -0.0578
 7573SOL     OW23790   5.461   3.760   6.947 -0.2135 -0.1122  0.2229
 7573SOL    HW123791   5.482   3.829   7.011  0.7317 -0.3161  0.1465
 7573SOL    HW223792   5.372   3.735   6.968  0.0649 -0.1528  1.4604
 7574SOL     OW23793   7.129   7.504   3.759 -0.9521  0.5162  0.3824
 7574SOL    HW123794   7.112   7.542   3.845 -1.0586  1.2529  0.0404
 7574SOL    HW223795   7.050   7.523   3.709 -1.5056 -1.1564  0.5298
 7575SOL     OW23796   1.680   6.542   3.157 -0.0126 -0.1248 -1.2842
 7575SOL    HW123797   1.589   6.565   3.137 -0.6528 -0.6398  0.7296
 7575SOL    HW223798   1.711   6.615   3.211  0.3340 -0.5484 -0.9038
 7576SOL     OW23799   7.164   5.608   1.036  0.1318 -0.8522  0.7661
 7576SOL    HW123800   7.193   5.548   1.104 -0.2338  0.2050  1.8826
 7576SOL    HW223801   7.201   5.692   1.060  1.0207 -0.6691 -1.0278
 7577SOL     OW23802   5.948   0.102   5.705 -0.2257  0.3454  0.0258
 7577SOL    HW123803   5.935   0.052   5.785  1.5407 -1.2308 -0.6056
 7577SOL    HW223804   5.924   0.192   5.729 -3.0527 -0.6324  1.3230
 7578SOL     OW23805   1.147   3.136   1.740  0.4362 -0.3908 -0.7269
 7578SOL    HW123806   1.089   3.059   1.735  0.9405 -1.1044  2.3663
 7578SOL    HW223807   1.223   3.105   1.789  0.3636  2.2145  1.1941
 7579SOL     OW23808   5.443   3.235   4.867 -0.3033  0.6494 -0.0064
 7579SOL    HW123809   5.350   3.237   4.847 -0.0242  0.6425 -1.4536
 7579SOL    HW223810   5.460   3.316   4.915 -1.0645  0.5999  0.3563
 7580SOL     OW23811   6.823   4.745   3.738 -0.3930 -0.0260  0.5098
 7580SOL    HW123812   6.836   4.650   3.744  0.2373  0.1032  1.3423
 7580SOL    HW223813   6.907   4.778   3.706 -0.5178  0.2876  0.5078
 7581SOL     OW23814   3.124   2.730   1.534  0.1354  0.1129 -0.3473
 7581SOL    HW123815   3.185   2.803   1.548 -1.0723  1.2188 -0.7086
 7581SOL    HW223816   3.165   2.678   1.465  1.7725 -0.4612  0.9760
 7582SOL     OW23817   0.711   2.931   1.701  0.4382 -0.0738  0.2877
 7582SOL    HW123818   0.783   2.882   1.660  0.1810  0.5444 -0.9456
 7582SOL    HW223819   0.744   3.020   1.711  0.3663 -0.1331  1.1149
 7583SOL     OW23820   0.017   2.172   3.667  0.1237 -0.3140 -0.3681
 7583SOL    HW123821   0.089   2.184   3.605 -0.6647  0.1276 -1.2101
 7583SOL    HW223822   0.061   2.146   3.749  1.3847  1.6104 -0.3618
 7584SOL     OW23823   5.393   1.336   5.337  0.0394  0.1329  0.4846
 7584SOL    HW123824   5.365   1.422   5.369  0.2106  0.3353  0.1111
 7584SOL    HW223825   5.328   1.313   5.270  1.8107  1.5637 -1.9107
 7585SOL     OW23826   3.745   6.240   7.707  0.0213 -0.1528  0.1885
 7585SOL    HW123827   3.679   6.251   7.639 -1.0887 -0.5308  1.1864
 7585SOL    HW223828   3.801   6.169   7.675 -1.3095 -1.2733  0.2785
 7586SOL     OW23829   5.536   4.545   0.967  0.5269  0.5839 -0.0767
 7586SOL    HW123830   5.515   4.603   0.893  1.4790 -0.3350 -1.1172
 7586SOL    HW223831   5.451   4.513   0.996  0.1093  1.1545 -0.6119
 7587SOL     OW23832   0.682   3.431   3.692  0.0942  0.0192 -0.0449
 7587SOL    HW123833   0.744   3.387   3.750 -0.0281  0.9652  0.8305
 7587SOL    HW223834   0.596   3.396   3.717  0.0978  0.0121 -0.0422
 7588SOL     OW23835   1.809   2.711   2.345  0.2669  0.4765  0.2618
 7588SOL    HW123836   1.737   2.743   2.291 -0.6036 -0.7554  0.6439
 7588SOL    HW223837   1.798   2.756   2.429  0.4146  0.8833  0.0637
 7589SOL     OW23838   4.819   8.116   3.162 -0.0708 -0.0486  0.3156
 7589SOL    HW123839   4.887   8.177   3.135  0.1906 -0.8998 -1.0309
 7589SOL    HW223840   4.823   8.116   3.258  2.0801 -0.3467  0.2723
 7590SOL     OW23841   2.515   2.259   7.322  0.0037 -0.2971 -0.3358
 7590SOL    HW123842   2.608   2.246   7.343 -0.3114 -1.3227  0.5054
 7590SOL    HW223843   2.512   2.346   7.282  1.3104 -0.2039 -0.2925
 7591SOL     OW23844   2.377   0.765   3.787  0.0792  0.2192  0.1424
 7591SOL    HW123845   2.438   0.756   3.861  0.8022 -0.0843 -0.4813
 7591SOL    HW223846   2.405   0.844   3.742  0.4865 -0.3270 -0.5741
 7592SOL     OW23847   2.936   0.754   0.177 -0.4203 -0.1572  0.0649
 7592SOL    HW123848   2.846   0.786   0.165 -1.2400 -2.2121  0.2791
 7592SOL    HW223849   2.942   0.735   0.270  0.5637  0.7933  0.2122
 7593SOL     OW23850   5.198   7.135   1.301  0.4871 -0.5567  0.7535
 7593SOL    HW123851   5.177   7.188   1.378 -0.6186 -0.3697  0.3419
 7593SOL    HW223852   5.217   7.048   1.336  1.8172 -0.0318  1.3906
 7594SOL     OW23853   2.213   7.218   3.494  0.6913 -0.3389  0.2036
 7594SOL    HW123854   2.147   7.250   3.433  0.7057 -1.6647 -0.5514
 7594SOL    HW223855   2.272   7.292   3.507 -1.4960  1.2790  1.7769
 7595SOL     OW23856   2.265   1.642   0.149 -0.1198 -0.4337  0.5574
 7595SOL    HW123857   2.283   1.554   0.116  1.4358 -0.1281  0.5436
 7595SOL    HW223858   2.350   1.677   0.173 -0.4941  1.6843 -0.9366
 7596SOL     OW23859   0.836   4.223   2.721 -0.2779  0.0928 -0.3451
 7596SOL    HW123860   0.816   4.247   2.811  1.0489  1.7468 -0.4448
 7596SOL    HW223861   0.921   4.179   2.725 -0.9549 -1.3180 -0.6343
 7597SOL     OW23862   5.092   1.659   3.239  0.5085  0.1939 -0.7364
 7597SOL    HW123863   5.054   1.629   3.322 -1.3150 -1.3953 -2.0475
 7597SOL    HW223864   5.037   1.733   3.213 -0.6099 -0.9405 -1.7334
 7598SOL     OW23865   1.439   4.450   3.345  0.0593 -0.0482 -0.1233
 7598SOL    HW123866   1.375   4.383   3.322 -0.5247 -0.1140  1.5766
 7598SOL    HW223867   1.408   4.486   3.428  1.1894  1.2748 -0.2263
 7599SOL     OW23868   5.404   4.663   3.706 -0.2921 -0.5907  0.3727
 7599SOL    HW123869   5.460   4.702   3.773 -0.2584  0.0012  0.0085
 7599SOL    HW223870   5.348   4.735   3.677  1.6585  0.0115 -2.3329
 7600SOL     OW23871   7.425   4.510   6.126  0.4948 -0.1845 -0.9502
 7600SOL    HW123872   7.334   4.537   6.140  0.0136 -1.6549 -1.1304
 7600SOL    HW223873   7.477   4.579   6.170 -0.6656  0.9244 -1.2525
 7601SOL     OW23874   4.056   7.344   3.376  0.0187 -0.2279  0.3078
 7601SOL    HW123875   4.132   7.322   3.323 -0.8996  1.4047 -1.8613
 7601SOL    HW223876   4.091   7.398   3.447  1.0460 -0.6527  0.1406
 7602SOL     OW23877   6.187   3.599   4.478  0.0768 -0.7161 -0.6474
 7602SOL    HW123878   6.133   3.566   4.406 -0.9712  0.7461 -0.5776
 7602SOL    HW223879   6.217   3.685   4.448  0.9352 -0.7577  0.0424
 7603SOL     OW23880   3.969   5.531   0.300  0.3660 -0.3719 -0.3149
 7603SOL    HW123881   3.982   5.474   0.225 -1.5242  0.9259 -1.7263
 7603SOL    HW223882   3.918   5.604   0.266  0.9578  1.1661  1.8633
 7604SOL     OW23883   1.700   4.651   2.420  0.3288 -0.6900 -0.3408
 7604SOL    HW123884   1.641   4.579   2.396  0.7152 -1.4822  0.9359
 7604SOL    HW223885   1.787   4.612   2.418  0.7561  0.3060 -1.5987
 7605SOL     OW23886   6.895   5.006   0.098  0.7864  0.1786 -0.4119
 7605SOL    HW123887   6.889   5.062   0.021  1.9825  0.0185 -0.6437
 7605SOL    HW223888   6.910   4.918   0.063  1.6501  0.1534 -0.0148
 7606SOL     OW23889   2.173   4.337   1.486 -0.1291 -0.5086 -0.0081
 7606SOL    HW123890   2.158   4.432   1.487 -2.1414 -0.6614  3.4989
 7606SOL    HW223891   2.262   4.327   1.520 -0.3376  0.1518  0.7754
 7607SOL     OW23892   7.018   4.012   5.706 -0.2636 -0.1058 -1.0431
 7607SOL    HW123893   6.932   3.989   5.671 -0.0711 -0.7945 -1.0806
 7607SOL    HW223894   7.019   3.974   5.794  0.0038 -0.1183 -1.0497
 7608SOL     OW23895   0.975   1.033   0.017  0.0224  0.1614  0.1987
 7608SOL    HW123896   0.921   1.094   0.068 -1.3413 -0.3261 -0.5965
 7608SOL    HW223897   0.963   1.061  -0.074  2.4480  1.0399  0.0836
 7609SOL     OW23898   1.346   0.321   3.541  0.1037  0.2540  0.1514
 7609SOL    HW123899   1.420   0.281   3.587  0.8613  0.0330 -1.2273
 7609SOL    HW223900   1.378   0.408   3.516 -0.6561  0.7655  0.8873
 7610SOL     OW23901   1.780   6.667   4.250  0.0504  0.1186 -0.6519
 7610SOL    HW123902   1.701   6.647   4.199 -1.0670  4.2301 -0.9508
 7610SOL    HW223903   1.755   6.646   4.340  0.6487 -3.5608 -1.2213
 7611SOL     OW23904   8.066   5.104   4.339 -0.6903  0.0650 -0.1996
 7611SOL    HW123905   8.127   5.151   4.282  0.9605 -0.0524  1.3302
 7611SOL    HW223906   8.046   5.023   4.292  2.7975 -1.3387  0.3791
 7612SOL     OW23907   0.575   7.721   2.049 -0.4753 -0.3525  0.2545
 7612SOL    HW123908   0.525   7.745   1.971 -0.4344  1.5074  0.7486
 7612SOL    HW223909   0.605   7.804   2.085 -0.1663 -1.1875  2.0463
 7613SOL     OW23910   7.911   7.832   2.769 -0.5886  0.2048 -0.5267
 7613SOL    HW123911   8.001   7.810   2.793 -0.4744  1.0782 -0.1094
 7613SOL    HW223912   7.901   7.923   2.796 -1.2385  0.4693 -1.6136
 7614SOL     OW23913   0.564   0.004   1.957  0.6589 -0.3377 -0.1528
 7614SOL    HW123914   0.623  -0.053   1.907  1.5944 -1.2121  1.8225
 7614SOL    HW223915   0.617   0.034   2.031 -1.6630 -2.2029  2.4553
 7615SOL     OW23916   0.615   1.284   2.456  0.5400 -0.2175  0.4724
 7615SOL    HW123917   0.671   1.359   2.472  1.8849 -1.5521  2.5336
 7615SOL    HW223918   0.674   1.216   2.425 -0.1243 -1.2550  1.3874
 7616SOL     OW23919   4.022   2.605   6.569 -0.0998  0.0637  0.6672
 7616SOL    HW123920   3.934   2.588   6.533  0.6337 -0.0171 -1.2357
 7616SOL    HW223921   4.081   2.573   6.501  1.3947  2.2988  0.8209
 7617SOL     OW23922   3.431   0.498   7.758 -0.1615  0.2892 -0.3033
 7617SOL    HW123923   3.483   0.443   7.817 -0.7374 -2.1801 -1.9606
 7617SOL    HW223924   3.344   0.501   7.798  0.1319  0.9276  0.3205
 7618SOL     OW23925   5.300   7.406   0.931  0.0826 -0.3660 -0.2616
 7618SOL    HW123926   5.224   7.465   0.925 -1.3553 -2.1780 -0.6383
 7618SOL    HW223927   5.262   7.318   0.930  2.2989 -1.4477 -3.1431
 7619SOL     OW23928   6.275   2.385   0.414 -0.3357 -0.1278  0.6663
 7619SOL    HW123929   6.331   2.447   0.460  0.8887 -1.8589  1.5918
 7619SOL    HW223930   6.186   2.412   0.436  0.1780 -0.6985  3.9139
 7620SOL     OW23931   6.030   7.644   5.166 -0.2651 -1.0981  0.2287
 7620SOL    HW123932   5.989   7.710   5.221 -0.6479 -1.1764  0.0441
 7620SOL    HW223933   6.092   7.599   5.224  0.4035 -0.2261  0.2127
 7621SOL     OW23934   5.255   2.954   7.607  0.0417  0.0467 -0.6206
 7621SOL    HW123935   5.309   2.977   7.683 -0.4968  0.2280 -0.2952
 7621SOL    HW223936   5.237   2.861   7.619  0.2624 -0.0110 -0.7220
 7622SOL     OW23937   2.254   4.666   5.524  0.6694  0.1041  0.6415
 7622SOL    HW123938   2.178   4.723   5.530  0.8458  0.2828  1.1998
 7622SOL    HW223939   2.312   4.695   5.594  2.6185  1.9783 -1.5908
 7623SOL     OW23940   2.873   1.904   4.624 -0.0174 -0.1591  0.1362
 7623SOL    HW123941   2.837   1.883   4.710  0.4567  1.8239  0.8478
 7623SOL    HW223942   2.944   1.840   4.612 -0.1764 -0.5441  1.1492
 7624SOL     OW23943   2.004   6.360   6.905  0.0056 -0.0275  0.1048
 7624SOL    HW123944   2.029   6.368   6.997  2.9413  0.4265 -0.6372
 7624SOL    HW223945   2.069   6.413   6.858 -1.1904 -0.5510 -2.2628
 7625SOL     OW23946   8.138   2.759   2.684 -0.1937  0.0235  0.0855
 7625SOL    HW123947   8.156   2.695   2.753  1.3622 -0.6355 -0.8723
 7625SOL    HW223948   8.101   2.707   2.613 -1.3305  0.6227  0.2146
 7626SOL     OW23949   0.146   3.631   2.145 -0.1136 -0.2674  0.3691
 7626SOL    HW123950   0.228   3.626   2.194  0.7032 -2.6946 -1.0413
 7626SOL    HW223951   0.172   3.655   2.056 -0.8166 -1.6600 -0.2455
 7627SOL     OW23952   2.171   5.230   4.170  0.0450  0.2130  0.2938
 7627SOL    HW123953   2.092   5.200   4.214  1.3791  0.7863  3.3171
 7627SOL    HW223954   2.207   5.152   4.128 -0.7116 -0.6333  1.1745
 7628SOL     OW23955   4.985   7.514   4.971  0.1711  0.0114 -0.4754
 7628SOL    HW123956   4.950   7.430   4.943  0.2185 -0.4637  0.8314
 7628SOL    HW223957   5.056   7.492   5.032 -0.0882  0.9900  0.2049
 7629SOL     OW23958   1.596   7.376   5.833 -1.0142  0.1277 -0.4841
 7629SOL    HW123959   1.505   7.364   5.807 -1.4115  0.2428  0.8126
 7629SOL    HW223960   1.596   7.365   5.928  0.0335  1.7038 -0.2615
 7630SOL     OW23961   0.850   2.279   0.812  0.3151 -0.3396  0.3357
 7630SOL    HW123962   0.880   2.313   0.728 -1.2441 -0.1424 -0.1768
 7630SOL    HW223963   0.877   2.345   0.875  1.3606 -0.4111 -0.0117
 7631SOL     OW23964   4.509   0.053   2.690 -0.1496 -0.2885 -0.4907
 7631SOL    HW123965   4.493   0.034   2.597  3.0045 -2.7573 -0.7029
 7631SOL    HW223966   4.601   0.078   2.693 -0.1908 -0.2421  1.9945
 7632SOL     OW23967   0.470   0.542   1.124  0.2033 -0.5280  0.2672
 7632SOL    HW123968   0.448   0.519   1.214  1.0905  0.7373  0.8396
 7632SOL    HW223969   0.481   0.637   1.126  0.9044 -0.5610 -1.0371
 7633SOL     OW23970   1.494   5.658   3.758 -0.6589 -0.5407  0.1352
 7633SOL    HW123971   1.486   5.571   3.720  0.1274 -0.3891 -0.4019
 7633SOL    HW223972   1.418   5.705   3.725  0.0525 -0.3834 -1.3808
 7634SOL     OW23973   4.911   4.104   0.333  0.7504  0.0162  0.2912
 7634SOL    HW123974   4.886   4.065   0.249 -0.1952 -0.3665  0.7289
 7634SOL    HW223975   4.926   4.029   0.390 -2.1869  0.1857  1.4630
 7635SOL     OW23976   7.788   6.556   3.846  0.4385  0.4029  0.3371
 7635SOL    HW123977   7.710   6.529   3.893  0.7707 -1.1843  0.0380
 7635SOL    HW223978   7.758   6.625   3.788 -0.4163  0.8748  1.3087
 7636SOL     OW23979   1.824   6.177   3.839 -0.0317 -0.1899 -0.0191
 7636SOL    HW123980   1.830   6.209   3.749 -0.6979 -0.0772 -0.0263
 7636SOL    HW223981   1.900   6.120   3.849 -0.2198 -0.5916 -0.8092
 7637SOL     OW23982   3.508   7.338   4.580  0.0283 -0.0013 -0.2478
 7637SOL    HW123983   3.500   7.392   4.502  0.2334  1.0946  0.4753
 7637SOL    HW223984   3.427   7.286   4.582 -1.4890  2.2579  0.5149
 7638SOL     OW23985   7.869   4.826   6.652 -0.0425  0.0701 -0.2786
 7638SOL    HW123986   7.898   4.786   6.734  0.0263 -0.6920 -0.6705
 7638SOL    HW223987   7.848   4.916   6.676  0.1645 -0.0898  0.5372
 7639SOL     OW23988   3.022   5.447   1.361  0.3975 -0.4255 -0.5578
 7639SOL    HW123989   3.000   5.355   1.349  1.8484 -0.9018  0.2033
 7639SOL    HW223990   3.042   5.478   1.272  1.2604 -1.2314 -0.6633
 7640SOL     OW23991   4.447   3.732   6.468 -0.4693  0.1542  0.1630
 7640SOL    HW123992   4.465   3.712   6.376 -0.1554  2.0755 -0.2321
 7640SOL    HW223993   4.352   3.744   6.472 -0.4515  0.3440  0.0314
 7641SOL     OW23994   2.770   6.260   1.005 -0.3629 -0.4326  0.0116
 7641SOL    HW123995   2.825   6.200   0.955 -0.3573  0.3967 -1.0126
 7641SOL    HW223996   2.766   6.339   0.951 -2.0558 -0.2561  0.3523
 7642SOL     OW23997   7.482   8.072   7.434 -0.0476 -0.1455  0.1525
 7642SOL    HW123998   7.554   8.028   7.479  0.5709 -0.2818 -0.9291
 7642SOL    HW223999   7.406   8.054   7.488  0.5997 -0.6170  0.9384
 7643SOL     OW24000   0.583   4.707   7.026  0.7250  0.1979  0.2806
 7643SOL    HW124001   0.537   4.667   7.100  2.5367  0.6200  1.7152
 7643SOL    HW224002   0.640   4.637   6.993 -1.1080 -0.4545 -1.7505
 7644SOL     OW24003   1.437   7.741   1.289  0.8080  0.1329 -0.1553
 7644SOL    HW124004   1.349   7.775   1.272  0.7385 -0.2092 -0.4917
 7644SOL    HW224005   1.425   7.647   1.299  1.0709  0.1410  0.2849
 7645SOL     OW24006   5.050   2.539   7.827  0.0885  0.8910  0.1965
 7645SOL    HW124007   5.019   2.627   7.807  0.7386  1.0224 -0.2384
 7645SOL    HW224008   5.125   2.526   7.770 -0.2365 -0.0977 -0.0246
 7646SOL     OW24009   4.298   0.353   5.690 -0.6049  0.6556 -0.0260
 7646SOL    HW124010   4.261   0.330   5.775 -1.7942  2.1703 -0.0950
 7646SOL    HW224011   4.248   0.300   5.627  0.3176 -0.5115  0.1826
 7647SOL     OW24012   0.206   4.718   3.660  0.0992 -0.4194  0.1250
 7647SOL    HW124013   0.193   4.776   3.584 -0.2293 -0.8273 -0.1340
 7647SOL    HW224014   0.118   4.689   3.683  0.2494 -0.7035  0.3442
 7648SOL     OW24015   1.715   0.562   4.683 -0.8036  0.2629  0.1109
 7648SOL    HW124016   1.737   0.532   4.594 -1.4774  2.0239 -0.7089
 7648SOL    HW224017   1.649   0.500   4.714 -0.4497 -0.4638 -0.5695
 7649SOL     OW24018   7.556   6.747   2.479  0.0779  0.2156 -0.5322
 7649SOL    HW124019   7.536   6.655   2.468 -1.1530  0.0084  2.4410
 7649SOL    HW224020   7.487   6.793   2.431 -0.0012 -0.4122 -1.0246
 7650SOL     OW24021   2.892   3.459   5.085 -0.9674  0.3759 -0.0868
 7650SOL    HW124022   2.922   3.403   5.156  0.3387 -0.8184 -1.5032
 7650SOL    HW224023   2.836   3.403   5.031 -0.7752  0.8339 -0.7822
 7651SOL     OW24024   6.012   4.331   0.423 -0.9680  0.9096 -0.3954
 7651SOL    HW124025   5.959   4.397   0.379 -0.2085  0.9348 -1.3022
 7651SOL    HW224026   6.093   4.326   0.372 -0.5929 -0.0027  0.2426
 7652SOL     OW24027   7.560   6.310   5.757  0.6086 -0.1040  0.1455
 7652SOL    HW124028   7.609   6.376   5.805  0.1622 -0.1783  0.7128
 7652SOL    HW224029   7.626   6.244   5.733  0.8285 -0.0816  0.6779
 7653SOL     OW24030   6.001   6.538   7.252  0.3690  0.1134  0.2233
 7653SOL    HW124031   5.952   6.612   7.289 -0.1529  0.9063 -1.8835
 7653SOL    HW224032   6.018   6.480   7.326 -1.3816  1.1521  1.4988
 7654SOL     OW24033   0.424   6.541   6.926  0.2794 -0.7528  0.0833
 7654SOL    HW124034   0.401   6.452   6.897 -0.6778 -0.4321 -0.1777
 7654SOL    HW224035   0.348   6.594   6.904  1.3469  0.4094 -0.9409
 7655SOL     OW24036   5.729   5.542   0.659  0.0119  0.2462  0.6420
 7655SOL    HW124037   5.789   5.577   0.725  0.3017 -0.2858  0.6663
 7655SOL    HW224038   5.748   5.593   0.580  1.3864 -0.7449  0.3007
 7656SOL     OW24039   1.882   0.915   4.408  0.6064 -0.0380  0.0671
 7656SOL    HW124040   1.843   1.001   4.427 -0.6901 -0.4401 -0.6231
 7656SOL    HW224041   1.829   0.880   4.336 -1.3924 -3.0359  2.7278
 7657SOL     OW24042   5.026   0.758   6.474  0.1763  0.1508  0.6294
 7657SOL    HW124043   5.084   0.682   6.479  1.0234  0.6683 -0.7764
 7657SOL    HW224044   5.076   0.823   6.425 -0.6902  1.4856  1.4723
 7658SOL     OW24045   3.728   2.139   1.166 -0.1665 -0.3664  0.0219
 7658SOL    HW124046   3.723   2.229   1.133 -2.0041 -0.3494  0.2913
 7658SOL    HW224047   3.742   2.149   1.260 -0.7728 -0.3623  0.1105
 7659SOL     OW24048   3.090   0.237   6.404 -0.0160  0.2753 -0.0030
 7659SOL    HW124049   3.003   0.203   6.383 -0.8471  1.4214  1.4034
 7659SOL    HW224050   3.110   0.299   6.334  1.0779 -2.1591 -2.0340
 7660SOL     OW24051   5.118   3.216   7.749 -0.4469 -0.2156 -0.1027
 7660SOL    HW124052   5.185   3.194   7.813  1.1329 -0.0035 -1.5793
 7660SOL    HW224053   5.109   3.311   7.757  0.5634 -0.0280 -0.8782
 7661SOL     OW24054   6.547   3.266   4.040 -0.4824 -0.5208  0.0455
 7661SOL    HW124055   6.619   3.205   4.027 -0.2673 -1.0346  2.8998
 7661SOL    HW224056   6.476   3.213   4.075 -1.1565  0.4740  0.2522
 7662SOL     OW24057   0.243   6.759   2.991 -0.3026 -0.0670  0.1440
 7662SOL    HW124058   0.194   6.678   3.007 -2.5441  0.5275 -2.9084
 7662SOL    HW224059   0.186   6.811   2.936  1.1335  3.6382  1.8398
 7663SOL     OW24060   1.505   2.238   2.187 -0.2113  0.2948  0.3523
 7663SOL    HW124061   1.575   2.179   2.160  1.2731  1.0328  2.3023
 7663SOL    HW224062   1.428   2.182   2.197  0.4721 -0.8099 -0.4101
 7664SOL     OW24063   6.365   4.661   0.096  0.1838 -0.3529  0.9076
 7664SOL    HW124064   6.319   4.583   0.067 -0.8177  0.4271  0.3275
 7664SOL    HW224065   6.455   4.649   0.066 -0.4111 -0.3779 -1.0328
 7665SOL     OW24066   4.117   3.436   1.572 -0.2076  0.4636  0.5326
 7665SOL    HW124067   4.109   3.510   1.512  2.7668 -0.6209 -1.4660
 7665SOL    HW224068   4.208   3.438   1.601  0.3388 -2.8504 -0.4477
 7666SOL     OW24069   4.759   3.255   0.210 -0.0600 -0.1528 -0.1601
 7666SOL    HW124070   4.699   3.325   0.237  0.4982  0.9761 -1.6791
 7666SOL    HW224071   4.713   3.174   0.233 -0.9280  0.6918  1.2417
 7667SOL     OW24072   4.322   2.070   1.000  0.1664  0.4110  0.1059
 7667SOL    HW124073   4.236   2.048   0.964 -0.1106 -0.1510  1.0874
 7667SOL    HW224074   4.324   2.166   1.002 -0.0318  0.4491 -0.8379
 7668SOL     OW24075   6.536   4.933   1.315  0.5329 -0.2559 -0.4023
 7668SOL    HW124076   6.565   5.019   1.345 -0.6007  0.8721 -2.3652
 7668SOL    HW224077   6.612   4.896   1.271  0.7418  0.1369 -0.3755
 7669SOL     OW24078   4.375   5.716   1.086 -0.2836  0.1317  0.2984
 7669SOL    HW124079   4.461   5.709   1.127 -1.0772 -1.5216  1.8137
 7669SOL    HW224080   4.318   5.751   1.155 -1.0863  0.0341 -0.2908
 7670SOL     OW24081   1.145   7.278   0.692  0.1301 -0.0589 -0.2246
 7670SOL    HW124082   1.085   7.333   0.742 -0.0724 -0.4954  0.0188
 7670SOL    HW224083   1.128   7.189   0.724  1.3289 -0.1236  0.2761
 7671SOL     OW24084   3.722   0.077   6.225 -0.7017  0.4851  0.0934
 7671SOL    HW124085   3.648   0.060   6.167  0.2148 -0.3474 -0.8821
 7671SOL    HW224086   3.705   0.164   6.260 -1.7697  0.6177 -0.6939
 7672SOL     OW24087   1.098   3.158   0.245  0.0291 -0.2412  0.0065
 7672SOL    HW124088   1.175   3.170   0.299  0.5137  2.0818 -1.0749
 7672SOL    HW224089   1.122   3.088   0.184  0.2766 -1.3215  1.2944
 7673SOL     OW24090   1.888   1.398   3.483 -0.1094 -0.1966 -0.3123
 7673SOL    HW124091   1.909   1.490   3.497  2.5455 -1.0297  2.0163
 7673SOL    HW224092   1.823   1.377   3.551  1.0995 -0.5639  0.7603
 7674SOL     OW24093   6.476   4.231   1.345  0.4382  0.1828  0.1814
 7674SOL    HW124094   6.421   4.283   1.404 -1.2207 -1.8600  0.5489
 7674SOL    HW224095   6.415   4.199   1.278  1.2944 -1.5787  0.1821
 7675SOL     OW24096   5.356   4.936   1.742  0.0175  0.7399  0.0446
 7675SOL    HW124097   5.378   4.995   1.670  0.0319 -0.5441 -1.0428
 7675SOL    HW224098   5.268   4.904   1.722  0.3796 -0.3327  0.0908
 7676SOL     OW24099   2.575   4.540   2.778 -0.0694  0.3295 -0.0750
 7676SOL    HW124100   2.581   4.635   2.769  0.7531  0.3792  0.8029
 7676SOL    HW224101   2.661   4.514   2.811  0.0592 -0.8460 -1.2467
 7677SOL     OW24102   5.948   4.817   7.008  0.9189 -0.0877  0.1912
 7677SOL    HW124103   5.934   4.836   6.915  1.1393 -0.4149  0.0897
 7677SOL    HW224104   5.890   4.877   7.053 -0.6586 -1.2614 -0.2028
 7678SOL     OW24105   0.958   6.585   5.987  0.1501 -0.5242 -0.1518
 7678SOL    HW124106   1.052   6.592   6.006 -0.0446 -0.5411  0.8656
 7678SOL    HW224107   0.943   6.490   5.979  0.2489 -0.5127 -0.4820
 7679SOL     OW24108   2.792   6.957   6.364  0.2041 -0.1257 -0.2307
 7679SOL    HW124109   2.807   6.920   6.451  0.8669 -0.7984 -0.6169
 7679SOL    HW224110   2.841   6.900   6.304 -0.3670  0.2308 -1.0676
 7680SOL     OW24111   2.031   6.396   7.167  0.5551 -0.0405 -0.4112
 7680SOL    HW124112   2.111   6.402   7.219 -0.1848  1.7089  0.6037
 7680SOL    HW224113   1.972   6.341   7.220 -0.3135  1.9979  0.8881
 7681SOL     OW24114   1.177   8.030   4.062  0.4190 -0.2957  0.2200
 7681SOL    HW124115   1.086   8.003   4.047  0.2354  0.6004 -0.3558
 7681SOL    HW224116   1.191   8.101   4.000  1.4129 -0.1977  0.5450
 7682SOL     OW24117   1.382   1.011   3.633  0.0187 -0.4986 -0.4328
 7682SOL    HW124118   1.397   0.982   3.723  0.0017  1.0580  0.1094
 7682SOL    HW224119   1.401   1.105   3.635 -0.5130 -0.3332 -1.9369
 7683SOL     OW24120   6.369   4.167   7.928 -0.7200 -0.8999 -0.1586
 7683SOL    HW124121   6.455   4.168   7.970 -0.3647 -3.3268 -0.7383
 7683SOL    HW224122   6.384   4.200   7.840 -0.9602  1.3671  0.5582
 7684SOL     OW24123   3.093   7.939   4.737  0.1752  0.0205  1.1178
 7684SOL    HW124124   3.055   7.862   4.694 -1.9331  1.7003 -0.2983
 7684SOL    HW224125   3.044   7.947   4.819  1.1571 -0.7094  1.8013
 7685SOL     OW24126   5.805   2.667   7.118  0.0409 -0.6162  0.6981
 7685SOL    HW124127   5.755   2.588   7.140 -1.1469 -0.2328 -0.5216
 7685SOL    HW224128   5.753   2.710   7.051  0.0791  1.8022  2.1063
 7686SOL     OW24129   0.685   2.010   3.779 -0.1992  0.3862  0.1522
 7686SOL    HW124130   0.651   2.007   3.868  0.6007 -0.9488  0.4304
 7686SOL    HW224131   0.760   2.069   3.784 -0.8774  1.2778  0.0841
 7687SOL     OW24132   1.285   0.614   2.768  0.4460 -0.4403  0.4390
 7687SOL    HW124133   1.328   0.700   2.763 -2.6590  1.2227 -1.3369
 7687SOL    HW224134   1.284   0.583   2.677 -1.6099 -0.5708  0.4582
 7688SOL     OW24135   2.019   0.471   7.947 -0.2147 -0.4818 -0.3323
 7688SOL    HW124136   2.072   0.441   7.873 -1.1076 -0.4594 -0.9912
 7688SOL    HW224137   2.053   0.422   8.022  0.2872 -0.9637 -0.8655
 7689SOL     OW24138   6.185   1.275   4.187  0.0702 -0.4098 -0.1003
 7689SOL    HW124139   6.260   1.234   4.145  1.5510  1.1678  0.8449
 7689SOL    HW224140   6.140   1.204   4.231  3.0617 -1.0222  2.3045
 7690SOL     OW24141   2.524   8.072   3.914 -0.0828  0.1550  0.1675
 7690SOL    HW124142   2.462   8.126   3.964 -0.5939 -0.6076  0.3685
 7690SOL    HW224143   2.495   7.982   3.930  0.4757 -0.1548 -0.5503
 7691SOL     OW24144   0.575   5.853   2.896  0.5514 -0.2835 -0.3165
 7691SOL    HW124145   0.622   5.809   2.967 -1.3801  0.8871  1.7935
 7691SOL    HW224146   0.505   5.792   2.872  0.7144 -0.3265 -0.6986
 7692SOL     OW24147   0.128   0.518   4.329 -0.3047 -0.0349  0.2097
 7692SOL    HW124148   0.097   0.428   4.321  0.1015 -0.1866  0.3305
 7692SOL    HW224149   0.049   0.569   4.348 -0.3348 -0.5573  1.5973
 7693SOL     OW24150   5.693   8.002   3.571 -0.2589 -0.7986 -0.4749
 7693SOL    HW124151   5.763   8.064   3.591 -0.0161 -1.3822  0.5057
 7693SOL    HW224152   5.686   7.946   3.648 -1.8557 -0.7137 -0.5256
 7694SOL     OW24153   2.654   3.530   5.791  0.1948  0.2143 -0.0223
 7694SOL    HW124154   2.572   3.532   5.741  0.4240  0.7488 -0.3800
 7694SOL    HW224155   2.692   3.444   5.771 -0.0048  0.1870 -0.2871
 7695SOL     OW24156   1.520   0.882   7.154 -0.2018  0.0627 -0.5902
 7695SOL    HW124157   1.500   0.896   7.061  0.3890 -0.2024 -0.7656
 7695SOL    HW224158   1.608   0.846   7.153  0.3756  1.4025  0.1681
 7696SOL     OW24159   6.397   4.286   5.860  0.1527  0.3501  0.2191
 7696SOL    HW124160   6.333   4.247   5.920 -1.8273  2.2913 -0.5123
 7696SOL    HW224161   6.362   4.266   5.773 -0.6034  3.0760 -0.1768
 7697SOL     OW24162   5.237   0.367   0.977 -0.5209 -0.0406 -0.1083
 7697SOL    HW124163   5.259   0.331   1.063 -1.4767  0.0182  0.1744
 7697SOL    HW224164   5.226   0.461   0.993  2.7409  0.6175 -0.9904
 7698SOL     OW24165   1.226   8.102   7.685 -0.1329  0.1010  0.3719
 7698SOL    HW124166   1.203   8.165   7.617 -0.4825  0.7196  1.0559
 7698SOL    HW224167   1.315   8.074   7.663  0.9189  2.5020  1.2957
 7699SOL     OW24168   3.645   4.890   5.860 -0.5761 -0.1810 -0.7508
 7699SOL    HW124169   3.677   4.801   5.856 -0.6020 -0.1626 -4.0871
 7699SOL    HW224170   3.719   4.944   5.830 -0.9171  0.7955  0.1171
 7700SOL     OW24171   2.812   3.854   6.565 -0.1434 -0.0097  0.2024
 7700SOL    HW124172   2.792   3.765   6.594  1.4154 -0.4177  0.1362
 7700SOL    HW224173   2.908   3.859   6.569 -0.1443  1.3258 -0.7701
 7701SOL     OW24174   6.504   2.695   7.008  0.3606  0.0776  0.2050
 7701SOL    HW124175   6.580   2.639   7.024 -0.1547 -0.7071 -0.0907
 7701SOL    HW224176   6.537   2.784   7.022  0.8639 -0.3567  1.9546
 7702SOL     OW24177   1.581   3.001   2.574  0.3428 -0.4982 -0.5957
 7702SOL    HW124178   1.583   2.959   2.487  0.2619  0.3462 -1.0125
 7702SOL    HW224179   1.524   2.944   2.626  0.8972 -1.3628 -0.9018
 7703SOL     OW24180   3.391   0.973   6.166 -0.2712  0.0377  0.1003
 7703SOL    HW124181   3.408   0.954   6.074 -1.2219 -0.4125  0.0073
 7703SOL    HW224182   3.478   0.971   6.207  0.4048  2.1944 -1.1024
 7704SOL     OW24183   5.222   1.485   7.333  0.6185  0.2607  0.4428
 7704SOL    HW124184   5.204   1.429   7.258 -1.0910  0.7148  0.4521
 7704SOL    HW224185   5.267   1.561   7.297 -1.5350  1.1900 -0.4345
 7705SOL     OW24186   1.185   5.764   8.048  0.3641  0.3063  0.3396
 7705SOL    HW124187   1.268   5.807   8.029  0.8745 -0.3111  1.0965
 7705SOL    HW224188   1.124   5.835   8.066  0.6765  0.7702 -0.4353
 7706SOL     OW24189   0.738   4.801   3.400 -0.4648 -0.4107 -0.1173
 7706SOL    HW124190   0.815   4.784   3.344 -0.7597 -2.5930  0.0412
 7706SOL    HW224191   0.762   4.763   3.485 -1.6757 -1.0509 -0.0482
 7707SOL     OW24192   8.156   0.123   7.507 -0.0400  0.2310  0.5412
 7707SOL    HW124193   8.195   0.048   7.463  0.3467  1.3384 -1.0970
 7707SOL    HW224194   8.104   0.166   7.439  0.5478  2.0008  1.1632
 7708SOL     OW24195   3.320   3.777   2.627  0.4871  0.4982  0.1563
 7708SOL    HW124196   3.414   3.787   2.614  0.6609  1.6850  1.8128
 7708SOL    HW224197   3.302   3.831   2.705 -1.4001 -0.4464  0.4281
 7709SOL     OW24198   2.730   0.432   6.400 -0.1399 -0.1800 -0.3174
 7709SOL    HW124199   2.799   0.477   6.448 -0.1082 -0.4960 -0.0628
 7709SOL    HW224200   2.751   0.339   6.408 -1.2503 -0.3559  0.7939
 7710SOL     OW24201   1.589   2.452   5.593 -0.2410  0.1016 -0.0460
 7710SOL    HW124202   1.573   2.504   5.672  0.7015 -0.6899  0.6824
 7710SOL    HW224203   1.511   2.467   5.539 -1.2737  0.0133  1.3685
 7711SOL     OW24204   7.515   4.307   7.805  0.7792  0.0281 -0.6146
 7711SOL    HW124205   7.521   4.385   7.860  0.5539  0.1435 -0.7543
 7711SOL    HW224206   7.606   4.283   7.787  0.8441  0.4185 -0.8006
 7712SOL     OW24207   5.277   3.232   6.157 -0.1650  0.0631 -0.1804
 7712SOL    HW124208   5.192   3.250   6.117 -0.3739  0.4013  0.4033
 7712SOL    HW224209   5.305   3.316   6.194 -0.1148 -0.2921  0.6252
 7713SOL     OW24210   6.428   5.332   0.946  0.6516  0.1155 -0.3338
 7713SOL    HW124211   6.438   5.251   0.996 -1.2804 -0.1732 -0.3127
 7713SOL    HW224212   6.516   5.369   0.942  1.0226 -0.2058  2.6218
 7714SOL     OW24213   5.552   1.746   0.391  0.5286  0.0171 -0.0671
 7714SOL    HW124214   5.631   1.783   0.352 -0.3909  1.4948 -0.6035
 7714SOL    HW224215   5.581   1.663   0.428  2.9982  1.6888  2.1900
 7715SOL     OW24216   6.943   3.148   0.705 -0.0300  0.1634 -0.3570
 7715SOL    HW124217   6.944   3.242   0.722  1.1240  0.7964 -3.3185
 7715SOL    HW224218   6.853   3.129   0.681 -0.9312 -0.1422  2.8209
 7716SOL     OW24219   1.173   7.517   4.034  0.4014  0.2126  0.1019
 7716SOL    HW124220   1.249   7.558   3.992  0.5008  3.1303  2.7054
 7716SOL    HW224221   1.210   7.475   4.112 -0.1177 -2.7931 -1.1213
 7717SOL     OW24222   7.163   6.647   5.840  0.3277  0.5843  0.2773
 7717SOL    HW124223   7.172   6.570   5.897 -0.9723 -2.5672 -3.3520
 7717SOL    HW224224   7.251   6.660   5.804  0.7116  1.3611  1.4246
 7718SOL     OW24225   1.682   8.060   2.872  0.5560  0.0464  0.5032
 7718SOL    HW124226   1.695   8.093   2.961  1.2786  1.3066 -0.0363
 7718SOL    HW224227   1.637   8.132   2.827  1.5043  0.0164 -0.5228
 7719SOL     OW24228   5.626   3.842   7.173 -0.0095  0.0231 -0.3306
 7719SOL    HW124229   5.678   3.783   7.118 -0.7616 -0.3436 -0.6512
 7719SOL    HW224230   5.690   3.878   7.235  0.2736 -2.0008  0.6346
 7720SOL     OW24231   6.469   1.910   4.026  0.1333 -0.0199 -0.2864
 7720SOL    HW124232   6.486   1.817   4.042 -1.1850  0.0521  1.8644
 7720SOL    HW224233   6.416   1.911   3.947 -0.1714 -1.1248 -0.1115
 7721SOL     OW24234   6.838   2.519   5.738  0.0886 -0.3130 -0.3537
 7721SOL    HW124235   6.786   2.490   5.663  0.0574  1.9678 -1.2775
 7721SOL    HW224236   6.858   2.438   5.786 -4.2683 -1.3857  0.0996
 7722SOL     OW24237   6.442   3.422   1.286  0.0246  0.2293 -0.0550
 7722SOL    HW124238   6.375   3.429   1.218  0.1438  1.1601 -0.0876
 7722SOL    HW224239   6.412   3.480   1.356  0.7286  0.5588 -0.0166
 7723SOL     OW24240   4.852   5.047   6.931  0.3056 -0.5247 -0.5353
 7723SOL    HW124241   4.872   5.028   7.022 -1.2379 -2.1477 -0.4928
 7723SOL    HW224242   4.893   4.976   6.881  0.9651  0.2358 -1.1249
 7724SOL     OW24243   1.615   7.125   6.446  0.4518  0.1809  0.2110
 7724SOL    HW124244   1.667   7.106   6.368 -0.3929  1.6387 -0.7549
 7724SOL    HW224245   1.676   7.166   6.507  1.2174 -1.3584  0.5241
 7725SOL     OW24246   2.401   4.024   5.514  0.5181 -0.2713  0.2412
 7725SOL    HW124247   2.381   4.040   5.421  0.3705 -0.8997  0.1626
 7725SOL    HW224248   2.456   4.098   5.539  0.8535 -0.2761 -0.4482
 7726SOL     OW24249   1.541   7.136   2.306  0.0930 -0.4032  0.4300
 7726SOL    HW124250   1.559   7.099   2.220 -1.9498 -0.6331  0.0440
 7726SOL    HW224251   1.625   7.172   2.335  1.0138 -1.0524 -1.2794
 7727SOL     OW24252   3.249   5.599   7.389  0.0856 -0.2222  0.3741
 7727SOL    HW124253   3.280   5.689   7.379 -1.1123  0.3070  1.1524
 7727SOL    HW224254   3.274   5.556   7.308 -0.6865  1.2510 -0.6960
 7728SOL     OW24255   0.181   4.029   2.637 -0.5551  0.1956  0.4999
 7728SOL    HW124256   0.250   3.995   2.694 -1.2699  1.0862  1.9860
 7728SOL    HW224257   0.101   4.017   2.689 -1.3042  0.5906 -0.5476
 7729SOL     OW24258   0.484   4.321   2.868 -0.2529 -0.5335 -0.4997
 7729SOL    HW124259   0.576   4.348   2.872 -0.4500  0.1440 -0.3888
 7729SOL    HW224260   0.470   4.270   2.948 -0.0393 -0.4235 -0.3907
 7730SOL     OW24261   5.843   2.873   3.144  0.0291  0.3454  0.0938
 7730SOL    HW124262   5.897   2.949   3.127 -0.5914  0.7484 -0.1330
 7730SOL    HW224263   5.760   2.909   3.176  0.3347 -0.3078  1.6902
 7731SOL     OW24264   6.898   4.135   3.615 -0.4084 -0.0239 -0.0901
 7731SOL    HW124265   6.855   4.051   3.601 -0.8493 -0.0143  1.1143
 7731SOL    HW224266   6.908   4.142   3.710 -0.7107  1.4388 -0.1371
 7732SOL     OW24267   0.050   8.075   1.695  0.8634  0.7704  0.1599
 7732SOL    HW124268   0.035   8.099   1.787 -0.0279  1.4150 -0.1369
 7732SOL    HW224269   0.044   7.979   1.694 -1.5971  0.8494  0.4111
 7733SOL     OW24270   8.007   1.348   2.804  0.3260  0.2241 -0.0341
 7733SOL    HW124271   8.003   1.324   2.712 -0.3251 -0.8855  0.2694
 7733SOL    HW224272   8.061   1.280   2.845 -2.2810 -1.3771  0.9991
 7734SOL     OW24273   3.722   6.464   7.222 -0.4101  0.0658  0.3828
 7734SOL    HW124274   3.704   6.516   7.300  2.8175  1.3089  0.4473
 7734SOL    HW224275   3.731   6.528   7.151 -1.4507 -0.8844 -0.6425
 7735SOL     OW24276   6.206   6.111   3.350  0.3150 -0.0728  0.3821
 7735SOL    HW124277   6.266   6.185   3.349 -0.1364  0.4520  3.3585
 7735SOL    HW224278   6.119   6.150   3.344  0.1174 -0.5439  0.0536
 7736SOL     OW24279   0.209   3.385   5.401 -0.3548 -0.3791 -0.2503
 7736SOL    HW124280   0.221   3.294   5.428 -0.6274 -0.4068 -0.2184
 7736SOL    HW224281   0.248   3.436   5.472  1.0283 -0.4834 -0.8971
 7737SOL     OW24282   7.947   6.039   0.331  0.0043 -0.4049  0.2274
 7737SOL    HW124283   7.872   6.056   0.388  0.0788  1.1428 -0.1172
 7737SOL    HW224284   7.915   6.055   0.243  0.3969 -0.9950 -0.0291
 7738SOL     OW24285   1.873   3.980   2.685  0.4662 -0.0938 -0.5945
 7738SOL    HW124286   1.841   4.067   2.708 -1.6367 -0.7795 -0.6701
 7738SOL    HW224287   1.888   3.984   2.591 -0.0472  0.0759 -0.6731
 7739SOL     OW24288   4.489   4.252   0.222  0.1989  0.0256  0.4658
 7739SOL    HW124289   4.522   4.174   0.179 -0.8373  0.5506 -1.3595
 7739SOL    HW224290   4.567   4.295   0.258  0.8060 -1.6590  1.2626
 7740SOL     OW24291   6.941   2.031   1.475  0.0212 -0.3286 -0.0379
 7740SOL    HW124292   6.894   2.027   1.558 -0.7740 -0.6638 -0.4893
 7740SOL    HW224293   6.895   1.969   1.418 -0.8418  1.4897 -1.4223
 7741SOL     OW24294   1.271   2.231   3.236 -0.3342  0.6665 -0.1271
 7741SOL    HW124295   1.296   2.272   3.319 -0.4349  1.5915 -0.5447
 7741SOL    HW224296   1.351   2.231   3.184 -0.8446  2.4952 -0.9988
 7742SOL     OW24297   6.321   0.579   3.612  0.1678  0.7165  0.0007
 7742SOL    HW124298   6.341   0.647   3.549 -0.1393  0.8576  0.0505
 7742SOL    HW224299   6.309   0.625   3.695 -0.4145  0.6532 -0.0386
 7743SOL     OW24300   5.774   7.626   3.688 -0.2253  0.0949 -0.2435
 7743SOL    HW124301   5.765   7.720   3.703 -0.1994 -0.1074  1.2423
 7743SOL    HW224302   5.865   7.615   3.659 -0.1421  0.5035 -0.1464
 7744SOL     OW24303   4.810   6.215   5.895 -0.1835 -0.0214 -0.5551
 7744SOL    HW124304   4.792   6.122   5.902 -0.7598  0.1023 -0.2827
 7744SOL    HW224305   4.863   6.236   5.972  2.4057 -0.6541 -2.0623
 7745SOL     OW24306   1.653   4.436   1.466  0.1552  0.2309  0.8121
 7745SOL    HW124307   1.744   4.439   1.439  0.3974 -0.3780  1.5119
 7745SOL    HW224308   1.633   4.343   1.474 -0.1959  0.3645  1.6971
 7746SOL     OW24309   0.107   6.063   6.271 -0.5306 -0.1749 -0.4236
 7746SOL    HW124310   0.150   5.987   6.232  0.0210  1.0647 -2.3352
 7746SOL    HW224311   0.040   6.025   6.328  2.7579 -2.2260  2.5678
 7747SOL     OW24312   2.910   4.654   7.096 -0.5301 -0.0206  0.0226
 7747SOL    HW124313   2.862   4.708   7.033  0.0864  0.5801  0.0573
 7747SOL    HW224314   2.951   4.586   7.042 -0.2802  0.2902 -0.1814
 7748SOL     OW24315   5.848   6.970   2.745  0.1879 -0.3948 -0.6483
 7748SOL    HW124316   5.856   7.042   2.682 -2.9831  1.0540  0.3884
 7748SOL    HW224317   5.930   6.970   2.793  0.8801  1.4925 -1.7220
 7749SOL     OW24318   5.788   2.123   1.144 -0.0409 -0.4815  0.4751
 7749SOL    HW124319   5.722   2.190   1.163  0.8896  0.1159  1.7990
 7749SOL    HW224320   5.826   2.101   1.230 -1.4956 -4.0481  0.3673
 7750SOL     OW24321   3.548   3.708   6.251  0.0862  0.6304 -0.6278
 7750SOL    HW124322   3.510   3.673   6.171 -0.5667 -0.7335  0.2273
 7750SOL    HW224323   3.534   3.639   6.316  0.0856  1.9145  0.7990
 7751SOL     OW24324   7.429   5.762   1.055  0.0833  0.3755 -0.3673
 7751SOL    HW124325   7.411   5.718   0.972 -0.3743  2.0443 -1.1833
 7751SOL    HW224326   7.470   5.695   1.109 -0.3387 -0.9653 -1.6566
 7752SOL     OW24327   4.802   2.523   6.645  0.0097  0.1394 -0.1829
 7752SOL    HW124328   4.780   2.447   6.699  0.6113  0.5814  0.7125
 7752SOL    HW224329   4.735   2.523   6.576  0.9792 -2.1780 -1.2285
 7753SOL     OW24330   5.416   6.576   5.892 -0.0585 -0.2323  0.1867
 7753SOL    HW124331   5.419   6.482   5.877  0.8646  0.1306 -2.4087
 7753SOL    HW224332   5.346   6.588   5.957  0.4921 -2.7351  1.3633
 7754SOL     OW24333   3.883   4.869   3.752 -0.0977  0.8830 -0.2830
 7754SOL    HW124334   3.794   4.842   3.733  0.1567 -0.2395  0.0557
 7754SOL    HW224335   3.937   4.793   3.732  0.7657  1.4668 -0.2695
 7755SOL     OW24336   6.040   5.537   5.491 -0.0214  0.1246 -0.1824
 7755SOL    HW124337   6.064   5.473   5.557 -1.4104 -1.8562 -1.4912
 7755SOL    HW224338   5.983   5.599   5.537  2.4796  1.3817  1.4461
 7756SOL     OW24339   5.007   3.399   3.858  0.0086  0.3212  0.2570
 7756SOL    HW124340   4.949   3.345   3.805 -0.5387 -0.0398  1.2006
 7756SOL    HW224341   5.017   3.480   3.808 -0.5048 -0.0103 -0.3880
 7757SOL     OW24342   5.944   1.409   3.507  0.0098  0.2789  0.6766
 7757SOL    HW124343   5.999   1.487   3.513 -1.2186  1.0556  2.9160
 7757SOL    HW224344   5.870   1.427   3.565 -1.8560 -1.3455 -1.0493
 7758SOL     OW24345   3.863   7.597   7.820 -0.1000 -0.1641 -0.0926
 7758SOL    HW124346   3.883   7.560   7.734  0.0934 -0.8924  0.2633
 7758SOL    HW224347   3.837   7.687   7.801  0.4983 -0.1381 -0.8663
 7759SOL     OW24348   0.993   4.332   1.707  0.1035  0.0082  0.1172
 7759SOL    HW124349   0.961   4.269   1.771 -0.8861 -0.3399 -0.6896
 7759SOL    HW224350   0.972   4.293   1.622 -1.0822  1.6707 -0.4079
 7760SOL     OW24351   1.187   1.172   4.550 -0.5339  0.2396  0.1318
 7760SOL    HW124352   1.263   1.168   4.608 -0.1749  1.1142 -0.2482
 7760SOL    HW224353   1.111   1.178   4.608 -0.2037  0.7785  0.5141
 7761SOL     OW24354   5.394   3.167   1.163 -0.0840  0.6631  0.2633
 7761SOL    HW124355   5.300   3.147   1.157 -0.2180  1.0870  0.8800
 7761SOL    HW224356   5.399   3.262   1.170  0.3969  0.6512  0.1216
 7762SOL     OW24357   3.380   5.882   6.611  0.1112 -0.3194 -0.1754
 7762SOL    HW124358   3.470   5.858   6.631  0.5075  1.1892 -0.0468
 7762SOL    HW224359   3.330   5.855   6.688  0.6714  0.0317  0.3127
 7763SOL     OW24360   6.144   1.010   5.531  0.5143  0.3639 -0.9206
 7763SOL    HW124361   6.227   1.047   5.562  0.2424  0.5984 -0.4579
 7763SOL    HW224362   6.094   1.086   5.502  0.9951  0.0900 -2.5158
 7764SOL     OW24363   1.864   6.063   1.161  0.2016  0.3579  0.0846
 7764SOL    HW124364   1.841   6.104   1.077  0.9075  3.3465  1.2064
 7764SOL    HW224365   1.952   6.027   1.147 -0.5662 -1.1750 -1.0392
 7765SOL     OW24366   1.668   4.107   4.003  0.5104  0.1460  0.6006
 7765SOL    HW124367   1.672   4.021   4.045  1.6106 -0.6147 -0.9523
 7765SOL    HW224368   1.578   4.136   4.016 -0.0389 -1.4832  0.7266
 7766SOL     OW24369   1.270   5.671   5.430  0.4105  0.0886 -0.2212
 7766SOL    HW124370   1.285   5.713   5.515  2.8493  0.6667 -0.8466
 7766SOL    HW224371   1.290   5.740   5.366  2.4676 -1.3816 -1.2615
 7767SOL     OW24372   8.010   4.379   5.456  0.0389  0.3717 -0.2134
 7767SOL    HW124373   7.975   4.435   5.525  0.4423  1.6585 -1.0189
 7767SOL    HW224374   7.932   4.344   5.411 -0.2802  2.2169 -1.2040
 7768SOL     OW24375   3.982   6.741   4.651 -0.6739  0.4972 -0.1799
 7768SOL    HW124376   4.016   6.710   4.566 -1.0349 -1.3632  0.3065
 7768SOL    HW224377   3.887   6.733   4.643 -0.6573 -1.7988  1.0773
 7769SOL     OW24378   1.660   5.321   6.783  0.3671 -0.1154 -0.2730
 7769SOL    HW124379   1.629   5.311   6.873  1.7968 -1.2332  0.1315
 7769SOL    HW224380   1.617   5.250   6.735 -0.6198  0.6526 -0.5724
 7770SOL     OW24381   7.822   1.999   1.380  0.2577 -0.2831 -0.0075
 7770SOL    HW124382   7.734   2.002   1.341 -0.2224 -1.4555  0.9291
 7770SOL    HW224383   7.881   1.998   1.305 -0.6193 -1.7239 -0.7294
 7771SOL     OW24384   7.550   4.362   1.534 -0.6803 -0.1948  0.2091
 7771SOL    HW124385   7.531   4.445   1.491 -0.4445  0.5344  1.4430
 7771SOL    HW224386   7.598   4.312   1.469 -2.1278  0.0243 -1.0833
 7772SOL     OW24387   3.655   7.685   6.960 -0.2750  0.1371  0.1614
 7772SOL    HW124388   3.634   7.602   7.003  1.9138 -0.1931  0.7193
 7772SOL    HW224389   3.638   7.751   7.027  2.6245 -0.3373  1.5576
 7773SOL     OW24390   1.926   6.538   0.019 -0.4596 -0.0370 -0.8742
 7773SOL    HW124391   1.908   6.580   0.104 -1.0939 -0.3370 -0.8482
 7773SOL    HW224392   1.988   6.468   0.040 -0.8893 -0.3392 -0.5919
 7774SOL     OW24393   0.257   4.736   2.741 -0.3087  0.2322  0.4484
 7774SOL    HW124394   0.327   4.785   2.697  0.8385 -2.4166 -0.8839
 7774SOL    HW224395   0.191   4.723   2.674  0.1648 -1.4169  0.2676
 7775SOL     OW24396   1.220   7.332   3.249  0.2617 -0.1448  0.0804
 7775SOL    HW124397   1.174   7.250   3.264 -0.0337  0.0968  0.5410
 7775SOL    HW224398   1.302   7.323   3.298  1.4791 -1.1962 -1.9961
 7776SOL     OW24399   1.122   5.681   1.795 -0.5064  0.5984 -0.7573
 7776SOL    HW124400   1.198   5.668   1.737 -0.1641  1.9223 -0.6455
 7776SOL    HW224401   1.047   5.662   1.739 -0.1583  1.2689 -1.4914
 7777SOL     OW24402   3.338   3.246   5.406 -0.5874  0.3389 -0.6732
 7777SOL    HW124403   3.274   3.307   5.368 -0.8592 -0.2701 -1.2241
 7777SOL    HW224404   3.322   3.164   5.359  0.4796  0.1332 -0.6845
 7778SOL     OW24405   6.069   5.300   4.817  0.6060  0.2978  0.2446
 7778SOL    HW124406   5.995   5.245   4.843  2.3700 -1.4391  1.9848
 7778SOL    HW224407   6.111   5.253   4.746  0.3698  1.0100 -0.3795
 7779SOL     OW24408   3.155   4.204   4.107  0.0054 -0.6565  0.0429
 7779SOL    HW124409   3.107   4.286   4.112  1.4054  0.2339 -0.4625
 7779SOL    HW224410   3.246   4.230   4.092  0.7265 -2.2514  1.2768
 7780SOL     OW24411   7.740   4.512   5.485  0.1403  0.4098 -0.1186
 7780SOL    HW124412   7.712   4.471   5.567  1.9051 -1.5621 -0.4110
 7780SOL    HW224413   7.783   4.594   5.513  0.4823 -0.1062  0.9296
 7781SOL     OW24414   3.393   5.272   4.917 -0.3914 -0.4103 -0.0486
 7781SOL    HW124415   3.364   5.200   4.973 -0.2950  0.2889  0.9276
 7781SOL    HW224416   3.456   5.231   4.857 -2.0867 -1.5939 -1.0868
 7782SOL     OW24417   2.491   6.760   3.569 -0.5381 -0.1488  0.4326
 7782SOL    HW124418   2.516   6.852   3.582  1.1725 -0.3385 -1.1650
 7782SOL    HW224419   2.423   6.762   3.502  0.1767 -0.0922 -0.3028
 7783SOL     OW24420   2.669   7.550   6.497  0.3429 -0.2579 -0.4665
 7783SOL    HW124421   2.575   7.569   6.490  0.5655  0.8298 -0.6905
 7783SOL    HW224422   2.697   7.596   6.576  1.1682  1.5999 -1.7704
 7784SOL     OW24423   0.110   7.783   0.750  0.5970 -0.8537 -0.2954
 7784SOL    HW124424   0.187   7.771   0.694  0.3234 -2.6795 -0.3276
 7784SOL    HW224425   0.101   7.700   0.796 -1.6461 -0.8567 -0.6504
 7785SOL     OW24426   2.608   6.677   4.358 -0.1654  0.2847  0.4152
 7785SOL    HW124427   2.679   6.678   4.293  0.1512  2.9298  0.6759
 7785SOL    HW224428   2.548   6.609   4.328  0.3502  0.8918 -2.2455
 7786SOL     OW24429   6.634   0.700   0.789  0.2839 -0.5683 -0.0970
 7786SOL    HW124430   6.670   0.757   0.721  0.2652  0.8768  1.0601
 7786SOL    HW224431   6.544   0.684   0.761 -0.1687  1.1550  0.2259
 7787SOL     OW24432   1.045   6.198   2.435  0.5209  0.2571 -0.4474
 7787SOL    HW124433   1.029   6.281   2.480  1.6087  1.0297 -1.4248
 7787SOL    HW224434   1.047   6.133   2.505  1.4849  1.3278  0.5688
 7788SOL     OW24435   5.415   3.486   5.721  0.5552  0.3383  0.3981
 7788SOL    HW124436   5.382   3.535   5.796 -1.8409  0.9884 -0.9670
 7788SOL    HW224437   5.449   3.404   5.758 -1.0965  0.3783  2.1505
 7789SOL     OW24438   0.200   0.895   5.694  0.2058 -1.0064 -0.4529
 7789SOL    HW124439   0.120   0.844   5.686  0.6218 -2.0099  1.2830
 7789SOL    HW224440   0.201   0.925   5.785  1.2983 -0.1405 -0.7201
 7790SOL     OW24441   5.203   3.668   6.125 -0.1558 -0.6303  0.2771
 7790SOL    HW124442   5.223   3.736   6.060  1.1528  1.1910  2.4274
 7790SOL    HW224443   5.127   3.703   6.172 -0.9696 -1.8318 -0.1157
 7791SOL     OW24444   1.896   1.868   3.751 -0.2477  0.3363  0.3761
 7791SOL    HW124445   1.942   1.905   3.676 -0.9301  1.5497  0.5326
 7791SOL    HW224446   1.807   1.902   3.744 -0.2647  0.6477  1.8413
 7792SOL     OW24447   2.691   1.457   0.195 -0.2378  0.0486  0.3785
 7792SOL    HW124448   2.764   1.441   0.255 -0.2413 -1.2440  0.0749
 7792SOL    HW224449   2.723   1.426   0.110 -1.3651 -1.2080  0.3753
 7793SOL     OW24450   7.103   1.166   6.254  0.5339 -0.0615  0.4579
 7793SOL    HW124451   7.167   1.102   6.224  0.0907 -0.1238 -0.3740
 7793SOL    HW224452   7.018   1.130   6.229  0.2590  0.7183  0.2082
 7794SOL     OW24453   6.301   3.899   3.277 -0.2095  0.3033 -0.0181
 7794SOL    HW124454   6.342   3.984   3.293 -1.0148  0.7799 -0.4283
 7794SOL    HW224455   6.299   3.857   3.364 -0.9499  1.2378  0.4434
 7795SOL     OW24456   2.141   1.378   2.491  0.1593 -0.1341 -0.0523
 7795SOL    HW124457   2.137   1.448   2.426  0.8272 -0.3268 -0.3116
 7795SOL    HW224458   2.116   1.421   2.573 -1.4601 -0.0727 -0.5542
 7796SOL     OW24459   1.897   5.661   2.425 -0.5374 -0.5848  0.1945
 7796SOL    HW124460   1.849   5.636   2.346 -1.0417 -0.0822  0.3337
 7796SOL    HW224461   1.855   5.611   2.496  0.1636 -1.3307  0.1004
 7797SOL     OW24462   0.586   6.931   7.723  0.3873  0.1598 -0.6000
 7797SOL    HW124463   0.617   6.920   7.813  0.4181 -1.8588 -0.8188
 7797SOL    HW224464   0.587   6.843   7.686  0.4166  0.9508 -2.6111
 7798SOL     OW24465   4.049   0.535   4.321 -1.4680 -0.0628  0.4806
 7798SOL    HW124466   4.046   0.439   4.315 -0.4622 -0.0534 -0.4418
 7798SOL    HW224467   4.132   0.559   4.280 -1.5190  1.1867  1.0669
 7799SOL     OW24468   5.280   3.275   3.265 -0.0210  0.3491  0.1314
 7799SOL    HW124469   5.244   3.221   3.194 -0.6678 -0.4592  1.0401
 7799SOL    HW224470   5.374   3.277   3.248 -0.1967  0.4297 -0.9140
 7800SOL     OW24471   3.658   6.691   6.360 -0.0783 -0.8479 -0.3598
 7800SOL    HW124472   3.638   6.672   6.268  0.0887 -0.0587 -0.5710
 7800SOL    HW224473   3.688   6.608   6.396  1.1978 -0.8558 -1.3875
 7801SOL     OW24474   7.313   2.865   5.407  0.0570 -0.5278 -0.1252
 7801SOL    HW124475   7.275   2.901   5.327 -0.6091  0.0209  0.4252
 7801SOL    HW224476   7.257   2.790   5.428  0.3811 -0.8229 -0.3018
 7802SOL     OW24477   7.508   2.671   0.766  0.3024  0.2667  0.0608
 7802SOL    HW124478   7.555   2.670   0.850  0.1123 -1.7115  0.1972
 7802SOL    HW224479   7.433   2.729   0.781  0.4116  0.1437  1.1833
 7803SOL     OW24480   4.773   7.614   1.589  0.3878  0.5757 -0.3127
 7803SOL    HW124481   4.786   7.520   1.575  1.2972  0.6107  0.1663
 7803SOL    HW224482   4.686   7.621   1.627  0.0323 -0.0016 -1.0081
 7804SOL     OW24483   7.308   3.316   6.899 -0.4167  0.0836  0.4446
 7804SOL    HW124484   7.247   3.271   6.840  1.6510 -1.6986 -0.4873
 7804SOL    HW224485   7.395   3.294   6.865  0.8097  1.4921  2.4260
 7805SOL     OW24486   5.369   5.893   2.720 -0.0601 -0.7511 -0.1085
 7805SOL    HW124487   5.315   5.814   2.715 -1.1119 -0.0723  0.3357
 7805SOL    HW224488   5.319   5.953   2.775  0.9306  0.0723 -0.0878
 7806SOL     OW24489   0.404   2.605   6.653  0.2523 -0.4178  0.0837
 7806SOL    HW124490   0.426   2.518   6.619  0.5847 -0.1760 -0.3392
 7806SOL    HW224491   0.345   2.588   6.726 -2.2745 -0.8751 -1.9388
 7807SOL     OW24492   4.293   1.696   1.934  0.2140  0.4595  0.6046
 7807SOL    HW124493   4.249   1.675   2.015  2.1187 -0.5295  1.4566
 7807SOL    HW224494   4.383   1.719   1.960  0.7856  0.4686 -1.1763
 7808SOL     OW24495   2.495   2.407   0.987 -0.1032 -0.4800 -0.5465
 7808SOL    HW124496   2.413   2.397   1.035  0.7997 -0.6073  1.0338
 7808SOL    HW224497   2.509   2.502   0.983  0.2078 -0.4923  0.1487
 7809SOL     OW24498   6.510   0.318   5.644  0.5206  0.0180 -0.2634
 7809SOL    HW124499   6.597   0.343   5.676  0.2440  0.4817  0.1382
 7809SOL    HW224500   6.452   0.389   5.674  0.0394 -0.1869 -0.7000
 7810SOL     OW24501   7.882   1.990   1.099 -0.5638 -0.3784  0.9024
 7810SOL    HW124502   7.854   1.913   1.050 -0.6047 -0.9894  1.8663
 7810SOL    HW224503   7.842   2.064   1.053 -0.5689 -0.9353  0.0010
 7811SOL     OW24504   4.876   6.069   5.305 -0.2624 -0.1550  0.3123
 7811SOL    HW124505   4.935   5.995   5.294 -0.2262 -0.0538 -0.2259
 7811SOL    HW224506   4.811   6.039   5.369 -0.4791 -0.7908 -0.1951
 7812SOL     OW24507   3.380   4.410   6.258  0.4438 -0.2938 -0.1016
 7812SOL    HW124508   3.443   4.340   6.239  1.3876  0.8337 -1.2716
 7812SOL    HW224509   3.432   4.490   6.262 -0.7449  0.4968  0.2282
 7813SOL     OW24510   8.013   5.335   2.919  0.4639  0.8199 -0.0354
 7813SOL    HW124511   7.966   5.406   2.964  2.0244  1.5556  0.5182
 7813SOL    HW224512   8.073   5.380   2.860  0.2874 -0.0988 -0.9316
 7814SOL     OW24513   2.103   4.773   4.514  0.1149 -0.3491  0.4423
 7814SOL    HW124514   2.189   4.780   4.473  0.0202 -0.7688  0.1575
 7814SOL    HW224515   2.105   4.689   4.560 -0.4871 -0.8738 -0.4362
 7815SOL     OW24516   5.741   1.980   2.743  0.7218 -0.2064  0.0139
 7815SOL    HW124517   5.805   1.978   2.814  0.2085  0.8360  0.5256
 7815SOL    HW224518   5.667   1.929   2.776  0.3293  0.5887  0.4099
 7816SOL     OW24519   4.411   6.129   6.596 -0.7746 -0.3217 -0.6543
 7816SOL    HW124520   4.400   6.188   6.671 -0.5710 -1.3062  0.1834
 7816SOL    HW224521   4.502   6.139   6.570 -1.1992  1.0665 -1.7011
 7817SOL     OW24522   4.960   4.188   7.079  0.0276  0.3881 -0.1991
 7817SOL    HW124523   4.930   4.140   7.002  1.1754 -1.5592  0.5080
 7817SOL    HW224524   4.955   4.125   7.150  3.2754  0.6795  0.4508
 7818SOL     OW24525   5.331   1.628   2.162 -0.0611  0.2741  0.4595
 7818SOL    HW124526   5.259   1.652   2.220  0.0569 -0.1729  0.8007
 7818SOL    HW224527   5.327   1.691   2.091 -0.2051  0.8403  0.9583
 7819SOL     OW24528   2.561   5.175   8.135  0.0206 -0.4835  0.0365
 7819SOL    HW124529   2.611   5.099   8.166 -2.0584 -1.5867  0.8873
 7819SOL    HW224530   2.606   5.250   8.174  3.3287 -0.9583 -2.3961
 7820SOL     OW24531   5.962   3.551   5.777  0.6436  0.4845  0.5887
 7820SOL    HW124532   5.957   3.458   5.800  0.0722  0.2340 -0.4760
 7820SOL    HW224533   5.914   3.595   5.846  2.5426  0.2063  2.1625
 7821SOL     OW24534   5.810   5.157   1.355 -0.2568 -0.2848  0.0644
 7821SOL    HW124535   5.785   5.113   1.274 -0.3897  0.6658 -0.4186
 7821SOL    HW224536   5.743   5.223   1.369  0.6403  0.6571  0.0555
 7822SOL     OW24537   1.510   1.735   0.179  0.0754  0.2469  0.1923
 7822SOL    HW124538   1.421   1.700   0.188 -0.5232  1.1061 -1.7993
 7822SOL    HW224539   1.548   1.685   0.107  0.7262  0.7907  0.1508
 7823SOL     OW24540   1.715   5.513   5.924 -0.1650 -0.0424 -0.0993
 7823SOL    HW124541   1.790   5.475   5.878 -0.0796 -0.6720  0.5501
 7823SOL    HW224542   1.750   5.542   6.008 -0.8382 -1.2942  0.6466
 7824SOL     OW24543   6.501   3.530   5.363  0.3327  0.3162 -0.3953
 7824SOL    HW124544   6.533   3.472   5.294 -0.1751 -1.0857  0.5130
 7824SOL    HW224545   6.415   3.496   5.386 -0.7279  2.4602 -0.9820
 7825SOL     OW24546   2.752   3.300   3.457  0.1838  0.0463  0.6575
 7825SOL    HW124547   2.820   3.235   3.473  0.5350 -0.2557 -1.6771
 7825SOL    HW224548   2.773   3.373   3.516  1.8770 -0.5061  0.7885
 7826SOL     OW24549   4.481   7.874   3.743 -0.3547  0.1443 -0.0333
 7826SOL    HW124550   4.557   7.909   3.788 -0.4306  0.1361  0.0993
 7826SOL    HW224551   4.422   7.845   3.812  0.1058 -1.1003 -0.1372
 7827SOL     OW24552   0.792   0.544   5.452  0.0083 -0.1718  0.3144
 7827SOL    HW124553   0.869   0.533   5.506  0.8755  0.6041 -0.7196
 7827SOL    HW224554   0.752   0.457   5.449  1.5642 -0.9071 -0.1717
 7828SOL     OW24555   6.515   5.085   7.528 -0.8424 -0.1643 -0.1499
 7828SOL    HW124556   6.485   5.096   7.438  1.9080  2.0451 -0.9404
 7828SOL    HW224557   6.568   5.006   7.526  0.0558  0.4229 -0.7999
 7829SOL     OW24558   1.532   6.492   2.317 -0.2069  0.1627  0.7302
 7829SOL    HW124559   1.563   6.406   2.286 -1.0984  0.4385 -1.0801
 7829SOL    HW224560   1.612   6.544   2.324  0.3017 -0.6832  1.4392
 7830SOL     OW24561   2.029   0.299   3.971  0.1354  0.0562  0.1967
 7830SOL    HW124562   2.094   0.229   3.977 -0.4755 -0.6255 -0.8555
 7830SOL    HW224563   2.080   0.380   3.974  1.2191 -0.4636 -1.8963
 7831SOL     OW24564   4.938   3.034   3.075  0.0653  0.0169 -0.1281
 7831SOL    HW124565   4.864   2.979   3.101  1.3004 -2.0476 -0.7427
 7831SOL    HW224566   4.899   3.101   3.019 -1.6077  0.2794  1.2520
 7832SOL     OW24567   2.609   1.035   1.677 -0.4941  0.0077  0.2336
 7832SOL    HW124568   2.567   1.005   1.758  1.3726  0.1370  1.3027
 7832SOL    HW224569   2.614   1.130   1.686  0.8231 -0.0731  0.5720
 7833SOL     OW24570   7.138   7.892   7.905 -0.4920  0.2068  0.0722
 7833SOL    HW124571   7.082   7.967   7.922  0.3402  1.3990 -2.1603
 7833SOL    HW224572   7.188   7.881   7.986 -1.4423  1.3186  0.8400
 7834SOL     OW24573   5.498   5.089   3.760  0.2802  0.2181 -0.0051
 7834SOL    HW124574   5.523   5.012   3.812 -2.2262 -1.3027 -0.9022
 7834SOL    HW224575   5.492   5.057   3.670 -0.6409  1.4999 -0.4384
 7835SOL     OW24576   7.128   1.136   3.093  0.3178  0.5936  0.3633
 7835SOL    HW124577   7.167   1.193   3.026 -0.9555  0.9145 -0.1280
 7835SOL    HW224578   7.128   1.049   3.054  1.5806  0.3584  0.8262
 7836SOL     OW24579   1.653   4.983   3.124  0.5917 -0.2002 -0.1569
 7836SOL    HW124580   1.745   4.968   3.101  0.8570  0.1793  0.6422
 7836SOL    HW224581   1.616   5.024   3.046  1.7272  1.9911  0.3636
 7837SOL     OW24582   2.712   0.451   0.247  0.0064 -0.3727  0.2459
 7837SOL    HW124583   2.672   0.455   0.334 -0.3622 -0.3191  0.0795
 7837SOL    HW224584   2.785   0.513   0.251  1.6427 -2.2760  1.3213
 7838SOL     OW24585   4.373   5.917   7.975 -0.0087  0.1315  0.0633
 7838SOL    HW124586   4.427   5.905   8.053 -1.5269 -0.0795  1.1162
 7838SOL    HW224587   4.335   5.831   7.959 -2.4713  0.9278  1.2291
 7839SOL     OW24588   5.588   5.133   4.893  0.3454  0.2682  0.3815
 7839SOL    HW124589   5.538   5.213   4.911  0.1533  0.4242 -0.7350
 7839SOL    HW224590   5.532   5.083   4.834  0.4486 -0.7232  1.1113
 7840SOL     OW24591   7.574   1.856   5.921 -1.2966 -0.1050 -0.4223
 7840SOL    HW124592   7.543   1.932   5.873  0.8891  0.6288 -0.7809
 7840SOL    HW224593   7.622   1.893   5.995  0.1821 -1.1025 -0.8542
 7841SOL     OW24594   1.099   6.874   1.432  0.5681  0.4673 -0.0232
 7841SOL    HW124595   1.109   6.783   1.460 -0.3340  0.5803  0.7093
 7841SOL    HW224596   1.038   6.869   1.359 -0.4922  0.5868  0.8246
 7842SOL     OW24597   5.671   6.387   5.276  0.0173 -0.3373 -0.3932
 7842SOL    HW124598   5.718   6.470   5.268 -0.3963 -0.0089  0.4558
 7842SOL    HW224599   5.593   6.409   5.327  0.2974 -1.4010  0.5074
 7843SOL     OW24600   3.729   0.912   1.687 -0.1383  0.2969  0.6351
 7843SOL    HW124601   3.678   0.841   1.647  1.2586 -0.7599  0.6445
 7843SOL    HW224602   3.797   0.867   1.738 -0.2686  1.6368  2.0752
 7844SOL     OW24603   8.146   0.503   2.272 -0.1181  0.5764  0.1627
 7844SOL    HW124604   8.101   0.568   2.326  0.2304 -0.0430  1.2229
 7844SOL    HW224605   8.078   0.441   2.248 -0.4360  1.2640 -0.7866
 7845SOL     OW24606   3.662   2.660   4.587 -0.2631  0.4201 -0.4519
 7845SOL    HW124607   3.709   2.621   4.660 -0.5695  1.1879  0.1776
 7845SOL    HW224608   3.695   2.750   4.582 -2.4582  1.3709  0.7773
 7846SOL     OW24609   4.376   2.466   7.926 -0.3718  0.2590  0.2920
 7846SOL    HW124610   4.282   2.446   7.921 -0.2646 -0.0574 -0.6511
 7846SOL    HW224611   4.419   2.386   7.898  0.1295  0.9241 -0.9103
 7847SOL     OW24612   7.157   2.708   7.781 -0.1955 -0.4550 -0.3904
 7847SOL    HW124613   7.234   2.661   7.748  1.0142  0.6197  0.7785
 7847SOL    HW224614   7.161   2.697   7.876 -1.4976 -0.3718 -0.3108
 7848SOL     OW24615   6.429   1.324   2.645  0.4697  0.1138 -0.6340
 7848SOL    HW124616   6.420   1.247   2.587 -0.2705  0.4767 -1.0144
 7848SOL    HW224617   6.452   1.396   2.586  1.4385  0.1442 -0.2425
 7849SOL     OW24618   4.545   6.688   3.662  0.1800 -0.5014 -0.6860
 7849SOL    HW124619   4.524   6.611   3.609  1.6813 -2.2311  1.0561
 7849SOL    HW224620   4.524   6.662   3.751  0.6367  1.1538 -0.0653
 7850SOL     OW24621   2.411   0.911   3.149  0.6697 -0.6456 -0.4236
 7850SOL    HW124622   2.409   1.006   3.163  2.0056 -0.7505  0.6772
 7850SOL    HW224623   2.321   0.889   3.126  0.4217  0.9433 -1.1765
 7851SOL     OW24624   7.236   6.780   0.710  0.1934 -0.2816 -0.5630
 7851SOL    HW124625   7.211   6.734   0.629 -0.5803  1.4430 -1.3529
 7851SOL    HW224626   7.263   6.867   0.680 -0.7789  0.6283  1.0956
 7852SOL     OW24627   1.001   2.071   5.303  0.0342  0.2441 -0.7687
 7852SOL    HW124628   1.095   2.071   5.321 -0.0324 -1.6332 -0.1113
 7852SOL    HW224629   0.993   2.094   5.211  0.9658  2.4340 -0.3605
 7853SOL     OW24630   1.184   4.475   1.507  0.0321 -0.2343  0.0764
 7853SOL    HW124631   1.137   4.555   1.531  2.2600  0.7730  1.4167
 7853SOL    HW224632   1.199   4.431   1.591 -0.4014 -1.6387 -0.5656
 7854SOL     OW24633   0.367   3.262   4.432  0.6566 -0.9070  0.3949
 7854SOL    HW124634   0.375   3.356   4.448  1.6618 -0.8493 -0.3735
 7854SOL    HW224635   0.413   3.247   4.350 -0.2516 -1.9411  0.0479
 7855SOL     OW24636   6.069   7.949   2.583  0.0334 -0.0734  0.9323
 7855SOL    HW124637   6.094   8.040   2.601  0.9081 -0.4642  1.8083
 7855SOL    HW224638   5.974   7.951   2.573  0.2102  1.1938 -0.7300
 7856SOL     OW24639   6.309   3.164   4.485 -0.4442 -0.0912  0.8453
 7856SOL    HW124640   6.344   3.095   4.541 -1.9625 -0.8963  0.8492
 7856SOL    HW224641   6.266   3.224   4.545  1.4706  1.3025  0.9184
 7857SOL     OW24642   2.359   3.244   4.782 -0.1580  0.2460 -0.0670
 7857SOL    HW124643   2.301   3.218   4.711  0.1103 -2.1602  0.5204
 7857SOL    HW224644   2.427   3.177   4.783  0.1689  0.5496  2.0937
 7858SOL     OW24645   1.359   5.138   1.885  0.3067  0.2940 -0.4233
 7858SOL    HW124646   1.326   5.081   1.954  0.4350  0.4017 -0.2740
 7858SOL    HW224647   1.285   5.146   1.824 -0.2558  1.2521  0.3550
 7859SOL     OW24648   1.253   4.889   4.224  0.3249 -0.0190 -0.0374
 7859SOL    HW124649   1.215   4.817   4.274 -1.6490  0.8841 -0.1650
 7859SOL    HW224650   1.229   4.968   4.273  0.9769  0.6760 -0.8068
 7860SOL     OW24651   8.022   0.678   0.526  0.0194 -0.1887  0.0303
 7860SOL    HW124652   7.984   0.614   0.586 -1.3199  0.0036 -0.5726
 7860SOL    HW224653   7.955   0.747   0.520  0.3702  0.0694 -1.2223
 7861SOL     OW24654   0.330   6.955   0.193 -0.1306 -0.5318  0.1401
 7861SOL    HW124655   0.380   6.920   0.120 -0.5752  1.9176 -1.4785
 7861SOL    HW224656   0.238   6.943   0.168 -0.2959 -0.4811  0.7069
 7862SOL     OW24657   2.852   5.107   4.784 -0.3590 -0.3849 -0.5663
 7862SOL    HW124658   2.881   5.168   4.717  0.2921  0.1966  0.2294
 7862SOL    HW224659   2.757   5.106   4.776 -0.3747  0.7168 -0.6082
 7863SOL     OW24660   1.655   1.803   7.448 -0.1483 -0.8439  0.2937
 7863SOL    HW124661   1.571   1.800   7.402  0.4458 -0.7583 -0.8171
 7863SOL    HW224662   1.692   1.889   7.427 -0.9911  0.2916  3.0379
 7864SOL     OW24663   2.035   5.373   4.543 -0.1147  0.2265 -0.0015
 7864SOL    HW124664   2.058   5.313   4.614  0.8629 -0.2532 -0.6935
 7864SOL    HW224665   2.119   5.393   4.501 -0.3256  2.5315  0.5446
 7865SOL     OW24666   6.017   6.471   6.740  0.9757 -0.1337  0.3465
 7865SOL    HW124667   5.971   6.431   6.666 -1.3094  0.5529  1.2994
 7865SOL    HW224668   6.050   6.396   6.790 -0.5844 -0.7638  0.4919
 7866SOL     OW24669   2.860   7.270   2.675 -0.6980 -0.1890  0.1935
 7866SOL    HW124670   2.835   7.289   2.766  0.5390 -0.1500  0.5474
 7866SOL    HW224671   2.921   7.196   2.682 -0.4758 -0.0861 -0.5938
 7867SOL     OW24672   2.843   5.601   5.682 -0.2106  0.0669  0.2603
 7867SOL    HW124673   2.906   5.538   5.649  1.2368  1.9269 -0.7583
 7867SOL    HW224674   2.758   5.567   5.655  0.4955 -1.5163 -0.0634
 7868SOL     OW24675   7.201   4.704   0.792  0.1228 -0.1487 -0.3175
 7868SOL    HW124676   7.231   4.644   0.724 -0.9630 -0.5461 -0.4665
 7868SOL    HW224677   7.129   4.752   0.752 -0.1156  0.0600  0.3452
 7869SOL     OW24678   3.381   8.106   6.607 -0.6285 -0.0294 -0.3015
 7869SOL    HW124679   3.290   8.097   6.635 -0.7659 -2.6704 -1.2790
 7869SOL    HW224680   3.383   8.187   6.555 -1.3254  2.5631  3.3285
 7870SOL     OW24681   4.577   1.976   0.960 -0.1252  0.0497 -0.3221
 7870SOL    HW124682   4.485   1.989   0.981  0.1791  0.2529  0.9531
 7870SOL    HW224683   4.594   2.036   0.887 -0.1487  2.8163  1.7600
 7871SOL     OW24684   7.851   4.772   3.604  0.0133 -0.4172 -0.0971
 7871SOL    HW124685   7.827   4.735   3.519  0.2212 -2.0688  0.5213
 7871SOL    HW224686   7.894   4.855   3.583  0.1495 -0.8367 -1.6051
 7872SOL     OW24687   5.163   2.986   3.652 -0.6488 -0.3304  0.9366
 7872SOL    HW124688   5.083   2.966   3.700 -0.2855  0.1253  1.7464
 7872SOL    HW224689   5.146   3.071   3.612 -0.8625 -0.6017  0.4406
 7873SOL     OW24690   0.103   6.910   6.843  0.2050 -0.2143  0.2573
 7873SOL    HW124691   0.121   6.987   6.789  2.1081 -0.6846  0.1499
 7873SOL    HW224692   0.090   6.839   6.781 -0.8751 -0.1310  0.3717
 7874SOL     OW24693   6.787   3.333   6.992 -0.2051  0.7444  0.2483
 7874SOL    HW124694   6.858   3.269   6.998 -0.6642  0.1018 -0.7904
 7874SOL    HW224695   6.780   3.370   7.080 -2.4611 -3.3689  2.0868
 7875SOL     OW24696   8.150   6.558   7.835  0.2060  0.1530 -0.0569
 7875SOL    HW124697   8.101   6.514   7.765  1.2156 -0.0357 -0.6725
 7875SOL    HW224698   8.239   6.566   7.800  0.6344  0.4197  1.0518
 7876SOL     OW24699   1.198   6.291   2.713 -0.0738  0.1137  0.6859
 7876SOL    HW124700   1.119   6.314   2.762 -0.6881 -1.0390  0.2807
 7876SOL    HW224701   1.197   6.195   2.709  0.8299  0.1172 -0.1666
 7877SOL     OW24702   6.511   0.048   3.119  0.2784 -0.0039  0.0477
 7877SOL    HW124703   6.593   0.040   3.168  0.1760 -0.4150  0.1585
 7877SOL    HW224704   6.534   0.094   3.039  0.5298  0.2961  0.2903
 7878SOL     OW24705   6.962   5.598   3.114 -0.3133 -0.0995  0.3843
 7878SOL    HW124706   6.879   5.635   3.083 -0.5146 -0.0167  0.9963
 7878SOL    HW224707   7.020   5.673   3.123  0.1398 -0.2682 -0.9469
 7879SOL     OW24708   3.841   6.047   6.387 -0.2594  0.7552  0.5278
 7879SOL    HW124709   3.783   6.097   6.444  0.8612 -1.4720  3.9033
 7879SOL    HW224710   3.788   5.971   6.361  0.2197  0.1317  1.3305
 7880SOL     OW24711   6.371   5.382   0.689  0.2167  0.0549  0.6128
 7880SOL    HW124712   6.385   5.341   0.775 -1.1306 -1.9503 -0.0544
 7880SOL    HW224713   6.454   5.425   0.670  0.5184  0.6785  2.9542
 7881SOL     OW24714   4.498   7.585   4.051 -0.4592 -0.0929  0.1695
 7881SOL    HW124715   4.509   7.574   4.145  0.4832  2.0419  0.3828
 7881SOL    HW224716   4.571   7.537   4.012 -0.1676 -0.0263  0.6210
 7882SOL     OW24717   7.232   2.328   5.204 -0.1090 -0.4480 -0.4393
 7882SOL    HW124718   7.327   2.322   5.189 -0.0003 -1.1096  0.3951
 7882SOL    HW224719   7.198   2.243   5.175 -0.2844 -0.6300  0.2720
 7883SOL     OW24720   4.935   4.493   3.462 -0.4966  0.5069 -0.0320
 7883SOL    HW124721   5.005   4.557   3.453 -0.8058  0.9330  0.5385
 7883SOL    HW224722   4.881   4.506   3.384 -0.2013  0.4907 -0.2421
 7884SOL     OW24723   2.416   7.611   5.304  0.1605  0.3434 -0.8405
 7884SOL    HW124724   2.468   7.531   5.296 -0.8955 -0.5040  0.4218
 7884SOL    HW224725   2.408   7.626   5.398 -2.8750 -0.2753 -0.8838
 7885SOL     OW24726   8.083   2.213   2.265 -0.0282  0.0975 -0.6711
 7885SOL    HW124727   8.064   2.144   2.202 -2.7685  0.3505 -0.2477
 7885SOL    HW224728   8.095   2.292   2.212  0.8772 -0.2576 -1.0183
 7886SOL     OW24729   3.839   5.364   7.682 -0.3729 -0.2811  0.0857
 7886SOL    HW124730   3.833   5.355   7.777 -0.8360 -0.2930  0.0543
 7886SOL    HW224731   3.932   5.383   7.666 -0.3646  0.1059  0.5723
 7887SOL     OW24732   4.464   5.778   2.831  0.1535  0.0680 -0.8858
 7887SOL    HW124733   4.542   5.724   2.839 -0.2569 -0.5019 -0.6091
 7887SOL    HW224734   4.423   5.749   2.749  0.6734  0.9620 -1.4694
 7888SOL     OW24735   3.451   7.348   4.096 -0.4086 -0.0979 -0.3780
 7888SOL    HW124736   3.389   7.414   4.068  0.0760  0.1434 -0.8987
 7888SOL    HW224737   3.426   7.268   4.049 -0.0783  0.1027 -0.8948
 7889SOL     OW24738   0.396   4.121   3.768 -0.1895 -0.5172  0.1169
 7889SOL    HW124739   0.422   4.139   3.858 -1.4088  0.6691  0.2626
 7889SOL    HW224740   0.305   4.093   3.774 -1.2403  2.3070 -0.9261
 7890SOL     OW24741   5.493   0.011   3.377 -0.3459  0.0399  0.6116
 7890SOL    HW124742   5.548  -0.010   3.302  0.1186  2.2297  0.2791
 7890SOL    HW224743   5.518  -0.052   3.444  0.8260 -0.5329 -0.3410
 7891SOL     OW24744   3.759   3.363   6.341 -0.1890  0.2160 -0.1288
 7891SOL    HW124745   3.846   3.338   6.310  0.1132  3.0746 -2.0175
 7891SOL    HW224746   3.699   3.328   6.275 -0.3965 -0.7684  0.5621
 7892SOL     OW24747   2.386   6.243   2.972 -0.3016  0.6431 -0.0821
 7892SOL    HW124748   2.309   6.263   2.919 -0.7542 -1.1176 -0.1485
 7892SOL    HW224749   2.397   6.320   3.027 -2.6387  0.6264  0.5297
 7893SOL     OW24750   1.308   3.872   5.483 -0.1123 -0.0745  0.3471
 7893SOL    HW124751   1.340   3.851   5.571  0.8601 -1.3039 -0.2793
 7893SOL    HW224752   1.214   3.884   5.494  0.0937  0.5428  1.6825
 7894SOL     OW24753   6.537   3.128   7.334 -0.0315  0.1141 -0.5222
 7894SOL    HW124754   6.557   3.072   7.259 -0.2327 -0.7617  0.0608
 7894SOL    HW224755   6.618   3.129   7.385 -0.5773 -1.1385  0.3964
 7895SOL     OW24756   1.264   6.022   3.365 -0.8065  0.0634 -0.2970
 7895SOL    HW124757   1.344   6.015   3.418  0.0492  1.3319 -1.3429
 7895SOL    HW224758   1.245   5.933   3.338  0.8207 -0.1712 -0.7844
 7896SOL     OW24759   6.538   1.763   1.530 -0.4691 -0.0775  0.3504
 7896SOL    HW124760   6.447   1.754   1.503 -0.7133  0.6444  0.9041
 7896SOL    HW224761   6.546   1.704   1.606 -0.6039  0.2174  0.5947
 7897SOL     OW24762   5.975   6.984   3.119  0.5372  0.0284 -0.0531
 7897SOL    HW124763   5.885   6.963   3.144  0.5946 -0.5161 -0.2932
 7897SOL    HW224764   6.028   6.954   3.192  0.5366  0.2480  0.0392
 7898SOL     OW24765   3.898   4.656   2.761 -0.4554  0.4578  0.0945
 7898SOL    HW124766   3.977   4.686   2.716 -0.0404 -0.5390  0.1416
 7898SOL    HW224767   3.836   4.729   2.751  0.1435  0.8691 -0.7666
 7899SOL     OW24768   4.401   1.633   0.831  1.1043 -0.2362 -0.3757
 7899SOL    HW124769   4.489   1.606   0.807  1.4353 -1.0765  1.5661
 7899SOL    HW224770   4.344   1.564   0.797  1.4638 -0.9657  0.4793
 7900SOL     OW24771   1.598   3.101   2.132 -0.3379  0.2693 -0.6545
 7900SOL    HW124772   1.683   3.110   2.176 -1.1185 -1.9457  1.5249
 7900SOL    HW224773   1.553   3.183   2.149  0.0511  0.1223  1.3118
 7901SOL     OW24774   3.163   7.984   0.622 -0.2122 -0.3971  0.0898
 7901SOL    HW124775   3.134   7.914   0.563  0.2584  0.6529 -1.4450
 7901SOL    HW224776   3.256   7.965   0.635 -0.4341 -0.9340  0.9600
 7902SOL     OW24777   2.023   4.090   3.598 -0.5271 -0.3896  0.0087
 7902SOL    HW124778   2.107   4.132   3.615 -0.4775 -0.1347 -0.8354
 7902SOL    HW224779   2.038   4.038   3.519 -1.5447  0.7952 -1.0073
 7903SOL     OW24780   6.151   4.005   0.793  0.0239  0.5953  0.0252
 7903SOL    HW124781   6.133   3.929   0.737  1.0841 -0.4924  1.1132
 7903SOL    HW224782   6.065   4.039   0.815 -0.5432 -1.0653  0.5449
 7904SOL     OW24783   1.290   4.399   0.166  0.5163 -0.7071 -0.1459
 7904SOL    HW124784   1.357   4.381   0.232  0.6064 -0.8309 -0.2683
 7904SOL    HW224785   1.211   4.419   0.216  0.7940  0.0451  0.0082
 7905SOL     OW24786   5.897   0.653   6.546 -0.5376 -0.5363 -0.3440
 7905SOL    HW124787   5.898   0.734   6.494  0.2743 -1.0453 -1.1413
 7905SOL    HW224788   5.975   0.659   6.601 -0.3464 -0.8839 -0.5761
 7906SOL     OW24789   4.346   2.735   7.828 -0.3718  0.2978 -0.0988
 7906SOL    HW124790   4.366   2.789   7.904 -0.8426 -0.1162  0.3318
 7906SOL    HW224791   4.380   2.648   7.851 -2.1650 -0.3077  0.4628
 7907SOL     OW24792   5.950   6.997   8.013 -0.1005 -0.4828 -0.1665
 7907SOL    HW124793   5.961   7.009   7.919  1.9041  0.7693  0.1867
 7907SOL    HW224794   6.038   6.980   8.046 -0.5510  0.5485  1.6750
 7908SOL     OW24795   2.517   2.422   1.847  0.8546 -0.6560  0.2064
 7908SOL    HW124796   2.488   2.472   1.923  1.6425 -0.0489  0.1288
 7908SOL    HW224797   2.610   2.443   1.839  0.6052  0.0011 -1.4440
 7909SOL     OW24798   0.301   1.973   2.210  0.1152 -0.1602  0.2065
 7909SOL    HW124799   0.217   1.937   2.238 -0.6031  0.6660 -0.8374
 7909SOL    HW224800   0.304   2.061   2.246  0.5353 -0.1750  0.2238
 7910SOL     OW24801   7.417   4.758   6.566  0.4071  0.6264  0.0902
 7910SOL    HW124802   7.505   4.721   6.574  0.3575  0.6042  0.5903
 7910SOL    HW224803   7.392   4.744   6.475  0.0198 -1.3920  0.4727
 7911SOL     OW24804   1.006   2.989   3.364  0.1196  0.0699  0.1481
 7911SOL    HW124805   0.937   3.039   3.320 -0.0849  1.1189  1.6214
 7911SOL    HW224806   0.960   2.937   3.430  0.7387  1.0582  1.3975
 7912SOL     OW24807   7.703   6.867   1.188  0.1308 -1.0201  0.2338
 7912SOL    HW124808   7.730   6.952   1.153 -0.0540 -1.0690 -0.0262
 7912SOL    HW224809   7.649   6.828   1.119 -0.7357 -0.8676  0.8112
 7913SOL     OW24810   7.034   6.467   6.270 -0.0400 -0.5207 -0.1413
 7913SOL    HW124811   7.040   6.396   6.334 -1.0683  1.0102  1.7688
 7913SOL    HW224812   7.074   6.542   6.314  1.4888  0.0108 -2.3027
 7914SOL     OW24813   2.524   1.219   3.440 -0.6186 -0.4749 -0.0135
 7914SOL    HW124814   2.568   1.218   3.355  0.9924 -0.4760  0.7773
 7914SOL    HW224815   2.536   1.308   3.472 -0.3990 -0.7286  0.6133
 7915SOL     OW24816   3.609   1.854   1.527 -0.2027 -0.2887  0.9479
 7915SOL    HW124817   3.559   1.809   1.594 -0.3905 -1.1785  0.2272
 7915SOL    HW224818   3.674   1.791   1.498 -0.9217 -0.3876 -0.5771
 7916SOL     OW24819   7.465   2.251   7.065 -0.5722 -0.4961  0.2952
 7916SOL    HW124820   7.376   2.285   7.080 -0.2963 -0.5448  2.2735
 7916SOL    HW224821   7.496   2.227   7.152  1.2348 -0.8964 -0.4287
 7917SOL     OW24822   1.258   2.516   5.861 -0.1205 -0.1926  0.2977
 7917SOL    HW124823   1.197   2.553   5.797  0.2254  1.0518  0.6728
 7917SOL    HW224824   1.238   2.562   5.942  2.5760  1.7146  0.0130
 7918SOL     OW24825   7.761   4.681   4.826  0.2250 -0.4710  0.5762
 7918SOL    HW124826   7.768   4.733   4.906 -0.4328 -0.3783  0.5770
 7918SOL    HW224827   7.831   4.714   4.770  0.8075 -0.6516  1.1704
 7919SOL     OW24828   5.949   8.148   3.218  0.0193 -0.1016 -0.0780
 7919SOL    HW124829   5.976   8.158   3.127  0.6802  0.9829  0.2181
 7919SOL    HW224830   6.005   8.209   3.267  0.0638 -1.0628  1.1327
 7920SOL     OW24831   4.068   2.783   1.350  0.0971 -0.2348  0.1224
 7920SOL    HW124832   4.053   2.822   1.436 -2.3915 -2.2511  0.7392
 7920SOL    HW224833   4.141   2.722   1.363 -0.4901 -0.7818  0.9203
 7921SOL     OW24834   0.555   4.777   5.499 -0.0110  0.0437 -0.3944
 7921SOL    HW124835   0.637   4.809   5.535 -0.9127  1.3351  0.6311
 7921SOL    HW224836   0.488   4.834   5.538 -1.4555 -1.3827 -0.6772
 7922SOL     OW24837   8.048   0.313   4.085  0.2798 -0.0005  0.1552
 7922SOL    HW124838   8.005   0.364   4.153 -0.0465  0.0353 -0.0714
 7922SOL    HW224839   7.998   0.333   4.006  1.1621  0.6128 -0.2650
 7923SOL     OW24840   2.780   0.206   3.025  0.2357 -0.3729 -0.0230
 7923SOL    HW124841   2.752   0.135   2.968 -0.2138  0.4266 -0.8342
 7923SOL    HW224842   2.705   0.266   3.025  0.8626  0.4192  0.0934
 7924SOL     OW24843   2.034   5.580   3.313 -0.2269 -0.1093  0.0572
 7924SOL    HW124844   2.045   5.657   3.256 -1.7859 -0.1216 -0.3110
 7924SOL    HW224845   1.998   5.615   3.394  0.9212 -0.2328  0.6347
 7925SOL     OW24846   0.810   1.404   1.974  0.4674 -0.1244  0.1559
 7925SOL    HW124847   0.761   1.389   1.893  0.0777  1.0020  0.1663
 7925SOL    HW224848   0.820   1.317   2.012 -1.9137 -0.3599  0.3643
 7926SOL     OW24849   3.647   1.089   1.344  0.0639  0.4721  0.6275
 7926SOL    HW124850   3.670   1.180   1.328  1.6508 -0.0723 -0.3219
 7926SOL    HW224851   3.591   1.092   1.422  2.7753  1.9595  2.6826
 7927SOL     OW24852   5.589   1.033   5.792 -0.0195  0.1638 -0.0591
 7927SOL    HW124853   5.559   0.993   5.874 -2.1285  0.1907 -0.7438
 7927SOL    HW224854   5.511   1.076   5.757  1.5807  2.8537 -0.5723
 7928SOL     OW24855   6.011   3.611   2.213 -0.2233 -0.0384  0.0293
 7928SOL    HW124856   5.926   3.577   2.184 -0.7154 -0.2057  1.5814
 7928SOL    HW224857   5.992   3.659   2.294  1.3480 -1.3759  1.2660
 7929SOL     OW24858   7.920   2.879   6.910  0.2837 -0.3692 -0.4252
 7929SOL    HW124859   7.885   2.832   6.834 -0.6128 -0.5824  0.0999
 7929SOL    HW224860   7.847   2.881   6.972  0.6563  0.7647 -0.0024
 7930SOL     OW24861   1.519   7.174   7.125  0.3225 -0.0620 -0.0351
 7930SOL    HW124862   1.453   7.163   7.193  1.6440 -1.7626  1.0484
 7930SOL    HW224863   1.502   7.261   7.088 -1.6791  0.0629  1.0742
 7931SOL     OW24864   1.374   4.282   2.789 -0.0295  0.1175 -0.6256
 7931SOL    HW124865   1.376   4.243   2.876 -2.1280  0.3602 -0.4147
 7931SOL    HW224866   1.427   4.223   2.735  2.3120  0.5946  0.9877
 7932SOL     OW24867   5.402   4.730   1.424 -0.2012 -0.3753  0.5066
 7932SOL    HW124868   5.415   4.824   1.408 -0.1671 -0.2387  1.2937
 7932SOL    HW224869   5.309   4.723   1.445 -0.0615 -0.4064  1.1420
 7933SOL     OW24870   1.644   4.305   5.917 -0.1526 -0.2368 -0.2919
 7933SOL    HW124871   1.661   4.311   5.823 -0.6348 -0.6823 -0.4163
 7933SOL    HW224872   1.726   4.330   5.958  0.5818 -1.5685 -0.8597
 7934SOL     OW24873   1.953   3.045   4.398 -0.0090 -0.7363  0.7615
 7934SOL    HW124874   1.939   3.030   4.305  1.1116 -1.0049  0.6166
 7934SOL    HW224875   1.972   3.138   4.405  1.1884 -0.9465  0.5275
 7935SOL     OW24876   1.740   3.268   7.796  0.1900  0.8994 -0.3645
 7935SOL    HW124877   1.756   3.230   7.883  1.7027 -0.0983 -1.0267
 7935SOL    HW224878   1.670   3.215   7.759  0.5225  0.3998 -0.2883
 7936SOL     OW24879   2.005   5.134   3.348 -0.1740  0.0368 -0.1586
 7936SOL    HW124880   1.929   5.076   3.341 -0.0528 -0.3574  1.4132
 7936SOL    HW224881   1.992   5.179   3.431  1.2300  0.0818  0.0509
 7937SOL     OW24882   0.232   7.332   6.941  0.0229  0.0847 -0.6723
 7937SOL    HW124883   0.320   7.298   6.931  0.9391  1.7570  1.0704
 7937SOL    HW224884   0.244   7.423   6.969 -2.2542  0.4614 -0.7120
 7938SOL     OW24885   0.057   3.134   2.073  0.0644 -0.0446  0.4944
 7938SOL    HW124886   0.107   3.183   2.138  1.1337  0.5120 -0.7041
 7938SOL    HW224887   0.119   3.068   2.041  0.0185  0.5565 -0.9085
 7939SOL     OW24888   1.545   0.946   0.066  0.9105  0.4855 -0.0083
 7939SOL    HW124889   1.535   1.017   0.130  1.0874 -1.7176  2.6728
 7939SOL    HW224890   1.456   0.913   0.052  1.1551 -1.7209  2.6093
 7940SOL     OW24891   0.454   5.378   0.798 -0.0165  0.6371  0.0608
 7940SOL    HW124892   0.400   5.410   0.870 -1.7955  2.1798 -1.8310
 7940SOL    HW224893   0.525   5.443   0.792  1.1723 -0.4627  1.4650
 7941SOL     OW24894   4.872   6.066   6.949 -0.1296  0.1307  0.5119
 7941SOL    HW124895   4.831   6.035   6.868 -2.5260  2.4994  0.6637
 7941SOL    HW224896   4.910   5.988   6.989 -0.6489 -1.4446 -1.8824
 7942SOL     OW24897   3.238   4.837   5.656 -0.8706  0.5468 -0.0070
 7942SOL    HW124898   3.177   4.763   5.659 -1.0694  0.6261 -1.3918
 7942SOL    HW224899   3.296   4.817   5.582  0.8147  0.4684  1.2697
 7943SOL     OW24900   0.323   2.009   6.799 -0.3888  0.2047  0.7861
 7943SOL    HW124901   0.270   1.929   6.797  1.8695 -1.3756  0.4471
 7943SOL    HW224902   0.395   1.991   6.739  0.1456  2.5721  0.6290
 7944SOL     OW24903   4.037   5.193   5.442  0.1373  0.9938 -0.3544
 7944SOL    HW124904   4.007   5.193   5.351 -0.3601 -1.1358 -0.2684
 7944SOL    HW224905   3.998   5.271   5.480 -0.7210  1.2446 -1.6596
 7945SOL     OW24906   7.871   6.151   5.981 -0.4494  0.5848 -0.2209
 7945SOL    HW124907   7.938   6.083   5.992 -1.1955 -0.2366 -0.6445
 7945SOL    HW224908   7.915   6.232   6.009  0.5387 -0.0178  0.0445
 7946SOL     OW24909   4.100   4.270   3.807  0.0617  0.5639  0.0222
 7946SOL    HW124910   4.162   4.341   3.792 -0.8778  1.6335  0.9419
 7946SOL    HW224911   4.014   4.309   3.790 -0.4741 -0.3724  0.4698
 7947SOL     OW24912   2.592   3.467   6.577 -0.0654  0.8879  0.0648
 7947SOL    HW124913   2.667   3.525   6.583 -0.5601  1.8174 -1.9111
 7947SOL    HW224914   2.618   3.400   6.513 -0.5367  0.6205  0.1480
 7948SOL     OW24915   0.943   0.254   1.862  0.0618 -0.2053 -0.5757
 7948SOL    HW124916   0.997   0.184   1.826  2.4459  1.0052  0.4269
 7948SOL    HW224917   0.972   0.263   1.953 -2.0777  0.3320  0.1262
 7949SOL     OW24918   4.485   4.925   4.981  0.1796 -0.2370  0.2239
 7949SOL    HW124919   4.439   4.841   4.991 -0.9840  0.3809  0.3094
 7949SOL    HW224920   4.433   4.986   5.034  1.6070  0.3302  1.0120
 7950SOL     OW24921   7.981   4.276   2.788 -0.2194 -0.0937  0.3082
 7950SOL    HW124922   8.043   4.314   2.850 -0.8609  3.2504 -0.9287
 7950SOL    HW224923   8.004   4.315   2.704 -1.5354 -1.8652 -0.9535
 7951SOL     OW24924   4.004   2.660   6.173  0.2587 -0.3192  0.5147
 7951SOL    HW124925   3.938   2.598   6.205  0.0967 -1.6148 -2.0258
 7951SOL    HW224926   4.057   2.608   6.112  0.7921  1.7640 -0.8884
 7952SOL     OW24927   3.927   6.931   6.748  0.5468  0.0703 -0.3026
 7952SOL    HW124928   3.843   6.885   6.754  1.8954 -2.9552 -2.1070
 7952SOL    HW224929   3.932   6.960   6.658  0.7851  1.7213  0.2171
 7953SOL     OW24930   4.115   0.947   1.903  0.0326 -0.3835 -0.7320
 7953SOL    HW124931   4.075   1.024   1.862 -1.2447 -1.1102 -0.9185
 7953SOL    HW224932   4.201   0.977   1.931 -1.3046  1.8721  1.4348
 7954SOL     OW24933   6.484   2.377   8.103  0.1405  0.6228 -0.2691
 7954SOL    HW124934   6.453   2.367   8.013  0.4210  0.1260 -0.3120
 7954SOL    HW224935   6.579   2.380   8.096  0.4052 -2.6526  0.2548
 7955SOL     OW24936   3.698   0.931   3.705 -0.1781 -0.5642  0.7325
 7955SOL    HW124937   3.717   1.024   3.707 -1.1216 -0.3757  1.4362
 7955SOL    HW224938   3.702   0.903   3.796 -4.5389 -0.1834  1.2632
 7956SOL     OW24939   2.087   3.844   0.578  0.8508  0.1018  0.5940
 7956SOL    HW124940   2.097   3.869   0.486  1.0835  0.3849  0.6965
 7956SOL    HW224941   2.015   3.900   0.609 -0.4655 -1.2413  0.1180
 7957SOL     OW24942   7.779   6.678   0.584  0.1731  0.2510  0.3253
 7957SOL    HW124943   7.822   6.595   0.605 -0.9077 -0.2273  0.6942
 7957SOL    HW224944   7.761   6.719   0.669  0.9393  1.0075  0.1428
 7958SOL     OW24945   5.278   6.172   8.036 -0.8845  0.4708  0.0350
 7958SOL    HW124946   5.244   6.132   8.116  0.5491 -0.0108  0.4385
 7958SOL    HW224947   5.200   6.192   7.984 -1.8396  0.6318  1.4639
 7959SOL     OW24948   7.276   5.950   7.757  0.2143 -0.2252  0.1912
 7959SOL    HW124949   7.367   5.958   7.786 -0.3449  0.7439  1.8013
 7959SOL    HW224950   7.257   6.034   7.714  0.6199 -1.1464 -1.9394
 7960SOL     OW24951   0.131   0.026   0.098  0.1437  0.2187 -0.0419
 7960SOL    HW124952   0.213   0.058   0.136  0.4906 -0.3705 -0.2818
 7960SOL    HW224953   0.124   0.071   0.014  0.8943 -0.7081 -0.6134
 7961SOL     OW24954   2.639   1.901   8.146  0.4107  0.0377  0.3453
 7961SOL    HW124955   2.619   1.835   8.213 -1.2180 -0.1416 -0.2693
 7961SOL    HW224956   2.651   1.850   8.065  0.3421  0.4056  0.1032
 7962SOL     OW24957   5.979   2.810   5.068 -0.3178 -0.1172  0.6660
 7962SOL    HW124958   6.030   2.729   5.066  1.0350  0.6437  1.9691
 7962SOL    HW224959   5.954   2.821   5.160  1.1858  1.8638  0.9228
 7963SOL     OW24960   2.484   2.382   7.880  0.6868 -0.2482  0.1240
 7963SOL    HW124961   2.491   2.361   7.974 -0.0613 -0.0976  0.2159
 7963SOL    HW224962   2.395   2.416   7.869 -0.0595 -2.4114 -1.0631
 7964SOL     OW24963   7.226   1.453   7.003  0.0793 -0.2847  0.0006
 7964SOL    HW124964   7.264   1.445   6.916 -0.8739  0.1092 -0.4667
 7964SOL    HW224965   7.172   1.374   7.013  0.1597 -0.3124  0.2224
 7965SOL     OW24966   4.065   8.040   5.677 -0.8195 -0.6368 -0.2346
 7965SOL    HW124967   4.124   8.000   5.613 -0.4242 -1.0638  0.3957
 7965SOL    HW224968   4.005   8.093   5.624  0.2273 -0.0646 -0.8744
 7966SOL     OW24969   5.577   3.241   3.243 -0.6523  0.2384  0.2353
 7966SOL    HW124970   5.610   3.185   3.172 -2.0396  0.1894 -0.4029
 7966SOL    HW224971   5.638   3.315   3.244  1.6794 -1.5371  1.5923
 7967SOL     OW24972   0.571   2.891   1.340  0.6064  0.1939 -0.5296
 7967SOL    HW124973   0.595   2.907   1.248  2.0683 -0.5775 -0.3218
 7967SOL    HW224974   0.645   2.841   1.375  1.4571  2.8598  1.8575
 7968SOL     OW24975   1.445   1.771   1.139  0.3177 -0.6995 -0.0130
 7968SOL    HW124976   1.426   1.708   1.208 -0.2474 -1.4647 -0.8545
 7968SOL    HW224977   1.405   1.853   1.169  1.8164 -0.4686  1.5050
 7969SOL     OW24978   1.270   6.097   6.136 -0.0678  0.3507  0.5588
 7969SOL    HW124979   1.198   6.037   6.116 -2.2405  2.7202  0.7645
 7969SOL    HW224980   1.288   6.141   6.053  1.5044 -0.4978  0.4099
 7970SOL     OW24981   1.069   4.132   2.187  0.1642 -0.5026  0.0377
 7970SOL    HW124982   0.999   4.151   2.250  0.9885 -0.4843  0.9541
 7970SOL    HW224983   1.025   4.136   2.102 -1.2125 -1.6898  0.6584
 7971SOL     OW24984   3.800   3.312   4.865 -0.4860 -0.6189 -0.2769
 7971SOL    HW124985   3.783   3.225   4.900 -1.7349 -0.4039 -0.2934
 7971SOL    HW224986   3.770   3.373   4.933 -2.9640 -0.2031 -1.6077
 7972SOL     OW24987   4.477   2.126   6.969  0.5831 -0.0225  0.6089
 7972SOL    HW124988   4.541   2.168   7.026 -0.7276  1.9300  0.7578
 7972SOL    HW224989   4.403   2.105   7.026 -1.0702  2.6536 -0.3096
 7973SOL     OW24990   5.127   7.190   0.527 -0.4133  0.0186  0.1725
 7973SOL    HW124991   5.052   7.222   0.577 -0.7708 -0.8092  0.1836
 7973SOL    HW224992   5.140   7.256   0.459 -2.2951 -0.6624 -0.9443
 7974SOL     OW24993   0.457   5.752   4.008 -0.0456 -0.4212 -0.4039
 7974SOL    HW124994   0.553   5.757   4.002 -0.1065 -0.6376 -2.2432
 7974SOL    HW224995   0.436   5.797   4.089  1.6341 -0.5872  0.1735
 7975SOL     OW24996   2.344   7.552   1.054 -0.4071 -0.4790  0.3176
 7975SOL    HW124997   2.332   7.631   1.001 -1.4068 -0.4071  0.6361
 7975SOL    HW224998   2.434   7.559   1.086 -0.6967  0.9172  0.9265
 7976SOL     OW24999   7.276   2.017   2.897  0.1390 -0.4080 -0.3370
 7976SOL    HW125000   7.190   2.057   2.909 -0.4580 -1.4590 -0.9377
 7976SOL    HW225001   7.338   2.089   2.905 -0.8584  0.5120 -0.7251
 7977SOL     OW25002   1.048   1.735   1.155  0.1402 -0.5843  0.2327
 7977SOL    HW125003   1.130   1.783   1.163  0.4638 -1.2207  0.8271
 7977SOL    HW225004   1.035   1.726   1.060  1.0552 -0.9734  0.1337
 7978SOL     OW25005   2.715   6.088   7.273 -0.0412 -0.1214 -0.5158
 7978SOL    HW125006   2.763   6.013   7.237  1.9382  0.0679  1.5517
 7978SOL    HW225007   2.732   6.159   7.211  0.4115 -0.6454 -1.0106
 7979SOL     OW25008   2.583   2.863   7.906  0.0468 -0.2566  0.8605
 7979SOL    HW125009   2.548   2.902   7.825 -0.3311  1.1473  1.6734
 7979SOL    HW225010   2.593   2.770   7.885  0.3879  0.1486 -0.9563
 7980SOL     OW25011   1.767   7.402   7.455  0.6545 -0.2243  0.1953
 7980SOL    HW125012   1.768   7.440   7.543  1.5502 -0.2033  0.1856
 7980SOL    HW225013   1.711   7.462   7.404  1.2119  0.5124  0.4304
 7981SOL     OW25014   7.422   1.278   3.031  0.2184 -0.3773  0.0866
 7981SOL    HW125015   7.446   1.368   3.055  0.0876 -0.0766 -0.8873
 7981SOL    HW225016   7.344   1.287   2.977 -0.8708 -1.2155  1.4458
 7982SOL     OW25017   5.412   6.293   0.550  0.5272  0.3794 -0.2160
 7982SOL    HW125018   5.382   6.279   0.461 -0.2925  0.7414 -0.0029
 7982SOL    HW225019   5.384   6.215   0.598  1.5340 -0.1132 -0.4051
 7983SOL     OW25020   5.793   4.876   0.905 -0.4606  0.0429  0.2779
 7983SOL    HW125021   5.857   4.844   0.842  0.5018 -1.0254  1.7286
 7983SOL    HW225022   5.743   4.943   0.858 -1.0912 -2.0576 -2.2022
 7984SOL     OW25023   2.985   1.865   6.463  0.3064  0.4095  0.0084
 7984SOL    HW125024   3.052   1.913   6.512  0.4709 -0.2214  0.4144
 7984SOL    HW225025   3.027   1.782   6.440 -0.3505 -0.0108  0.3025
 7985SOL     OW25026   5.864   6.771   2.494 -0.0397  0.5226  0.3882
 7985SOL    HW125027   5.783   6.728   2.469  0.9847 -1.0529 -0.3544
 7985SOL    HW225028   5.849   6.802   2.583 -1.5363  0.5169  0.1514
 7986SOL     OW25029   3.902   2.415   1.523 -0.3375 -0.2696  0.3326
 7986SOL    HW125030   3.876   2.493   1.573 -0.7907 -1.8373  2.6723
 7986SOL    HW225031   3.819   2.377   1.495 -0.1341 -0.2372 -0.3253
 7987SOL     OW25032   7.331   0.573   7.193  0.6776  0.0928  0.2558
 7987SOL    HW125033   7.259   0.511   7.193  1.3731 -0.7332  0.7783
 7987SOL    HW225034   7.365   0.571   7.282  1.4996  0.2859 -0.0430
 7988SOL     OW25035   6.199   5.008   7.658  0.7883 -0.0447  0.7613
 7988SOL    HW125036   6.211   4.984   7.566 -0.1742  0.5629  0.4666
 7988SOL    HW225037   6.288   5.021   7.691  1.1328 -0.0345 -0.1418
 7989SOL     OW25038   4.169   6.131   5.811  0.1553  0.3050  0.2073
 7989SOL    HW125039   4.122   6.076   5.874 -0.7748 -0.1861 -0.8728
 7989SOL    HW225040   4.254   6.146   5.852  0.2293 -1.4573  0.8071
 7990SOL     OW25041   5.842   2.950   6.322 -0.4524 -0.0423 -0.6068
 7990SOL    HW125042   5.749   2.957   6.301 -0.5511  1.4212  0.1868
 7990SOL    HW225043   5.848   2.870   6.375 -1.2176 -0.2906 -0.8813
 7991SOL     OW25044   5.335   7.735   0.765  0.2982 -0.0687 -0.4274
 7991SOL    HW125045   5.257   7.739   0.822 -1.6996  0.1240 -2.9731
 7991SOL    HW225046   5.352   7.827   0.743 -1.2969 -0.3016 -2.9695
 7992SOL     OW25047   6.198   2.518   1.099  0.1335 -0.1045  0.2543
 7992SOL    HW125048   6.291   2.525   1.122 -0.0351 -1.6621  1.6553
 7992SOL    HW225049   6.185   2.583   1.031  1.8698  1.3546  1.2176
 7993SOL     OW25050   6.711   4.636   0.876  0.9102  0.1713  0.0258
 7993SOL    HW125051   6.699   4.545   0.906  2.4408 -0.4760 -1.1773
 7993SOL    HW225052   6.804   4.652   0.888  0.6107  1.7142  0.4579
 7994SOL     OW25053   0.285   2.463   7.799  0.1771 -0.2530 -0.2948
 7994SOL    HW125054   0.288   2.527   7.728  1.4851  2.1143  1.7139
 7994SOL    HW225055   0.192   2.440   7.807 -0.6463  2.6840 -0.1325
 7995SOL     OW25056   1.216   7.394   1.956 -0.6102  1.0857  0.3068
 7995SOL    HW125057   1.229   7.366   1.866  1.9081  1.2686  0.5449
 7995SOL    HW225058   1.181   7.317   2.001 -0.6766  0.6002 -0.5670
 7996SOL     OW25059   1.163   0.467   4.984  0.1425  0.2364  0.2091
 7996SOL    HW125060   1.187   0.482   5.076 -0.8501  0.5712  0.4291
 7996SOL    HW225061   1.104   0.392   4.987 -0.0096  0.3418 -0.1355
 7997SOL     OW25062   4.039   1.885   7.254 -0.0641 -0.5670  0.3693
 7997SOL    HW125063   4.025   1.952   7.320  0.7688  0.1258 -0.1392
 7997SOL    HW225064   4.058   1.805   7.304 -1.3620 -0.5111  0.9781
 7998SOL     OW25065   0.592   0.227   6.235  0.3758 -0.0814 -0.1947
 7998SOL    HW125066   0.640   0.208   6.316 -1.5023  1.6483  1.4353
 7998SOL    HW225067   0.513   0.173   6.240  0.4664 -0.3210 -1.1238
 7999SOL     OW25068   5.087   0.086   5.867 -0.2826  0.2224 -0.2635
 7999SOL    HW125069   5.040   0.168   5.885 -0.5292 -0.1731  1.0526
 7999SOL    HW225070   5.024   0.018   5.891 -0.0224 -0.3600 -1.2065
 8000SOL     OW25071   8.134   4.512   4.432  0.1534  0.2760  0.3972
 8000SOL    HW125072   8.228   4.531   4.433  0.3095 -0.3548 -0.6595
 8000SOL    HW225073   8.128   4.417   4.428 -0.5501  0.2865  0.9265
 8001SOL     OW25074   7.000   5.468   5.628  0.2860  0.2455  0.1064
 8001SOL    HW125075   6.965   5.399   5.571 -0.0144 -0.7401  1.4299
 8001SOL    HW225076   7.000   5.429   5.715  1.1442  1.5630  0.7277
 8002SOL     OW25077   1.018   2.879   5.491  0.1663 -0.0115  0.5373
 8002SOL    HW125078   0.950   2.863   5.426  0.5283  0.2852  0.0799
 8002SOL    HW225079   1.010   2.805   5.552 -2.0258  1.1504  1.7827
 8003SOL     OW25080   4.710   5.732   3.995 -0.2400  0.0531 -0.0178
 8003SOL    HW125081   4.758   5.811   3.972  0.1509  0.7119  2.7169
 8003SOL    HW225082   4.619   5.761   4.005 -0.2601 -0.0352  0.0608
 8004SOL     OW25083   5.403   2.599   7.964  0.1796  0.3210  0.1211
 8004SOL    HW125084   5.391   2.547   7.885 -1.2922 -0.1675  0.6388
 8004SOL    HW225085   5.323   2.650   7.972 -0.0759 -0.2970  1.7665
 8005SOL     OW25086   5.986   1.761   0.865 -0.1358  0.3948 -0.0191
 8005SOL    HW125087   5.965   1.694   0.799 -0.5579  1.2370 -0.7675
 8005SOL    HW225088   5.909   1.818   0.865  0.9482  1.9243 -0.7383
 8006SOL     OW25089   7.829   2.550   7.576  0.0929 -0.1388  0.0888
 8006SOL    HW125090   7.792   2.473   7.532  0.1003  0.3407 -0.7908
 8006SOL    HW225091   7.916   2.522   7.605 -0.5200 -0.9447  1.2126
 8007SOL     OW25092   4.470   3.065   7.622  0.6659 -0.2309  0.8225
 8007SOL    HW125093   4.499   3.129   7.557  1.0497 -0.3396  0.8871
 8007SOL    HW225094   4.491   3.105   7.706 -1.1684  0.5781  0.9538
 8008SOL     OW25095   3.861   6.029   0.153  0.2459 -0.0506  0.5342
 8008SOL    HW125096   3.940   6.010   0.103  0.3124  0.1736  0.5510
 8008SOL    HW225097   3.830   6.113   0.117  0.6214  0.4174  1.2745
 8009SOL     OW25098   0.495   3.710   4.582 -0.2419 -0.7147  0.1287
 8009SOL    HW125099   0.490   3.762   4.662 -0.1051 -0.4653 -0.0221
 8009SOL    HW225100   0.573   3.656   4.593  0.1028 -0.2686 -0.0755
 8010SOL     OW25101   0.646   5.049   6.758  0.5184  0.6243 -0.1448
 8010SOL    HW125102   0.625   4.957   6.769 -0.2232  0.7207 -0.6686
 8010SOL    HW225103   0.728   5.049   6.708  0.1626  0.2487 -0.7418
 8011SOL     OW25104   3.189   2.109   3.276  1.0171  0.0947  0.3107
 8011SOL    HW125105   3.196   2.097   3.370  1.9879 -2.2106  0.0164
 8011SOL    HW225106   3.181   2.020   3.241 -1.1092  0.9434 -1.6855
 8012SOL     OW25107   7.255   4.509   2.377 -0.2113  0.2056  0.2673
 8012SOL    HW125108   7.343   4.472   2.370  0.1928  1.2681 -0.4367
 8012SOL    HW225109   7.255   4.555   2.461 -0.5219 -0.8512  0.8635
 8013SOL     OW25110   4.463   4.810   6.229  0.3492 -0.2800  0.0309
 8013SOL    HW125111   4.521   4.848   6.162 -1.0376 -0.6317 -1.4237
 8013SOL    HW225112   4.449   4.882   6.290  0.4120  0.5642 -0.9051
 8014SOL     OW25113   4.540   4.036   6.387 -0.4951 -0.0896  0.5271
 8014SOL    HW125114   4.464   4.094   6.393  0.7467  1.6709  0.2006
 8014SOL    HW225115   4.554   4.005   6.476 -1.6904 -0.6284  0.5547
 8015SOL     OW25116   0.215   0.843   3.647  0.0281 -0.2388 -0.2363
 8015SOL    HW125117   0.257   0.799   3.574 -0.8543 -1.9649  0.2373
 8015SOL    HW225118   0.178   0.923   3.610  1.8230  0.2220 -1.0876
 8016SOL     OW25119   4.930   1.112   3.708 -0.5441 -0.0506  0.3077
 8016SOL    HW125120   4.904   1.114   3.800 -0.8881  0.5581  0.2012
 8016SOL    HW225121   4.856   1.153   3.661  0.4763  1.5165 -0.0208
 8017SOL     OW25122   3.956   7.650   4.514  0.3110  0.3514 -0.0596
 8017SOL    HW125123   4.022   7.659   4.582 -0.8496  0.1731  1.1472
 8017SOL    HW225124   4.003   7.663   4.432  2.5468 -3.0509  0.4555
 8018SOL     OW25125   2.400   7.476   2.993 -0.0046 -0.1314 -0.4623
 8018SOL    HW125126   2.430   7.432   2.913  1.5023 -0.0914  0.0452
 8018SOL    HW225127   2.476   7.474   3.051 -1.2720 -0.8133  1.2697
 8019SOL     OW25128   6.058   3.916   2.219  0.6550 -0.9714 -0.3245
 8019SOL    HW125129   6.082   3.839   2.269 -0.7031 -0.9320  0.4263
 8019SOL    HW225130   6.094   3.989   2.269 -0.9434 -0.9083  0.8393
 8020SOL     OW25131   6.936   3.324   5.405 -0.2485 -0.2963 -0.1347
 8020SOL    HW125132   6.994   3.277   5.465  0.4069 -1.6175 -1.7185
 8020SOL    HW225133   6.993   3.386   5.360 -0.1738 -1.0573 -1.1370
 8021SOL     OW25134   0.703   4.815   4.936 -0.3315 -0.4604  0.6452
 8021SOL    HW125135   0.798   4.807   4.931 -0.2152  1.0629 -0.0179
 8021SOL    HW225136   0.686   4.844   5.026 -0.0404  0.6382  0.3591
 8022SOL     OW25137   7.454   1.832   7.217 -0.4025  0.1157  0.0071
 8022SOL    HW125138   7.411   1.797   7.139  1.1782  1.1146 -1.3762
 8022SOL    HW225139   7.389   1.891   7.255 -0.8778  0.3402 -1.1100
 8023SOL     OW25140   1.505   6.712   0.880  0.2302 -0.1885 -0.2941
 8023SOL    HW125141   1.466   6.787   0.835  1.8507 -0.2672 -1.9513
 8023SOL    HW225142   1.463   6.636   0.841 -1.6566 -0.2023  1.6233
 8024SOL     OW25143   5.226   0.687   5.089  0.6036  0.1881  0.4294
 8024SOL    HW125144   5.155   0.742   5.054 -0.4888 -0.6113  1.3034
 8024SOL    HW225145   5.282   0.748   5.136 -0.9444  0.5303  1.9416
 8025SOL     OW25146   2.466   0.816   2.862 -0.3226  0.1434  0.0995
 8025SOL    HW125147   2.418   0.755   2.919 -0.2576  0.5199  0.5658
 8025SOL    HW225148   2.487   0.765   2.784  0.5754 -0.7335  0.8928
 8026SOL     OW25149   7.297   3.446   3.111  0.4513  0.1061  0.1660
 8026SOL    HW125150   7.293   3.355   3.142 -0.3393  0.6044  1.6686
 8026SOL    HW225151   7.386   3.457   3.078  0.4301 -1.3248 -0.4134
 8027SOL     OW25152   2.006   6.506   1.948  0.6395  0.2988  0.0398
 8027SOL    HW125153   2.067   6.462   1.889  0.8159 -1.1997  1.2642
 8027SOL    HW225154   1.998   6.595   1.913  1.7743 -0.1374 -1.4264
 8028SOL     OW25155   4.141   1.272   4.609 -0.0319 -0.6462 -0.2878
 8028SOL    HW125156   4.215   1.330   4.626 -0.7495 -0.2527  1.8518
 8028SOL    HW225157   4.168   1.188   4.647  0.1933 -1.1432 -1.5266
 8029SOL     OW25158   2.275   2.725   3.112  0.7476  0.4499  0.4363
 8029SOL    HW125159   2.191   2.752   3.148 -0.8153 -0.9666 -1.8800
 8029SOL    HW225160   2.290   2.637   3.148  0.9457  0.4601  0.3812
 8030SOL     OW25161   0.773   7.863   2.846 -0.0626  0.8375  0.1506
 8030SOL    HW125162   0.801   7.953   2.831  0.6597  0.1924 -3.0290
 8030SOL    HW225163   0.838   7.827   2.906  1.5465  1.5499 -1.1031
 8031SOL     OW25164   1.218   7.183   7.313 -0.9483 -0.4721  0.3938
 8031SOL    HW125165   1.169   7.255   7.272 -0.5683 -0.0515  0.6615
 8031SOL    HW225166   1.169   7.163   7.392 -0.2400  0.5274  1.1047
 8032SOL     OW25167   6.702   1.457   4.167 -0.1195  0.1184  0.0415
 8032SOL    HW125168   6.687   1.379   4.221  1.9126 -0.3344  0.0265
 8032SOL    HW225169   6.771   1.505   4.213  1.6347 -0.2387 -2.0466
 8033SOL     OW25170   1.572   7.791   0.086 -0.2777 -0.0609  0.0316
 8033SOL    HW125171   1.568   7.886   0.095  0.8009  0.0931 -0.9271
 8033SOL    HW225172   1.594   7.760   0.174  0.0662  0.6378  0.1997
 8034SOL     OW25173   3.182   3.733   1.032  0.2074  0.1150  0.2233
 8034SOL    HW125174   3.197   3.819   0.994  2.1327 -0.0258  0.5860
 8034SOL    HW225175   3.139   3.683   0.963 -2.9383  1.8989  0.6767
 8035SOL     OW25176   3.247   4.909   7.876  0.2936 -0.1192 -0.4794
 8035SOL    HW125177   3.221   4.823   7.844  1.0124 -1.5673  2.5219
 8035SOL    HW225178   3.341   4.902   7.892  0.1985  0.9020  0.6895
 8036SOL     OW25179   3.372   4.986   0.335  0.5475  0.1279 -0.6105
 8036SOL    HW125180   3.379   4.958   0.426  3.3078 -0.5694 -0.9668
 8036SOL    HW225181   3.336   5.075   0.340  0.3356 -0.0187  1.1032
 8037SOL     OW25182   2.612   2.642   2.835  0.6137 -0.3085  0.5197
 8037SOL    HW125183   2.583   2.578   2.900 -1.9817 -0.6864 -0.8770
 8037SOL    HW225184   2.570   2.614   2.754  1.4799  1.7459 -0.7012
 8038SOL     OW25185   1.076   4.591   6.419 -0.1187 -0.0756  0.5836
 8038SOL    HW125186   1.042   4.630   6.499  0.5966 -0.3861  1.0456
 8038SOL    HW225187   1.130   4.659   6.380  0.3673 -0.2767  0.9019
 8039SOL     OW25188   5.638   1.938   2.175  0.8169 -0.1115 -0.5738
 8039SOL    HW125189   5.632   1.983   2.090  2.0372  1.6648  0.2088
 8039SOL    HW225190   5.671   2.005   2.235  0.8606 -1.5711  1.1197
 8040SOL     OW25191   3.364   5.297   5.504  0.2445  0.2108 -0.2426
 8040SOL    HW125192   3.341   5.279   5.595 -0.6119  1.3873 -0.1917
 8040SOL    HW225193   3.456   5.325   5.508  0.0603  0.7584  0.3392
 8041SOL     OW25194   4.348   3.479   2.240 -0.1651 -0.0231  0.4421
 8041SOL    HW125195   4.422   3.540   2.239  0.9415 -1.3119  0.5492
 8041SOL    HW225196   4.321   3.476   2.332  0.4942 -0.4912  0.6325
 8042SOL     OW25197   2.052   1.560   0.954 -0.8840 -0.0915 -0.1480
 8042SOL    HW125198   2.090   1.586   1.038  0.0422 -1.1539 -0.2008
 8042SOL    HW225199   1.959   1.583   0.961 -0.5903  0.9286  0.6945
 8043SOL     OW25200   3.696   3.225   2.852 -0.2432 -0.1299  0.0893
 8043SOL    HW125201   3.763   3.259   2.911  0.0849  0.9408 -0.8733
 8043SOL    HW225202   3.744   3.199   2.773 -0.9378  0.5214 -0.5586
 8044SOL     OW25203   5.248   0.581   5.466 -0.0596 -0.1414  0.1949
 8044SOL    HW125204   5.282   0.528   5.394 -0.4170  0.9385 -0.8169
 8044SOL    HW225205   5.317   0.580   5.532  0.3688 -0.9772 -0.2518
 8045SOL     OW25206   3.526   3.803   1.038 -0.0152  0.6748  0.4913
 8045SOL    HW125207   3.483   3.732   1.084  0.5066 -0.5789 -0.8522
 8045SOL    HW225208   3.562   3.859   1.107  0.7098 -1.0889  1.6144
 8046SOL     OW25209   0.594   4.205   3.979 -0.1692  0.1050  0.5332
 8046SOL    HW125210   0.568   4.295   3.962  0.9537  0.3895  0.2081
 8046SOL    HW225211   0.652   4.211   4.055  0.8867 -0.1681 -0.2297
 8047SOL     OW25212   6.730   0.682   7.560 -0.3177  0.2716  0.2082
 8047SOL    HW125213   6.727   0.772   7.593  1.2684  0.7710 -0.8870
 8047SOL    HW225214   6.670   0.633   7.617  1.3196  1.3275  3.0426
 8048SOL     OW25215   5.465   1.469   3.965  0.3494 -0.0832  0.3757
 8048SOL    HW125216   5.425   1.437   4.046 -0.7689 -0.7769 -0.4214
 8048SOL    HW225217   5.450   1.564   3.967  0.2089 -0.1137  0.9139
 8049SOL     OW25218   2.777   5.643   3.220 -0.4786  0.1067  0.1154
 8049SOL    HW125219   2.713   5.627   3.289 -0.5817  4.1671  1.2229
 8049SOL    HW225220   2.735   5.708   3.164  0.6781 -1.1144 -2.3014
 8050SOL     OW25221   5.998   6.641   0.940  0.3243  0.1060  0.2478
 8050SOL    HW125222   6.035   6.559   0.907  2.1273  0.4316  1.3222
 8050SOL    HW225223   6.071   6.684   0.983 -0.4225  2.5955 -0.8072
 8051SOL     OW25224   6.165   6.295   2.434 -0.0759  0.0699  0.2064
 8051SOL    HW125225   6.165   6.203   2.409  0.2050  0.7164 -2.4968
 8051SOL    HW225226   6.074   6.314   2.455 -0.0705 -0.8924  1.1792
 8052SOL     OW25227   3.176   7.263   4.274 -0.4272 -0.4665 -0.3699
 8052SOL    HW125228   3.107   7.196   4.267  0.6776 -1.6596 -0.2754
 8052SOL    HW225229   3.232   7.247   4.198  0.0526  0.1171 -0.1432
 8053SOL     OW25230   5.852   5.302   7.685  0.1192 -0.2405 -0.3843
 8053SOL    HW125231   5.938   5.281   7.723 -0.2959  0.1123  0.7942
 8053SOL    HW225232   5.790   5.283   7.755 -0.5335  2.0918 -0.2661
 8054SOL     OW25233   3.216   5.633   0.201  0.3504 -0.7047  0.0211
 8054SOL    HW125234   3.285   5.579   0.161  0.3098 -0.3777 -0.4965
 8054SOL    HW225235   3.161   5.661   0.127  0.1426 -0.2785  0.3322
 8055SOL     OW25236   3.379   2.116   3.750 -0.1820  0.0482 -0.2811
 8055SOL    HW125237   3.422   2.150   3.828  0.8013 -3.5528  0.9472
 8055SOL    HW225238   3.430   2.151   3.677  0.3265  1.6076  0.7721
 8056SOL     OW25239   5.820   2.537   2.435 -0.0666  0.2882  0.1458
 8056SOL    HW125240   5.779   2.455   2.408  1.4875 -0.0929 -1.2539
 8056SOL    HW225241   5.766   2.606   2.397  0.4253 -0.1920 -1.4668
 8057SOL     OW25242   1.958   1.309   0.860 -0.7281  0.5035  0.1434
 8057SOL    HW125243   1.998   1.377   0.914  1.7621 -0.3710 -0.4656
 8057SOL    HW225244   2.000   1.319   0.774 -1.4591 -0.8124 -0.4017
 8058SOL     OW25245   4.529   6.890   3.106 -0.2198  0.1373 -0.1485
 8058SOL    HW125246   4.501   6.899   3.197  1.0076 -0.5617  0.3105
 8058SOL    HW225247   4.609   6.941   3.099  1.6217 -2.5148  0.1002
 8059SOL     OW25248   7.532   1.518   6.459 -0.4499  0.1960 -0.0436
 8059SOL    HW125249   7.493   1.451   6.402  0.3540  0.4361 -0.8883
 8059SOL    HW225250   7.459   1.577   6.479 -0.6830  0.2820 -1.0813
 8060SOL     OW25251   2.401   8.000   0.350 -0.7065 -0.2737 -0.4626
 8060SOL    HW125252   2.307   7.996   0.336 -0.9033 -1.3228  0.9227
 8060SOL    HW225253   2.412   8.050   0.430 -0.0695  0.0263 -0.7304
 8061SOL     OW25254   4.199   3.853   5.765  0.2390  0.1915 -0.2942
 8061SOL    HW125255   4.174   3.934   5.720 -1.1400  1.2009  2.0299
 8061SOL    HW225256   4.294   3.856   5.770  0.3331  0.6548 -1.9717
 8062SOL     OW25257   1.063   3.562   1.947 -0.4401  0.6419 -0.4461
 8062SOL    HW125258   1.101   3.577   2.033 -2.5404 -0.9660  0.8433
 8062SOL    HW225259   1.002   3.636   1.935  0.2739  1.1804 -0.8484
 8063SOL     OW25260   0.296   2.087   4.958  0.1638  0.3717 -0.5102
 8063SOL    HW125261   0.280   2.106   5.050 -1.6392 -1.4474 -0.3999
 8063SOL    HW225262   0.360   2.016   4.958 -0.5407 -0.2740 -0.6118
 8064SOL     OW25263   1.550   0.066   4.581  0.3266 -0.1487 -0.3414
 8064SOL    HW125264   1.617   0.014   4.626  0.9869  1.4454  0.5908
 8064SOL    HW225265   1.594   0.148   4.558 -1.1931  0.7997 -0.0297
 8065SOL     OW25266   3.374   4.686   2.625  0.0654  0.0081  0.3865
 8065SOL    HW125267   3.418   4.760   2.667  1.1955  0.2533 -1.1453
 8065SOL    HW225268   3.312   4.654   2.691  0.7039  1.2953  1.6587
 8066SOL     OW25269   4.350   5.803   4.850 -0.2595 -0.1479 -0.2038
 8066SOL    HW125270   4.331   5.715   4.880  1.9587 -1.0938 -1.2973
 8066SOL    HW225271   4.290   5.859   4.898 -2.3440 -2.3134 -0.1399
 8067SOL     OW25272   0.876   7.265   4.954 -0.1613  0.6267 -0.1649
 8067SOL    HW125273   0.926   7.261   4.872 -0.4625  0.3589 -0.3390
 8067SOL    HW225274   0.785   7.280   4.926 -0.1260  1.5674  0.1652
 8068SOL     OW25275   0.923   0.299   2.915  0.4136 -0.3248 -0.2552
 8068SOL    HW125276   0.893   0.241   2.986  0.0259  0.7893  0.5118
 8068SOL    HW225277   0.850   0.301   2.854 -0.5006  1.1301  0.8368
 8069SOL     OW25278   5.370   0.283   3.423  0.6222 -1.0001  0.6862
 8069SOL    HW125279   5.405   0.217   3.362  1.3316  1.0688 -1.2853
 8069SOL    HW225280   5.280   0.255   3.439  0.9558 -2.5336  0.0596
 8070SOL     OW25281   0.098   3.341   1.036 -0.4078 -0.3561 -0.0095
 8070SOL    HW125282   0.178   3.294   1.013 -0.9351 -0.9663 -0.6037
 8070SOL    HW225283   0.040   3.329   0.961  0.0501  2.6822 -1.0159
 8071SOL     OW25284   3.836   4.632   4.315 -0.0840 -0.1062  0.1410
 8071SOL    HW125285   3.886   4.714   4.310 -0.6961  0.3198  0.8593
 8071SOL    HW225286   3.901   4.566   4.338  0.2959  0.2967  0.2408
 8072SOL     OW25287   4.378   4.677   4.976 -0.1065 -0.1890  0.5077
 8072SOL    HW125288   4.325   4.677   4.896 -0.4759  1.1800  0.7237
 8072SOL    HW225289   4.324   4.632   5.041  0.6570 -2.3338 -0.2564
 8073SOL     OW25290   4.288   3.522   1.148  0.3017 -0.7144 -0.5890
 8073SOL    HW125291   4.245   3.543   1.065 -2.3869  0.7344  1.0018
 8073SOL    HW225292   4.273   3.428   1.159 -1.7502 -0.4520 -0.5874
 8074SOL     OW25293   3.576   6.403   2.577 -0.6874  0.1084  0.1542
 8074SOL    HW125294   3.489   6.378   2.607 -0.4503  0.8496  1.5105
 8074SOL    HW225295   3.561   6.454   2.498 -1.6060  1.6602  1.3037
 8075SOL     OW25296   4.809   2.227   4.993 -0.0236  0.2998 -0.1200
 8075SOL    HW125297   4.842   2.301   5.044 -0.5369 -0.5518  1.5237
 8075SOL    HW225298   4.722   2.209   5.031 -0.2515 -0.6177 -1.0448
 8076SOL     OW25299   4.753   3.591   6.631  0.1471 -0.3313  0.5638
 8076SOL    HW125300   4.829   3.586   6.573  0.4406  1.0328  0.8087
 8076SOL    HW225301   4.686   3.635   6.579  0.2945  0.5778  1.1299
 8077SOL     OW25302   4.555   2.176   6.703  0.2738 -0.4857  0.0805
 8077SOL    HW125303   4.471   2.172   6.749 -0.1823 -0.8339 -0.7640
 8077SOL    HW225304   4.610   2.233   6.758 -1.7870  3.1703 -1.2997
 8078SOL     OW25305   0.873   1.881   5.424 -0.2078  0.5053 -0.1370
 8078SOL    HW125306   0.926   1.868   5.503  0.4389  1.4136 -0.3981
 8078SOL    HW225307   0.917   1.954   5.378 -1.1407  0.6385 -0.8377
 8079SOL     OW25308   4.577   5.985   1.140 -0.2007  0.1752 -0.0309
 8079SOL    HW125309   4.560   5.891   1.136 -0.4239  0.2338 -0.5275
 8079SOL    HW225310   4.652   5.998   1.081  0.5538  0.1479  0.9069
 8080SOL     OW25311   1.122   7.690   8.132 -0.5523  0.0277 -0.0018
 8080SOL    HW125312   1.096   7.762   8.190  0.6029  0.6033 -0.1622
 8080SOL    HW225313   1.126   7.729   8.045 -0.7568 -0.4504 -0.2284
 8081SOL     OW25314   2.756   3.666   3.070  0.3455 -0.4259 -0.1909
 8081SOL    HW125315   2.754   3.588   3.126  2.9985  0.2249  0.9540
 8081SOL    HW225316   2.834   3.654   3.016 -0.5578  0.3499 -1.7359
 8082SOL     OW25317   2.871   1.134   4.763  0.2012  0.0131 -0.0304
 8082SOL    HW125318   2.783   1.157   4.793  0.3628  2.1674 -1.0360
 8082SOL    HW225319   2.870   1.151   4.668  1.2009 -1.6641 -0.4008
 8083SOL     OW25320   2.844   5.992   2.112  0.2550 -0.1048  0.2182
 8083SOL    HW125321   2.830   5.902   2.081  2.2150  0.6734 -3.4584
 8083SOL    HW225322   2.920   5.985   2.171 -0.3955 -0.9571  0.9998
 8084SOL     OW25323   7.356   0.993   2.104 -0.2231  0.1293  0.6011
 8084SOL    HW125324   7.418   0.922   2.090 -2.1093 -1.3461 -0.8275
 8084SOL    HW225325   7.352   1.003   2.199  2.8987  1.0224  0.7348
 8085SOL     OW25326   0.847   1.068   4.544 -0.6345  0.3868 -0.9494
 8085SOL    HW125327   0.875   1.072   4.636 -0.4428 -1.1744 -0.9184
 8085SOL    HW225328   0.927   1.048   4.496 -0.6122  1.8416 -1.5521
 8086SOL     OW25329   0.682   6.878   0.171  0.3074  0.2509 -0.7075
 8086SOL    HW125330   0.776   6.863   0.159  0.7294 -0.3497  2.4674
 8086SOL    HW225331   0.647   6.879   0.082  3.0942 -0.8653 -1.9616
 8087SOL     OW25332   5.104   1.527   2.818  0.4431 -0.0483  0.0436
 8087SOL    HW125333   5.020   1.568   2.834  0.0248 -0.7259 -0.3530
 8087SOL    HW225334   5.103   1.448   2.873  0.9785  0.1372  0.3293
 8088SOL     OW25335   5.601   7.208   1.578 -0.5354  0.2529  0.2065
 8088SOL    HW125336   5.625   7.116   1.583 -0.9872  0.0735 -0.8660
 8088SOL    HW225337   5.654   7.250   1.647  0.0171 -0.7217  0.3876
 8089SOL     OW25338   4.285   2.295   0.441  0.3192 -0.5132 -0.5578
 8089SOL    HW125339   4.267   2.204   0.421  3.2566 -1.2492 -0.3236
 8089SOL    HW225340   4.342   2.325   0.369  1.4009  0.3534  0.6149
 8090SOL     OW25341   7.019   4.126   7.112  0.1708 -0.1552  0.1530
 8090SOL    HW125342   7.036   4.032   7.100 -3.1522 -0.9150  0.5560
 8090SOL    HW225343   7.048   4.143   7.202  2.5131 -0.2763 -0.5175
 8091SOL     OW25344   1.379   1.738   3.319  0.3556 -0.0684  0.3484
 8091SOL    HW125345   1.316   1.799   3.284  0.4258 -0.1738  0.0356
 8091SOL    HW225346   1.464   1.775   3.296  0.3958 -0.5184 -0.2615
 8092SOL     OW25347   3.177   5.803   1.809 -0.0798 -0.0475 -0.0989
 8092SOL    HW125348   3.246   5.851   1.853 -1.1461  0.8689  0.6260
 8092SOL    HW225349   3.144   5.741   1.874  2.0685 -2.7307 -1.3628
 8093SOL     OW25350   6.367   2.032   6.389 -0.4737 -0.0779 -0.3586
 8093SOL    HW125351   6.353   2.048   6.296 -1.0278 -0.2752 -0.3168
 8093SOL    HW225352   6.296   2.079   6.432 -0.5095 -0.3964 -0.0680
 8094SOL     OW25353   5.897   4.979   0.639 -0.2077 -0.4408 -0.5933
 8094SOL    HW125354   5.946   4.936   0.568 -0.9061  0.5273 -1.6891
 8094SOL    HW225355   5.956   5.047   0.672  0.4995 -1.5152  0.4551
 8095SOL     OW25356   1.937   5.177   0.435 -0.5891 -0.3556  1.0244
 8095SOL    HW125357   1.896   5.092   0.414 -0.6104 -0.2540  0.6371
 8095SOL    HW225358   1.919   5.190   0.528 -0.7977 -0.6640  1.0304
 8096SOL     OW25359   4.396   2.437   4.150  0.6637  0.2466  0.4164
 8096SOL    HW125360   4.332   2.488   4.101  1.9395  1.4785 -0.0689
 8096SOL    HW225361   4.348   2.361   4.183 -0.8405  0.7593 -0.5209
 8097SOL     OW25362   4.515   8.065   2.442  0.4253  0.2516 -0.0315
 8097SOL    HW125363   4.500   7.991   2.383 -0.9821 -1.4636  2.3041
 8097SOL    HW225364   4.587   8.114   2.402  0.1274 -1.2770 -2.6575
 8098SOL     OW25365   5.808   0.316   0.662 -0.4045 -0.1670  0.4889
 8098SOL    HW125366   5.900   0.293   0.650 -0.1942  0.3564  1.0647
 8098SOL    HW225367   5.789   0.378   0.592 -0.5734 -0.9492 -0.1771
 8099SOL     OW25368   5.400   7.947   2.071  0.0467 -0.0789  0.1035
 8099SOL    HW125369   5.329   8.011   2.075 -0.1936 -0.2154 -1.3397
 8099SOL    HW225370   5.449   7.970   1.992  1.1502 -0.4642  0.6520
 8100SOL     OW25371   3.442   3.962   7.840 -0.1674  0.1633 -0.3982
 8100SOL    HW125372   3.461   4.051   7.868 -1.2613  0.7614 -1.4560
 8100SOL    HW225373   3.404   3.920   7.918  2.2745 -0.0808  0.7516
 8101SOL     OW25374   1.072   6.520   1.854 -0.0578 -0.1710 -0.6390
 8101SOL    HW125375   1.113   6.606   1.864  1.9245 -0.8878 -1.9477
 8101SOL    HW225376   0.995   6.536   1.800 -0.2147  0.8914 -0.1315
 8102SOL     OW25377   7.441   7.021   1.161 -0.7058  0.5250  0.1702
 8102SOL    HW125378   7.479   7.109   1.164 -0.1262  0.2567  0.9948
 8102SOL    HW225379   7.485   6.978   1.087  1.2124 -0.0376  1.5751
 8103SOL     OW25380   0.514   5.918   0.512  0.8529  0.2638 -0.6099
 8103SOL    HW125381   0.474   5.839   0.550  0.0114  0.9119 -0.1076
 8103SOL    HW225382   0.463   5.990   0.549  0.7849  0.9778 -2.0502
 8104SOL     OW25383   5.494   4.600   6.361 -0.0351  0.1828  0.1235
 8104SOL    HW125384   5.476   4.669   6.297 -0.0780  1.8056  1.8062
 8104SOL    HW225385   5.572   4.556   6.326  0.2246  1.3207 -0.8248
 8105SOL     OW25386   1.338   7.165   4.746  0.1031  0.0813  0.0507
 8105SOL    HW125387   1.423   7.178   4.703  0.3637 -1.9256 -0.1517
 8105SOL    HW225388   1.277   7.153   4.673 -0.2582  0.9194  0.2071
 8106SOL     OW25389   6.049   3.074   6.225  0.3686  0.3591  0.1706
 8106SOL    HW125390   6.071   3.125   6.303  1.9205 -0.6199  0.4005
 8106SOL    HW225391   5.975   3.019   6.252  1.2898 -0.4171  1.1571
 8107SOL     OW25392   6.155   4.220   3.413 -0.2361  0.0723 -0.7796
 8107SOL    HW125393   6.204   4.300   3.436  0.4168 -0.3898 -0.5340
 8107SOL    HW225394   6.182   4.156   3.479 -0.5483 -0.4363 -1.1406
 8108SOL     OW25395   8.071   3.945   6.198  0.2669  0.2364  0.0836
 8108SOL    HW125396   8.001   3.893   6.238 -0.4997 -0.3480 -1.9194
 8108SOL    HW225397   8.033   4.031   6.186 -0.4126 -0.2658 -1.6480
 8109SOL     OW25398   6.382   0.281   2.343 -0.2246 -0.7319  0.4519
 8109SOL    HW125399   6.469   0.320   2.338 -0.5307  0.1147  1.4714
 8109SOL    HW225400   6.364   0.251   2.253  0.3776  0.7247 -0.1868
 8110SOL     OW25401   5.423   3.926   3.471 -0.1154 -0.5059 -0.4902
 8110SOL    HW125402   5.459   3.928   3.383 -0.2704  0.5890 -0.5360
 8110SOL    HW225403   5.495   3.953   3.528  0.2831 -2.1632 -0.1527
 8111SOL     OW25404   0.070   0.123   4.845 -0.5984  0.0247 -0.3961
 8111SOL    HW125405   0.080   0.218   4.848 -0.8083  0.0242  0.8289
 8111SOL    HW225406   0.157   0.089   4.866 -0.7266 -0.0481  0.0178
 8112SOL     OW25407   6.004   3.752   1.362  0.3878 -0.3311 -0.1277
 8112SOL    HW125408   5.954   3.828   1.393 -0.5720 -0.6540 -0.8245
 8112SOL    HW225409   6.082   3.789   1.322  0.5941  0.2074  0.7530
 8113SOL     OW25410   5.443   3.272   5.451 -0.0103 -0.2944 -0.1384
 8113SOL    HW125411   5.399   3.356   5.440  0.3789 -0.1600 -0.7268
 8113SOL    HW225412   5.516   3.274   5.388 -0.2898 -1.2618 -0.5250
 8114SOL     OW25413   6.108   6.078   1.222  0.8664  0.0562  0.3945
 8114SOL    HW125414   6.148   6.045   1.303 -0.7646 -1.7770  0.5208
 8114SOL    HW225415   6.125   6.010   1.157 -0.7467 -0.1166  0.1041
 8115SOL     OW25416   5.367   3.493   7.974 -0.3110 -0.2589  0.0542
 8115SOL    HW125417   5.446   3.445   8.000 -0.6970 -0.5482  0.7215
 8115SOL    HW225418   5.344   3.546   8.050  0.9055  2.1259 -1.1335
 8116SOL     OW25419   6.667   1.768   4.500 -0.0281 -0.1206  0.0572
 8116SOL    HW125420   6.734   1.755   4.568  0.3565 -3.9512 -0.8260
 8116SOL    HW225421   6.595   1.711   4.527 -0.1433 -1.2100 -2.3661
 8117SOL     OW25422   5.660   6.565   7.315  0.1763  0.0843 -0.2937
 8117SOL    HW125423   5.728   6.534   7.256 -0.2508 -0.1610 -0.6625
 8117SOL    HW225424   5.605   6.622   7.262 -0.3173 -0.2813 -0.1931
 8118SOL     OW25425   4.820   4.895   0.202  0.1664  0.3379 -0.1317
 8118SOL    HW125426   4.883   4.829   0.174  1.5794  0.2725  2.8310
 8118SOL    HW225427   4.761   4.848   0.262  0.8750  1.5400  1.6117
 8119SOL     OW25428   2.068   6.943   7.551 -0.1412  0.3476  0.4778
 8119SOL    HW125429   2.065   6.877   7.481  2.4578  0.3320  0.2790
 8119SOL    HW225430   2.000   7.005   7.527 -0.6402 -0.6868 -1.0027
 8120SOL     OW25431   6.469   1.638   4.650  0.0567  0.7449  0.7080
 8120SOL    HW125432   6.392   1.665   4.699  0.0033  0.4126  0.8092
 8120SOL    HW225433   6.448   1.550   4.619  0.0324  0.9994 -0.0269
 8121SOL     OW25434   0.082   3.210   0.704 -0.2866  0.0097 -0.1516
 8121SOL    HW125435   0.114   3.140   0.647 -0.3489 -0.2810  0.1657
 8121SOL    HW225436   0.050   3.165   0.782  0.4943  0.4402  0.4420
 8122SOL     OW25437   5.639   3.726   3.894  0.4060  0.0127 -0.1870
 8122SOL    HW125438   5.649   3.685   3.808  0.2092 -0.3529 -0.0407
 8122SOL    HW225439   5.562   3.682   3.932  0.6109  0.0318  0.2548
 8123SOL     OW25440   4.138   2.969   3.801  0.2137 -0.0790  0.6070
 8123SOL    HW125441   4.117   2.988   3.892  0.2857 -1.2791  0.8999
 8123SOL    HW225442   4.133   2.873   3.795  0.9440 -0.0727 -0.4651
 8124SOL     OW25443   4.434   0.575   0.476  0.7379  0.5218 -0.5070
 8124SOL    HW125444   4.483   0.580   0.559 -0.2518  0.9757  0.0690
 8124SOL    HW225445   4.482   0.633   0.417  0.1776  2.0498  0.4527
 8125SOL     OW25446   5.380   2.463   7.734 -0.2859  0.1344 -0.2947
 8125SOL    HW125447   5.362   2.369   7.727 -1.1530  0.3860 -1.6815
 8125SOL    HW225448   5.473   2.471   7.713 -0.0367 -0.4761  0.5169
 8126SOL     OW25449   5.542   6.015   5.480 -0.1754  0.1748 -0.2875
 8126SOL    HW125450   5.615   5.984   5.427 -0.4450 -0.2132 -0.4372
 8126SOL    HW225451   5.471   6.028   5.418 -0.1268  0.9171 -0.1977
 8127SOL     OW25452   5.194   5.011   5.446  0.2774  0.4045  0.3347
 8127SOL    HW125453   5.127   4.946   5.425  0.1838  0.5727  0.1126
 8127SOL    HW225454   5.254   5.008   5.372  0.5650  0.1905  0.5765
 8128SOL     OW25455   2.422   3.764   1.067 -0.1101 -0.4566  0.1361
 8128SOL    HW125456   2.401   3.680   1.025 -1.5307  0.2722 -0.7124
 8128SOL    HW225457   2.514   3.756   1.092  0.3031 -1.6140 -1.5419
 8129SOL     OW25458   0.383   1.424   1.489  0.3539 -0.3835  0.0625
 8129SOL    HW125459   0.477   1.436   1.476  0.3567 -0.1992  0.2508
 8129SOL    HW225460   0.363   1.478   1.566  0.0223 -0.1273 -0.2071
 8130SOL     OW25461   2.780   5.004   8.163 -0.2261 -0.0786 -0.3311
 8130SOL    HW125462   2.729   5.007   8.244 -0.9992  2.1466 -0.7966
 8130SOL    HW225463   2.844   4.935   8.176 -1.5389 -1.0315  1.4296
 8131SOL     OW25464   5.533   4.207   4.068 -0.0924  0.0784 -0.2632
 8131SOL    HW125465   5.591   4.138   4.100  0.1664  2.2450  4.7409
 8131SOL    HW225466   5.587   4.286   4.069 -1.6195  1.1855 -1.3317
 8132SOL     OW25467   5.691   4.653   7.772  0.4411 -0.4647 -0.1257
 8132SOL    HW125468   5.631   4.687   7.839  0.1642 -1.4053  0.1239
 8132SOL    HW225469   5.653   4.681   7.689  0.3031 -0.0472  0.0757
 8133SOL     OW25470   6.889   2.655   4.534  0.7552  0.0465  0.3703
 8133SOL    HW125471   6.853   2.567   4.535 -0.2193  0.4147 -0.3830
 8133SOL    HW225472   6.984   2.643   4.537  0.6024 -0.9691  1.8800
 8134SOL     OW25473   0.641   0.686   0.117 -0.3550  0.3691 -0.0325
 8134SOL    HW125474   0.718   0.674   0.174  0.5965  1.2252 -1.0834
 8134SOL    HW225475   0.607   0.598   0.104  1.1690 -0.1946 -0.4708
 8135SOL     OW25476   3.668   6.965   5.404  0.1578  0.2578  0.0102
 8135SOL    HW125477   3.642   7.002   5.320 -0.3079  1.6611  0.7448
 8135SOL    HW225478   3.741   7.020   5.433  0.3657 -0.2612  0.5033
 8136SOL     OW25479   7.116   2.702   7.490 -0.0711 -0.1348  0.2187
 8136SOL    HW125480   7.145   2.789   7.466 -2.4281  0.5844 -0.3595
 8136SOL    HW225481   7.119   2.700   7.585  0.5817  0.3406  0.2130
 8137SOL     OW25482   3.932   5.760   6.359 -0.4557 -0.2824 -0.5194
 8137SOL    HW125483   4.008   5.734   6.411 -0.8222  1.4250  0.9687
 8137SOL    HW225484   3.877   5.810   6.420 -2.4497 -0.8597 -1.7289
 8138SOL     OW25485   6.887   4.801   3.164 -0.3196  0.9038 -0.5006
 8138SOL    HW125486   6.958   4.855   3.130  1.6800 -0.2178  1.6692
 8138SOL    HW225487   6.841   4.858   3.226 -1.3046  1.5759 -1.7883
 8139SOL     OW25488   6.266   4.678   6.063  0.0931 -0.0665  0.1736
 8139SOL    HW125489   6.287   4.628   6.142 -0.5016 -0.0098  0.3772
 8139SOL    HW225490   6.346   4.725   6.041  0.7816 -1.3854 -0.2263
 8140SOL     OW25491   7.942   3.631   6.627 -0.1717 -0.0781  0.4132
 8140SOL    HW125492   7.881   3.558   6.612  0.9226 -1.2479  1.3947
 8140SOL    HW225493   8.028   3.590   6.624  0.5814  1.5033 -0.7123
 8141SOL     OW25494   3.302   1.264   5.494  0.3367 -0.1167 -0.0104
 8141SOL    HW125495   3.354   1.295   5.420 -0.7183  0.1991 -0.6301
 8141SOL    HW225496   3.327   1.321   5.566 -0.5607  1.2953 -0.7916
 8142SOL     OW25497   2.596   7.825   6.373 -0.0880 -0.0244  0.0313
 8142SOL    HW125498   2.594   7.864   6.461 -0.6717  1.0462 -0.4312
 8142SOL    HW225499   2.624   7.735   6.387 -1.4901 -0.2820  1.4859
 8143SOL     OW25500   6.237   4.626   7.904 -0.0329  0.3968  0.3787
 8143SOL    HW125501   6.178   4.567   7.950  0.2589 -0.4981 -0.3549
 8143SOL    HW225502   6.191   4.648   7.823  1.3745 -1.9644 -1.2086
 8144SOL     OW25503   6.276   2.051   6.128  0.6046  0.7484  0.1760
 8144SOL    HW125504   6.184   2.079   6.124  0.7360  1.0172 -1.7718
 8144SOL    HW225505   6.288   1.997   6.050  2.2447  1.1695  0.1019
 8145SOL     OW25506   1.603   4.056   5.271  0.2646 -0.2379  0.1292
 8145SOL    HW125507   1.648   4.001   5.336  1.7627  1.1624  0.3359
 8145SOL    HW225508   1.623   4.015   5.187  1.6119  0.1216  0.2561
 8146SOL     OW25509   1.850   7.179   2.622 -0.5623 -0.8323 -0.4930
 8146SOL    HW125510   1.867   7.214   2.534  0.8128  1.1591  0.5008
 8146SOL    HW225511   1.780   7.234   2.656  0.8214  0.3207  0.6465
 8147SOL     OW25512   3.143   0.421   6.796  0.1256 -0.2327 -0.4378
 8147SOL    HW125513   3.168   0.476   6.871 -0.1318 -0.8893  0.1442
 8147SOL    HW225514   3.132   0.483   6.724  0.0083  0.4651  0.1605
 8148SOL     OW25515   3.535   6.470   1.347  0.0650  0.4630  0.4681
 8148SOL    HW125516   3.583   6.465   1.264 -1.3852 -1.0308 -0.3453
 8148SOL    HW225517   3.483   6.550   1.340  2.2767  2.1044  1.3606
 8149SOL     OW25518   4.506   5.421   2.113 -0.1844  0.0633 -0.0657
 8149SOL    HW125519   4.534   5.404   2.024 -0.7636 -0.7349 -0.1044
 8149SOL    HW225520   4.532   5.512   2.130  2.3751 -0.5979 -0.0884
 8150SOL     OW25521   4.137   6.755   5.691  0.2046 -0.6179  0.2677
 8150SOL    HW125522   4.221   6.771   5.649 -0.6335 -1.4115 -1.8003
 8150SOL    HW225523   4.093   6.690   5.636 -3.0749  2.0041 -0.5647
 8151SOL     OW25524   6.675   3.652   2.041  0.1513  0.1572 -0.0766
 8151SOL    HW125525   6.770   3.664   2.045  0.0552  0.7718  0.4616
 8151SOL    HW225526   6.645   3.668   2.131 -0.3821 -0.7531 -0.0748
 8152SOL     OW25527   2.868   2.930   4.950  0.5484  0.0194 -0.5300
 8152SOL    HW125528   2.859   2.843   4.910  1.1344  0.1205 -0.8929
 8152SOL    HW225529   2.792   2.938   5.007  0.9176 -1.0715  0.1435
 8153SOL     OW25530   0.818   3.400   1.547 -0.0180 -0.0830  0.1197
 8153SOL    HW125531   0.819   3.495   1.559  0.2103 -0.3135  2.4521
 8153SOL    HW225532   0.777   3.387   1.461 -0.4873  2.0912 -0.0518
 8154SOL     OW25533   5.536   5.012   3.512  0.7230  0.2785  0.4441
 8154SOL    HW125534   5.601   5.082   3.504 -0.9478  1.9303  0.4941
 8154SOL    HW225535   5.499   5.003   3.425 -0.1145  0.5434  0.7618
 8155SOL     OW25536   4.929   3.434   7.970  0.4237 -0.7713 -0.2361
 8155SOL    HW125537   4.987   3.438   7.894  1.1235 -1.1215  0.2663
 8155SOL    HW225538   4.988   3.430   8.045 -0.2336 -1.9835  0.2501
 8156SOL     OW25539   7.736   2.484   6.100 -0.6468 -0.2843 -0.2325
 8156SOL    HW125540   7.681   2.555   6.066 -1.3731 -0.6035  0.2585
 8156SOL    HW225541   7.680   2.406   6.098 -0.0531 -0.7264 -0.1968
 8157SOL     OW25542   4.092   6.117   6.280 -0.7816 -0.1100  0.0088
 8157SOL    HW125543   4.142   6.046   6.319  0.4176  1.3654  1.2856
 8157SOL    HW225544   4.004   6.106   6.315 -0.0928  0.2760  1.9732
 8158SOL     OW25545   0.448   6.217   3.742 -0.6723 -0.6514  0.8908
 8158SOL    HW125546   0.468   6.127   3.770  1.6779 -0.2520  0.6593
 8158SOL    HW225547   0.461   6.270   3.820 -1.4555 -0.4020  0.8676
 8159SOL     OW25548   5.375   6.315   7.662 -0.2663 -0.1450  0.3159
 8159SOL    HW125549   5.464   6.314   7.628 -0.2189  1.5154  0.3388
 8159SOL    HW225550   5.322   6.279   7.590  0.3328 -0.6034  0.0943
 8160SOL     OW25551   7.958   4.649   6.469  0.2502  0.5245 -0.1263
 8160SOL    HW125552   7.868   4.640   6.439  0.3756 -2.7029  0.0871
 8160SOL    HW225553   7.953   4.702   6.548 -1.0600  2.6174 -1.5142
 8161SOL     OW25554   5.372   4.744   4.892 -0.1931 -0.2950 -0.3513
 8161SOL    HW125555   5.459   4.782   4.881  0.0984  1.0704  4.4006
 8161SOL    HW225556   5.311   4.817   4.883 -0.4451 -0.4414  0.0848
 8162SOL     OW25557   2.400   8.065   1.291  0.6567  0.3969 -0.3766
 8162SOL    HW125558   2.324   8.081   1.235 -0.1112 -2.9487 -0.5084
 8162SOL    HW225559   2.471   8.043   1.230  1.1665  1.3926 -0.1655
 8163SOL     OW25560   5.810   0.454   0.383  0.2554  0.2703 -0.4245
 8163SOL    HW125561   5.757   0.385   0.341  1.2707 -0.3628 -0.6891
 8163SOL    HW225562   5.895   0.449   0.340  0.8378  0.6432  0.6378
 8164SOL     OW25563   5.371   0.144   0.587  0.4563  0.1609 -0.1682
 8164SOL    HW125564   5.335   0.070   0.636  0.0664  0.3084 -0.2227
 8164SOL    HW225565   5.422   0.104   0.517  1.9479 -0.0616  1.0011
 8165SOL     OW25566   5.951   3.764   2.421 -0.7188  0.2203 -0.0904
 8165SOL    HW125567   5.873   3.806   2.457 -1.0128 -0.6468  0.3076
 8165SOL    HW225568   5.998   3.730   2.497 -0.2373  0.2491 -0.3686
 8166SOL     OW25569   7.609   0.179   3.056 -1.3406  0.1956 -0.2848
 8166SOL    HW125570   7.594   0.099   3.005 -3.2514  0.4031 -0.1299
 8166SOL    HW225571   7.633   0.245   2.990 -2.2408  0.0741 -0.7637
 8167SOL     OW25572   1.308   4.883   6.999  0.4006 -0.1431  0.1839
 8167SOL    HW125573   1.337   4.905   7.088 -0.3875  0.4247  0.3101
 8167SOL    HW225574   1.236   4.944   6.982  0.6382 -0.1516 -0.8995
 8168SOL     OW25575   0.450   6.512   3.296 -0.0975  0.4343 -0.7703
 8168SOL    HW125576   0.389   6.446   3.264  0.8244 -0.1388 -1.3859
 8168SOL    HW225577   0.530   6.498   3.246  0.6268  1.0224  0.1746
 8169SOL     OW25578   1.890   4.445   1.368 -0.3049  0.4846  0.4271
 8169SOL    HW125579   1.876   4.453   1.274 -1.1486 -0.1178  0.4918
 8169SOL    HW225580   1.978   4.407   1.376  0.9036  2.9980 -0.0283
 8170SOL     OW25581   5.165   4.482   4.919  0.7482 -0.2021 -0.2414
 8170SOL    HW125582   5.104   4.472   4.993 -0.0182  1.1104 -0.6614
 8170SOL    HW225583   5.214   4.561   4.939  1.8124 -0.8439 -0.2751
 8171SOL     OW25584   6.537   6.299   4.890  0.1800 -0.0546 -0.4002
 8171SOL    HW125585   6.560   6.340   4.807  0.9225  0.6392  0.1418
 8171SOL    HW225586   6.561   6.207   4.878  2.8953  0.5310 -0.0313
 8172SOL     OW25587   3.307   0.855   2.204  0.1823 -0.1497 -0.1405
 8172SOL    HW125588   3.303   0.761   2.187 -1.0223 -0.0760 -0.3361
 8172SOL    HW225589   3.257   0.895   2.133 -1.9337  0.4003  1.5416
 8173SOL     OW25590   1.508   0.212   7.520 -0.5988  0.6025  0.1596
 8173SOL    HW125591   1.598   0.181   7.534 -1.1155 -1.2216 -0.2556
 8173SOL    HW225592   1.505   0.297   7.563  1.6699  1.2763 -0.8948
 8174SOL     OW25593   6.797   2.801   5.492 -0.0656  0.4072  0.5091
 8174SOL    HW125594   6.724   2.828   5.548 -1.1087 -0.6547 -0.2776
 8174SOL    HW225595   6.783   2.847   5.410 -0.6417 -0.7873 -0.1000
 8175SOL     OW25596   4.697   5.228   3.321 -0.0333 -0.2664 -0.4398
 8175SOL    HW125597   4.648   5.154   3.356 -0.2344 -0.3079 -0.8091
 8175SOL    HW225598   4.697   5.292   3.392  1.1808 -1.0840  0.3415
 8176SOL     OW25599   5.835   4.080   3.353  0.0664 -0.3295  0.1812
 8176SOL    HW125600   5.922   4.091   3.315 -0.1842 -1.1532 -0.6683
 8176SOL    HW225601   5.810   3.990   3.331 -0.9195 -0.1695  0.5812
 8177SOL     OW25602   2.271   1.655   1.475 -0.1961  0.1193  0.3973
 8177SOL    HW125603   2.254   1.749   1.476  1.1193  0.3706  0.5724
 8177SOL    HW225604   2.361   1.646   1.504 -0.3119 -1.2102  0.4308
 8178SOL     OW25605   1.800   1.221   3.020 -0.1705 -0.1231 -0.0739
 8178SOL    HW125606   1.775   1.132   2.992  1.0935 -0.5833  0.1924
 8178SOL    HW225607   1.772   1.225   3.112 -1.0697  0.1046 -0.3446
 8179SOL     OW25608   5.573   6.164   3.405 -0.0925 -0.5871 -0.3484
 8179SOL    HW125609   5.583   6.086   3.351  0.7474 -0.5454 -0.2594
 8179SOL    HW225610   5.652   6.167   3.458 -0.1017  0.3514 -0.3803
 8180SOL     OW25611   4.194   4.461   0.741  0.0220 -0.1702 -0.0539
 8180SOL    HW125612   4.168   4.501   0.824 -0.7153 -1.9381  0.6153
 8180SOL    HW225613   4.112   4.455   0.691  0.0520 -1.1002 -0.0086
 8181SOL     OW25614   1.076   6.061   4.196 -0.2177 -0.0965 -0.0785
 8181SOL    HW125615   1.094   6.153   4.178 -1.4564 -0.2341 -2.4952
 8181SOL    HW225616   1.148   6.013   4.156 -1.0035 -0.2447 -1.3883
 8182SOL     OW25617   4.532   3.611   4.291  0.1505 -0.1526  0.1678
 8182SOL    HW125618   4.472   3.586   4.220  1.3260  1.1651 -1.3537
 8182SOL    HW225619   4.586   3.533   4.305  0.8211 -0.0045 -1.3899
 8183SOL     OW25620   1.024   7.784   0.773  0.0538 -0.1559  0.0126
 8183SOL    HW125621   0.930   7.786   0.752  0.2162  0.6823 -0.7160
 8183SOL    HW225622   1.066   7.825   0.697  1.0673 -1.0354  0.0671
 8184SOL     OW25623   4.973   3.820   6.172 -0.1733  0.7149 -0.4139
 8184SOL    HW125624   4.929   3.760   6.233  1.5643 -1.4760 -1.1560
 8184SOL    HW225625   5.018   3.882   6.229 -0.2585 -0.0204  0.4837
 8185SOL     OW25626   5.693   1.562   8.153 -0.3545  0.3375 -0.4000
 8185SOL    HW125627   5.675   1.599   8.066  0.2790 -1.5750 -1.4079
 8185SOL    HW225628   5.609   1.525   8.180 -0.0901 -0.8913 -1.1723
 8186SOL     OW25629   0.852   5.612   4.933  0.2218 -0.4465  0.0693
 8186SOL    HW125630   0.883   5.521   4.937  1.5588  0.0026  0.8088
 8186SOL    HW225631   0.930   5.662   4.907 -0.0421  0.6648  1.3173
 8187SOL     OW25632   3.243   7.298   0.737 -0.0754 -0.1263  0.0313
 8187SOL    HW125633   3.287   7.374   0.777 -0.1535  0.2978 -0.6770
 8187SOL    HW225634   3.267   7.224   0.794  1.8009  0.0294 -0.4810
 8188SOL     OW25635   0.813   6.028   2.061  0.4262  0.1094 -0.4004
 8188SOL    HW125636   0.810   5.953   2.001  0.4653  0.4918 -0.8846
 8188SOL    HW225637   0.729   6.026   2.106  0.8142 -0.8079  0.3023
 8189SOL     OW25638   6.934   7.948   4.731 -0.6254  0.3191  0.5289
 8189SOL    HW125639   6.935   7.854   4.751  0.1871 -0.0970 -1.3070
 8189SOL    HW225640   7.017   7.981   4.766 -0.9978  0.4036  1.3467
 8190SOL     OW25641   4.992   0.417   4.210  0.4560  0.3423  0.5433
 8190SOL    HW125642   4.972   0.369   4.129 -0.7958  0.8621  0.5261
 8190SOL    HW225643   5.039   0.496   4.180 -1.0240  1.1226  0.1804
 8191SOL     OW25644   6.973   3.883   5.982 -0.4698  0.6262 -0.0538
 8191SOL    HW125645   6.879   3.899   5.972 -0.9889 -1.2017  1.4696
 8191SOL    HW225646   6.993   3.908   6.072  0.3476  0.2438 -0.1157
 8192SOL     OW25647   1.098   3.534   5.561 -0.2471  0.4883 -0.4444
 8192SOL    HW125648   1.115   3.480   5.484 -0.3364 -0.8233  0.4030
 8192SOL    HW225649   1.014   3.503   5.594  0.5362 -0.1749  1.0872
 8193SOL     OW25650   7.675   7.095   2.051  0.2312  0.0822 -0.4637
 8193SOL    HW125651   7.741   7.121   1.986  0.2041 -0.7861 -0.8448
 8193SOL    HW225652   7.606   7.053   1.999  0.5348 -1.2613  0.1821
 8194SOL     OW25653   4.875   0.016   0.498 -0.5108 -0.3595  0.1587
 8194SOL    HW125654   4.970   0.006   0.491 -0.7046 -2.5189  0.0205
 8194SOL    HW225655   4.839  -0.052   0.442 -2.1631  0.6396 -0.0573
 8195SOL     OW25656   4.226   6.041   5.548 -0.0819 -0.3924  0.1570
 8195SOL    HW125657   4.221   6.066   5.640  1.3210  1.4989 -0.2148
 8195SOL    HW225658   4.237   6.124   5.501 -1.1723 -1.2568 -1.7704
 8196SOL     OW25659   0.850   3.235   6.394  0.1169 -0.3178 -0.6864
 8196SOL    HW125660   0.923   3.270   6.445  0.1745  1.3665 -1.8484
 8196SOL    HW225661   0.839   3.146   6.427  0.8114  0.3338  1.5196
 8197SOL     OW25662   2.095   7.196   6.310  0.0167 -0.2816 -0.3275
 8197SOL    HW125663   2.133   7.276   6.346 -1.6080 -0.2973  1.5871
 8197SOL    HW225664   2.041   7.225   6.237 -0.4244  0.3947  0.2497
 8198SOL     OW25665   1.523   7.983   3.300  0.2383 -0.5560  0.4260
 8198SOL    HW125666   1.596   8.039   3.276 -0.0831 -0.3858 -0.1662
 8198SOL    HW225667   1.546   7.897   3.264 -0.3599 -0.2429 -0.7530
 8199SOL     OW25668   4.874   5.426   0.315  0.0202  0.8503 -0.3217
 8199SOL    HW125669   4.848   5.449   0.404  1.8381  2.6964 -0.1890
 8199SOL    HW225670   4.795   5.388   0.276 -0.9376  0.3770  1.9111
 8200SOL     OW25671   4.192   7.447   2.649  0.2040  0.1525 -0.7006
 8200SOL    HW125672   4.126   7.401   2.598 -1.1193  1.0055  0.1850
 8200SOL    HW225673   4.265   7.460   2.588  0.6155 -2.9401 -1.0338
 8201SOL     OW25674   3.116   4.095   5.849  0.0675  0.1448  0.0992
 8201SOL    HW125675   3.136   4.026   5.913  1.3027  0.6528  0.2919
 8201SOL    HW225676   3.201   4.114   5.808  0.0726  2.6191  1.1170
 8202SOL     OW25677   1.041   4.907   0.619  0.3270  0.6130 -0.0719
 8202SOL    HW125678   1.008   4.961   0.547  0.3017 -0.3010 -0.7707
 8202SOL    HW225679   1.051   4.820   0.580 -0.3152 -0.0606  1.2083
 8203SOL     OW25680   1.732   0.920   5.844 -0.4128  0.0138  0.0470
 8203SOL    HW125681   1.735   0.897   5.751 -0.0690  1.3882 -0.3028
 8203SOL    HW225682   1.655   0.974   5.853  1.1794  2.4591 -0.1051
 8204SOL     OW25683   3.897   4.285   5.850 -0.2156  0.3878  1.0454
 8204SOL    HW125684   3.909   4.227   5.925 -1.7901  0.4007  1.3343
 8204SOL    HW225685   3.955   4.359   5.868  1.4262 -0.7978  0.9275
 8205SOL     OW25686   3.308   3.545   6.100  0.1916 -0.8276  0.0962
 8205SOL    HW125687   3.351   3.461   6.117 -1.4278 -1.6371  0.3919
 8205SOL    HW225688   3.223   3.521   6.064 -0.5639  0.6765  0.8015
 8206SOL     OW25689   7.664   0.656   6.381  0.2228  0.0046  0.1508
 8206SOL    HW125690   7.658   0.566   6.350 -0.8906 -0.0918  0.6033
 8206SOL    HW225691   7.642   0.652   6.474 -0.1169  0.7747  0.1150
 8207SOL     OW25692   1.957   0.618   1.895  0.2679 -0.3814 -0.6699
 8207SOL    HW125693   2.041   0.583   1.924  0.7750  1.6408  0.4824
 8207SOL    HW225694   1.977   0.704   1.858 -1.1512 -0.4010 -1.5727
 8208SOL     OW25695   4.701   1.935   4.826  0.0346 -0.8133 -0.9503
 8208SOL    HW125696   4.719   1.873   4.897  0.0993  0.7453  0.4832
 8208SOL    HW225697   4.780   1.989   4.822 -1.7718  2.4274  1.4554
 8209SOL     OW25698   4.641   1.462   2.633 -0.4782 -0.0735 -0.5390
 8209SOL    HW125699   4.703   1.450   2.562 -0.2006  0.1387 -0.3352
 8209SOL    HW225700   4.674   1.538   2.681  0.2978 -1.2291  0.8289
 8210SOL     OW25701   1.613   7.057   5.893 -0.1852  0.3803  0.1551
 8210SOL    HW125702   1.608   7.008   5.811 -0.2822  2.7499 -1.3665
 8210SOL    HW225703   1.529   7.039   5.936 -0.0351 -1.0930 -0.1052
 8211SOL     OW25704   1.742   5.808   2.738  0.2010  0.6614  0.2437
 8211SOL    HW125705   1.695   5.751   2.676 -1.3433  0.9584  1.0844
 8211SOL    HW225706   1.786   5.873   2.682 -1.6742  1.3171 -0.5734
 8212SOL     OW25707   5.926   5.837   3.707 -0.3217  0.2124 -0.0899
 8212SOL    HW125708   5.940   5.757   3.758 -0.6252 -1.1621 -2.0448
 8212SOL    HW225709   5.873   5.893   3.763 -0.2609 -1.0430  1.2590
 8213SOL     OW25710   4.971   4.256   2.842 -0.3589 -0.2103  0.1534
 8213SOL    HW125711   5.065   4.243   2.826 -0.2404  0.2461  0.4532
 8213SOL    HW225712   4.937   4.287   2.758 -0.6260 -2.2218 -0.5440
 8214SOL     OW25713   3.416   8.002   5.845  0.0311 -0.4338  0.4199
 8214SOL    HW125714   3.427   8.023   5.752  0.2520  0.8174  0.7123
 8214SOL    HW225715   3.414   7.907   5.848 -2.0626 -0.5049 -1.1253
 8215SOL     OW25716   7.449   7.469   6.775  0.1701 -0.1031 -0.1147
 8215SOL    HW125717   7.430   7.563   6.771  0.6231  0.0351  0.8705
 8215SOL    HW225718   7.536   7.463   6.813  0.8153 -0.8754 -1.5980
 8216SOL     OW25719   3.733   2.360   6.757  0.4101 -0.1697 -0.0981
 8216SOL    HW125720   3.729   2.271   6.723  0.3455  0.1271 -0.8837
 8216SOL    HW225721   3.780   2.352   6.840  0.2708 -0.9549 -0.0940
 8217SOL     OW25722   4.055   1.725   2.486  0.4541 -0.2499  0.0722
 8217SOL    HW125723   4.021   1.737   2.575 -0.0848 -0.9481 -0.0337
 8217SOL    HW225724   3.995   1.774   2.430  0.1041 -0.7926 -0.0286
 8218SOL     OW25725   5.738   3.266   6.297  0.2167  0.2640 -0.0368
 8218SOL    HW125726   5.744   3.177   6.332 -1.4623 -0.8108 -2.2658
 8218SOL    HW225727   5.728   3.254   6.203 -0.2968  2.8191 -0.3714
 8219SOL     OW25728   3.526   7.879   6.121 -0.5003 -0.5194  0.6136
 8219SOL    HW125729   3.476   7.919   6.192  1.1302 -1.5965  2.5025
 8219SOL    HW225730   3.562   7.799   6.160  1.3899 -0.5729 -1.0784
 8220SOL     OW25731   0.521   2.630   3.267  0.3668  1.1448  0.2035
 8220SOL    HW125732   0.509   2.596   3.178  0.0090  3.2182 -0.6201
 8220SOL    HW225733   0.478   2.567   3.324 -2.7889  1.6050 -1.4733
 8221SOL     OW25734   4.855   4.196   5.806 -0.2196  0.1342  0.6369
 8221SOL    HW125735   4.861   4.101   5.813 -1.3406  0.0586  0.6623
 8221SOL    HW225736   4.943   4.227   5.829  0.8019 -0.9977 -1.3851
 8222SOL     OW25737   5.550   4.491   3.514 -0.5922  0.0129 -0.5550
 8222SOL    HW125738   5.498   4.543   3.575 -0.8449 -0.9772  0.0928
 8222SOL    HW225739   5.632   4.475   3.560  0.1118  1.1023 -1.3568
 8223SOL     OW25740   8.040   4.236   7.383  0.0977 -0.0489  0.0976
 8223SOL    HW125741   7.975   4.222   7.314 -0.5200 -1.6370  0.9439
 8223SOL    HW225742   8.053   4.331   7.384 -0.2887  0.0719 -1.7979
 8224SOL     OW25743   1.990   4.005   0.128  0.3242 -0.1194 -0.4106
 8224SOL    HW125744   2.032   4.029   0.046  0.7842  0.6184  0.0405
 8224SOL    HW225745   2.010   4.076   0.188 -0.0114 -0.6491  0.3487
 8225SOL     OW25746   5.250   1.930   3.966  0.0503 -0.1908 -0.4784
 8225SOL    HW125747   5.179   1.938   4.029  2.3277  0.6552  2.2068
 8225SOL    HW225748   5.281   2.020   3.953  1.4339 -0.6484 -0.5420
 8226SOL     OW25749   6.131   6.218   6.855 -0.4351 -0.7203 -0.2153
 8226SOL    HW125750   6.217   6.236   6.893 -0.4097  0.6990 -0.8824
 8226SOL    HW225751   6.069   6.247   6.922 -0.3807  0.4177 -0.6274
 8227SOL     OW25752   1.915   7.409   5.160 -0.0788 -0.8040 -0.7117
 8227SOL    HW125753   1.985   7.469   5.187 -0.2690  0.6867 -3.1879
 8227SOL    HW225754   1.851   7.414   5.230  2.3691 -2.5551  1.8704
 8228SOL     OW25755   2.554   5.897   7.548  0.2640 -0.3382  0.3093
 8228SOL    HW125756   2.503   5.905   7.467 -0.7313 -3.7501  0.4189
 8228SOL    HW225757   2.638   5.860   7.519  0.8167  0.6096  0.6524
 8229SOL     OW25758   4.623   0.675   0.722 -0.1848 -0.2986  0.0761
 8229SOL    HW125759   4.549   0.667   0.783  0.8193  0.2770  1.4149
 8229SOL    HW225760   4.687   0.728   0.769  1.6314 -1.8700 -0.5230
 8230SOL     OW25761   4.299   2.106   4.503 -0.0402 -0.0866  0.1350
 8230SOL    HW125762   4.367   2.047   4.536  1.2503  0.0873 -2.0054
 8230SOL    HW225763   4.284   2.169   4.574  0.2579 -1.5589  1.5582
 8231SOL     OW25764   3.751   5.788   7.859  0.5911  0.4440  0.5851
 8231SOL    HW125765   3.718   5.760   7.945 -2.4506  1.6826 -0.0624
 8231SOL    HW225766   3.707   5.730   7.797 -0.0324  1.8189 -0.3066
 8232SOL     OW25767   7.781   0.087   1.663 -0.1789 -0.7262 -0.0923
 8232SOL    HW125768   7.778  -0.008   1.648 -1.5781 -1.0792  1.9835
 8232SOL    HW225769   7.775   0.125   1.576  0.9997 -2.5295 -1.0249
 8233SOL     OW25770   2.576   7.007   1.684 -0.0048 -0.3397  0.8702
 8233SOL    HW125771   2.613   6.919   1.682 -1.7177 -1.0869  0.3631
 8233SOL    HW225772   2.649   7.065   1.664  1.7522 -1.4084  3.6867
 8234SOL     OW25773   7.049   5.717   2.615 -0.0626 -0.1832 -0.1357
 8234SOL    HW125774   7.061   5.754   2.528 -2.1460  2.0447  0.4305
 8234SOL    HW225775   7.125   5.747   2.665  1.1937 -1.5619 -1.1605
 8235SOL     OW25776   4.905   3.887   3.861 -0.3942 -0.5651  0.4448
 8235SOL    HW125777   4.852   3.930   3.794 -0.2862 -2.1676 -0.7033
 8235SOL    HW225778   4.846   3.880   3.936 -0.5913  1.0179  0.4830
 8236SOL     OW25779   1.542   6.043   5.926 -0.3128 -0.7087 -0.3006
 8236SOL    HW125780   1.454   6.060   5.893 -0.0432  1.0186 -0.2632
 8236SOL    HW225781   1.531   5.971   5.988 -2.0823  0.6579  1.1189
 8237SOL     OW25782   2.622   5.198   5.405 -0.3891  0.0425 -0.1190
 8237SOL    HW125783   2.669   5.275   5.376  0.2542 -0.5191 -0.6011
 8237SOL    HW225784   2.685   5.149   5.458  0.1077 -1.4691 -1.9968
 8238SOL     OW25785   1.268   1.845   1.869 -0.5363  0.2203 -0.0602
 8238SOL    HW125786   1.181   1.850   1.910 -0.1777 -2.8469  1.4427
 8238SOL    HW225787   1.250   1.816   1.780 -1.0973 -0.8289  0.3666
 8239SOL     OW25788   7.482   1.185   6.416  0.7162  0.2075 -0.1590
 8239SOL    HW125789   7.448   1.097   6.400 -1.1194  0.8158  0.2081
 8239SOL    HW225790   7.567   1.186   6.371 -0.0055 -1.1854 -1.6543
 8240SOL     OW25791   2.617   0.806   7.816 -0.0897 -0.1049  0.7703
 8240SOL    HW125792   2.689   0.835   7.760 -0.7334  0.4614  0.2215
 8240SOL    HW225793   2.541   0.856   7.786 -0.4213  0.3286  2.2511
 8241SOL     OW25794   4.637   3.354   4.020 -0.2363  0.0350  0.3933
 8241SOL    HW125795   4.637   3.288   4.089  1.2150 -0.5752 -0.1351
 8241SOL    HW225796   4.556   3.403   4.033 -1.6878 -2.2159  0.4430
 8242SOL     OW25797   7.394   0.258   7.722  0.0415 -0.1150 -0.4410
 8242SOL    HW125798   7.346   0.227   7.799 -0.7510 -1.9814 -1.6081
 8242SOL    HW225799   7.368   0.350   7.713 -1.4877 -0.4392  0.3286
 8243SOL     OW25800   6.500   1.329   5.219 -0.7310  0.3419  0.0807
 8243SOL    HW125801   6.474   1.238   5.210 -0.1507  0.2657 -1.1400
 8243SOL    HW225802   6.442   1.376   5.159 -0.0144  0.5531 -0.4633
 8244SOL     OW25803   1.474   5.321   0.325 -0.2813  0.0779 -0.4614
 8244SOL    HW125804   1.411   5.392   0.336 -0.3997  0.8204 -4.5681
 8244SOL    HW225805   1.559   5.362   0.340 -0.4944  0.3588 -0.0032
 8245SOL     OW25806   4.891   1.844   2.966  0.4963  0.7944 -0.1198
 8245SOL    HW125807   4.865   1.827   3.056  1.9487 -0.0866  0.1669
 8245SOL    HW225808   4.827   1.796   2.913 -0.4832  1.4796  0.4191
 8246SOL     OW25809   1.118   7.547   5.526  0.2514 -0.4075 -0.2567
 8246SOL    HW125810   1.133   7.630   5.481  0.3467 -1.2645 -1.8776
 8246SOL    HW225811   1.195   7.535   5.581  0.6528  0.1555 -0.6829
 8247SOL     OW25812   1.394   5.642   6.257  0.1821  0.2790  0.1515
 8247SOL    HW125813   1.383   5.557   6.300  1.1530  0.0407 -0.0383
 8247SOL    HW225814   1.354   5.705   6.316  0.9950 -0.1100  1.1423
 8248SOL     OW25815   7.053   1.391   7.560 -0.0248  0.7701 -0.6984
 8248SOL    HW125816   7.125   1.443   7.525  1.3570 -0.9026 -0.4615
 8248SOL    HW225817   7.038   1.324   7.493 -0.7281  0.5122 -0.2945
 8249SOL     OW25818   2.452   1.479   4.811  0.2171  0.8159 -0.4428
 8249SOL    HW125819   2.420   1.569   4.805  0.4285  1.0501  1.2420
 8249SOL    HW225820   2.469   1.467   4.905  0.4536 -0.8911 -0.6824
 8250SOL     OW25821   8.111   4.597   0.205  0.1587 -0.3998  0.0131
 8250SOL    HW125822   8.129   4.607   0.111 -1.5453  0.7463 -0.2556
 8250SOL    HW225823   8.034   4.652   0.220 -1.7639 -3.2095  1.3833
 8251SOL     OW25824   1.496   1.165   0.223  0.0531 -0.3575  0.2289
 8251SOL    HW125825   1.534   1.205   0.301  1.5905  0.5831 -0.9673
 8251SOL    HW225826   1.491   1.235   0.159  0.4722 -1.5027 -1.1039
 8252SOL     OW25827   7.864   3.532   2.098  0.5478 -0.2746 -0.0929
 8252SOL    HW125828   7.896   3.447   2.128  0.2671 -0.3975 -0.1284
 8252SOL    HW225829   7.942   3.586   2.089  0.6417 -0.2473  0.8035
 8253SOL     OW25830   5.331   3.583   5.226 -0.2754 -0.8994  0.6816
 8253SOL    HW125831   5.368   3.671   5.232 -2.8173  0.2386  1.2791
 8253SOL    HW225832   5.307   3.560   5.316  1.0899 -2.6161  0.6654
 8254SOL     OW25833   0.094   7.618   5.711  0.8549 -0.2856  0.1208
 8254SOL    HW125834   0.112   7.663   5.628  0.9253 -0.7048 -0.0956
 8254SOL    HW225835   0.012   7.657   5.741  1.3357  0.5660  0.3564
 8255SOL     OW25836   4.181   1.568   4.846 -0.3315 -0.1213  0.5887
 8255SOL    HW125837   4.093   1.548   4.878 -0.4823  0.6356  0.6533
 8255SOL    HW225838   4.184   1.663   4.842  0.5926 -0.1296  0.8871
 8256SOL     OW25839   1.224   4.793   1.646 -0.1711 -0.7647 -0.1233
 8256SOL    HW125840   1.318   4.802   1.628 -0.2585  0.6900  0.0659
 8256SOL    HW225841   1.183   4.795   1.559 -0.1570  0.5534 -0.1186
 8257SOL     OW25842   6.643   7.513   6.584 -0.7478  0.1936 -0.4367
 8257SOL    HW125843   6.554   7.536   6.557 -1.2273 -0.0788  0.8269
 8257SOL    HW225844   6.688   7.597   6.593 -1.3507  0.4463  0.3971
 8258SOL     OW25845   1.474   3.441   2.980  0.2098  0.2532 -0.4085
 8258SOL    HW125846   1.565   3.420   3.000  0.5361  0.2263 -1.8280
 8258SOL    HW225847   1.451   3.382   2.908 -0.9647  0.1984 -0.0113
 8259SOL     OW25848   3.271   2.437   3.325 -0.4193  0.0126 -0.1377
 8259SOL    HW125849   3.271   2.399   3.412 -1.9811 -1.5918 -0.7699
 8259SOL    HW225850   3.361   2.430   3.295  0.0505  0.2116  1.1690
 8260SOL     OW25851   7.272   2.320   1.968 -0.0649  0.0728  0.5144
 8260SOL    HW125852   7.200   2.335   1.907 -1.5068 -0.3458  2.0251
 8260SOL    HW225853   7.264   2.227   1.992 -0.0216  0.4045  1.9048
 8261SOL     OW25854   3.539   6.394   5.283  0.1360 -0.3805  0.1740
 8261SOL    HW125855   3.549   6.359   5.371  2.0596 -0.8360 -0.1611
 8261SOL    HW225856   3.459   6.445   5.285  0.3235 -0.1127  2.2659
 8262SOL     OW25857   1.785   1.699   6.815  0.5033 -0.5529  0.5852
 8262SOL    HW125858   1.723   1.632   6.845 -0.4110 -1.4045 -2.7649
 8262SOL    HW225859   1.868   1.652   6.807  0.0029 -1.2149 -1.1652
 8263SOL     OW25860   5.157   1.853   0.490 -0.2460  0.3209  0.1931
 8263SOL    HW125861   5.229   1.870   0.552  0.7594 -0.0821 -0.8299
 8263SOL    HW225862   5.195   1.871   0.404 -1.1686 -0.5573 -0.4202
 8264SOL     OW25863   2.374   3.637   0.692 -0.2305 -0.0595  0.2718
 8264SOL    HW125864   2.316   3.562   0.709 -1.5127  1.0506  0.9425
 8264SOL    HW225865   2.444   3.627   0.756  0.0616 -1.1412 -0.2003
 8265SOL     OW25866   5.270   5.631   2.722 -0.7442 -0.0548 -0.6823
 8265SOL    HW125867   5.276   5.554   2.779 -1.6586 -0.1881 -0.7491
 8265SOL    HW225868   5.193   5.614   2.667 -1.0192  0.9631 -0.6261
 8266SOL     OW25869   4.021   0.771   6.297  0.1573  1.1168  0.0350
 8266SOL    HW125870   4.102   0.731   6.328  0.1141  1.2607  0.3366
 8266SOL    HW225871   4.048   0.857   6.266  0.5454  0.2750 -2.1658
 8267SOL     OW25872   2.739   0.196   7.090  0.0522  0.7269 -0.2242
 8267SOL    HW125873   2.768   0.282   7.059  0.3714  1.0683  0.9594
 8267SOL    HW225874   2.753   0.199   7.185 -2.7981  0.5001  0.2921
 8268SOL     OW25875   5.758   3.844   2.249  0.1496  0.1931 -0.3758
 8268SOL    HW125876   5.786   3.920   2.198  0.3950 -0.3104 -1.0162
 8268SOL    HW225877   5.831   3.827   2.309  0.0831  0.4755 -0.2147
 8269SOL     OW25878   0.878   7.892   3.179  0.3916  0.2316  0.2306
 8269SOL    HW125879   0.932   7.870   3.255  0.4333  1.7372  0.6774
 8269SOL    HW225880   0.892   7.819   3.118 -0.3191 -1.4561  1.9835
 8270SOL     OW25881   5.903   7.256   3.904 -0.4918 -0.0588 -0.5760
 8270SOL    HW125882   5.853   7.338   3.908  0.0081  0.1905  0.9048
 8270SOL    HW225883   5.858   7.204   3.837 -1.3482  1.0661 -0.9060
 8271SOL     OW25884   1.271   3.683   0.975  0.2218 -1.1601  0.0548
 8271SOL    HW125885   1.306   3.637   0.899 -0.9468 -0.1723 -1.1122
 8271SOL    HW225886   1.181   3.652   0.983  0.6902 -2.2173  1.8473
 8272SOL     OW25887   2.291   5.809   5.085  0.1592  0.3731  0.2033
 8272SOL    HW125888   2.229   5.736   5.080  0.6190 -0.1433  1.4834
 8272SOL    HW225889   2.237   5.887   5.075 -0.3526 -0.1305 -1.1111
 8273SOL     OW25890   3.336   3.869   3.933  0.5025 -1.0384 -0.5686
 8273SOL    HW125891   3.351   3.817   4.013  2.3570 -1.0617 -0.8699
 8273SOL    HW225892   3.375   3.954   3.953 -2.0271  0.1262 -0.2835
 8274SOL     OW25893   4.028   1.442   0.350 -0.1478  0.3649 -0.2734
 8274SOL    HW125894   3.994   1.508   0.410 -0.5020  0.2949 -0.3923
 8274SOL    HW225895   4.028   1.486   0.264  0.4499  0.4979 -0.2051
 8275SOL     OW25896   7.873   5.159   4.829  0.1166  0.3214 -0.2569
 8275SOL    HW125897   7.779   5.148   4.837 -0.2244  2.1560 -1.2577
 8275SOL    HW225898   7.890   5.155   4.735  1.0934 -0.3027 -0.0714
 8276SOL     OW25899   5.935   6.127   7.554 -0.4902 -0.4138  0.1656
 8276SOL    HW125900   6.017   6.126   7.603  0.1681  1.8662 -0.7677
 8276SOL    HW225901   5.883   6.196   7.596 -0.1778  1.1263 -1.8029
 8277SOL     OW25902   4.120   0.235   4.845  0.1952  0.0354 -0.3895
 8277SOL    HW125903   4.044   0.177   4.843 -0.0986  0.4276 -1.5576
 8277SOL    HW225904   4.083   0.321   4.865  0.4937  0.0070  0.2915
 8278SOL     OW25905   3.169   8.028   3.296 -0.4063 -0.0990 -0.5084
 8278SOL    HW125906   3.208   7.947   3.262 -1.0334  0.2550 -2.1818
 8278SOL    HW225907   3.084   8.033   3.253 -0.4708  1.3416 -0.2693
 8279SOL     OW25908   6.615   0.659   3.449 -0.1760 -0.3306 -0.3854
 8279SOL    HW125909   6.530   0.699   3.467 -0.3257 -0.2987 -1.1108
 8279SOL    HW225910   6.678   0.721   3.484 -0.4573 -0.8916  1.1994
 8280SOL     OW25911   6.226   4.850   4.161  0.0407  0.4988 -0.8053
 8280SOL    HW125912   6.136   4.818   4.160  0.1471  0.1884 -1.4056
 8280SOL    HW225913   6.243   4.875   4.070  0.5530  0.5621 -0.6939
 8281SOL     OW25914   3.290   2.763   2.080 -0.1141 -0.0469 -0.1269
 8281SOL    HW125915   3.239   2.840   2.054 -0.7571 -0.1138  0.8677
 8281SOL    HW225916   3.227   2.691   2.079  0.2481 -0.3707 -0.0831
 8282SOL     OW25917   7.029   6.566   1.991 -0.7592  0.6136  0.0470
 8282SOL    HW125918   6.980   6.487   2.013  1.2775 -0.6818  0.1698
 8282SOL    HW225919   7.030   6.618   2.072  0.7791 -0.8723  1.0365
 8283SOL     OW25920   5.061   7.048   6.066 -0.1767 -0.4755  0.1425
 8283SOL    HW125921   4.975   7.008   6.080  0.2638 -0.9968  1.5480
 8283SOL    HW225922   5.073   7.106   6.141  1.1269 -1.2029  0.5205
 8284SOL     OW25923   7.991   4.533   5.756  0.5602 -0.0553 -0.3455
 8284SOL    HW125924   7.994   4.628   5.741  0.2506 -0.2550 -1.8239
 8284SOL    HW225925   8.078   4.502   5.728  0.4251 -0.2853 -0.5145
 8285SOL     OW25926   4.979   7.229   7.389  0.2704  0.0201 -0.1539
 8285SOL    HW125927   4.992   7.324   7.386 -0.0036  0.0392 -2.2119
 8285SOL    HW225928   4.946   7.212   7.478  0.2272  1.8545  0.2151
 8286SOL     OW25929   5.721   1.992   0.085 -0.2432 -0.2720  0.3213
 8286SOL    HW125930   5.731   1.994  -0.010 -0.7944 -1.5812  0.2129
 8286SOL    HW225931   5.785   2.055   0.117  0.7886 -0.6714 -0.8654
 8287SOL     OW25932   6.586   2.543   3.799 -0.0105 -0.1169 -0.0053
 8287SOL    HW125933   6.555   2.621   3.845 -1.1033 -2.1618  3.0247
 8287SOL    HW225934   6.511   2.513   3.748  0.5159  0.9188 -1.4515
 8288SOL     OW25935   0.357   1.355   3.514  0.1595  0.6266  0.1961
 8288SOL    HW125936   0.367   1.376   3.607 -0.4385 -0.4879  0.5272
 8288SOL    HW225937   0.383   1.263   3.507  0.8204  0.8767 -0.8601
 8289SOL     OW25938   2.138   7.537   5.269  0.4605  0.2118 -0.1042
 8289SOL    HW125939   2.145   7.510   5.360 -1.0310  0.0386 -0.0191
 8289SOL    HW225940   2.222   7.512   5.230  0.0182 -2.5318  0.5103
 8290SOL     OW25941   2.270   1.578   6.811 -0.5441  0.0523  0.2256
 8290SOL    HW125942   2.339   1.512   6.808 -1.4009 -0.8374 -0.6846
 8290SOL    HW225943   2.298   1.639   6.879  0.9952 -0.4310  0.0622
 8291SOL     OW25944   2.827   7.256   1.522 -0.1496  0.4818 -0.0015
 8291SOL    HW125945   2.830   7.164   1.498 -0.9128  0.2111  0.8859
 8291SOL    HW225946   2.813   7.256   1.617 -1.4334  1.5055 -0.1682
 8292SOL     OW25947   2.602   0.445   2.503  0.6059  0.5942 -0.3746
 8292SOL    HW125948   2.678   0.502   2.497  1.1237  0.0095  0.5522
 8292SOL    HW225949   2.612   0.384   2.430  0.7085  0.8688 -0.5961
 8293SOL     OW25950   4.486   6.011   5.265 -0.2611  0.0960  0.6084
 8293SOL    HW125951   4.497   5.943   5.330  0.7575 -0.7808 -0.4428
 8293SOL    HW225952   4.402   5.991   5.222 -0.2346 -0.1537  0.6765
 8294SOL     OW25953   0.781   1.027   3.391  0.4735  1.0154 -0.5826
 8294SOL    HW125954   0.725   1.037   3.313 -0.3391  2.0346  0.1040
 8294SOL    HW225955   0.849   1.093   3.379 -0.3532  2.0442  0.1230
 8295SOL     OW25956   7.802   0.733   3.324  0.0588  0.0817  0.5009
 8295SOL    HW125957   7.785   0.805   3.385  0.3190  1.0695 -0.5573
 8295SOL    HW225958   7.747   0.662   3.356  2.4570 -0.5447  3.7356
 8296SOL     OW25959   2.179   5.039   0.434  0.1868 -0.1783  0.0868
 8296SOL    HW125960   2.113   5.108   0.429  0.9561  0.5569 -0.2569
 8296SOL    HW225961   2.151   4.973   0.371  0.6897  0.9566 -1.3807
 8297SOL     OW25962   0.342   6.580   6.587  0.3796 -0.0074 -0.1150
 8297SOL    HW125963   0.406   6.509   6.592 -0.6116 -0.9233 -0.1874
 8297SOL    HW225964   0.273   6.555   6.649 -1.6656 -0.8419 -2.5673
 8298SOL     OW25965   5.818   2.750   1.110  0.3587 -0.3968  0.0723
 8298SOL    HW125966   5.806   2.657   1.128 -0.6762 -0.3705 -0.3800
 8298SOL    HW225967   5.730   2.787   1.118  0.0751 -0.0832 -3.1379
 8299SOL     OW25968   4.915   7.963   2.248 -0.5469  0.0266 -0.3298
 8299SOL    HW125969   4.855   7.906   2.200 -0.2854 -0.3853 -0.1672
 8299SOL    HW225970   4.860   8.036   2.277 -0.4905  0.8141 -2.1289
 8300SOL     OW25971   2.003   2.483   7.263  0.2401 -0.2602 -0.4671
 8300SOL    HW125972   1.964   2.396   7.262  2.4977 -1.3763 -1.7086
 8300SOL    HW225973   1.934   2.541   7.296 -0.5895 -2.8178  2.7836
 8301SOL     OW25974   0.291   4.262   8.057  0.3201  0.1524  0.3639
 8301SOL    HW125975   0.307   4.173   8.089  1.2797  0.2490  0.1673
 8301SOL    HW225976   0.371   4.310   8.077  0.0621  0.8091 -0.1307
 8302SOL     OW25977   7.841   1.950   7.108  0.0803  0.4511  0.5591
 8302SOL    HW125978   7.815   1.867   7.069 -0.7218  0.0511  1.8638
 8302SOL    HW225979   7.933   1.959   7.085  0.8259 -1.9109  2.1675
 8303SOL     OW25980   3.738   2.084   1.450 -0.5785  0.1942  0.0990
 8303SOL    HW125981   3.674   2.015   1.468  0.1150 -0.1129  1.5856
 8303SOL    HW225982   3.821   2.049   1.485 -0.1602  1.6394  0.6042
 8304SOL     OW25983   6.564   2.383   3.178  0.1146  0.3435  0.3259
 8304SOL    HW125984   6.583   2.307   3.233 -1.4591 -0.0427  0.3818
 8304SOL    HW225985   6.585   2.458   3.233 -0.4032 -0.0491  1.0700
 8305SOL     OW25986   4.528   6.918   3.867  0.8837 -0.3156  0.3073
 8305SOL    HW125987   4.560   6.828   3.868  0.7833 -0.3495  1.0517
 8305SOL    HW225988   4.445   6.915   3.913  1.7888  0.4593  2.1116
 8306SOL     OW25989   6.193   4.656   5.098 -0.1189  0.0138  0.0569
 8306SOL    HW125990   6.255   4.603   5.049 -0.4405  1.3127 -1.8916
 8306SOL    HW225991   6.119   4.667   5.038 -1.0266  0.7493  1.2762
 8307SOL     OW25992   4.216   6.595   0.211  0.3361  0.1741 -0.2011
 8307SOL    HW125993   4.294   6.620   0.260  0.7607  0.5354 -1.0442
 8307SOL    HW225994   4.247   6.581   0.122 -0.4539 -0.3017 -0.4094
 8308SOL     OW25995   5.468   6.009   7.095 -0.3043 -0.0470 -0.1617
 8308SOL    HW125996   5.486   5.915   7.100 -1.6549 -0.2633  1.5702
 8308SOL    HW225997   5.478   6.040   7.185 -0.8741  1.2658 -0.5295
 8309SOL     OW25998   0.663   6.691   4.330  0.0917  0.3025 -0.0415
 8309SOL    HW125999   0.708   6.608   4.314 -0.9321 -0.3287  0.2237
 8309SOL    HW226000   0.722   6.740   4.386  1.2498  0.2611 -1.1850
 8310SOL     OW26001   0.907   0.993   1.797 -0.1407 -0.0607  0.1479
 8310SOL    HW126002   0.870   0.906   1.786  2.1703 -1.0052 -0.7083
 8310SOL    HW226003   0.860   1.047   1.733 -2.3884 -0.3238  1.4540
 8311SOL     OW26004   5.956   2.133   4.649  0.2016 -0.4655  0.0424
 8311SOL    HW126005   5.890   2.078   4.690  0.8306 -1.2376  0.0401
 8311SOL    HW226006   5.994   2.182   4.722 -0.2802 -0.1092  0.0595
 8312SOL     OW26007   4.509   3.646   6.205 -0.6703 -0.3419 -0.0430
 8312SOL    HW126008   4.453   3.668   6.130 -1.7489  1.6252  1.2274
 8312SOL    HW226009   4.579   3.711   6.202 -0.4596 -0.5462  0.4057
 8313SOL     OW26010   6.899   4.205   7.392  0.1537 -0.1263  0.2284
 8313SOL    HW126011   6.823   4.167   7.348 -0.6527  0.5191  1.0245
 8313SOL    HW226012   6.948   4.129   7.425  0.1900 -0.5686 -0.7964
 8314SOL     OW26013   0.892   0.398   3.279  0.1398 -0.5949 -0.0023
 8314SOL    HW126014   0.962   0.362   3.334  0.3247 -0.1697  0.0447
 8314SOL    HW226015   0.818   0.338   3.292  0.1215 -0.4061  0.8602
 8315SOL     OW26016   6.139   7.215   2.737 -0.2562 -0.3179 -0.4256
 8315SOL    HW126017   6.073   7.190   2.673 -0.1704 -1.7489  0.0078
 8315SOL    HW226018   6.129   7.152   2.808  0.2227  0.6981  0.5870
 8316SOL     OW26019   2.253   4.520   1.753 -0.1113 -0.2733 -0.3452
 8316SOL    HW126020   2.222   4.575   1.825  0.6384  0.5294 -0.6197
 8316SOL    HW226021   2.249   4.431   1.787 -2.2341 -0.1772 -0.2036
 8317SOL     OW26022   3.610   0.276   6.926 -0.2879 -0.5229 -0.1753
 8317SOL    HW126023   3.564   0.195   6.950  0.4123 -1.4883 -1.9122
 8317SOL    HW226024   3.703   0.251   6.925  0.0646  0.6758  0.5769
 8318SOL     OW26025   7.354   5.133   7.326  0.0104  0.0254 -0.3781
 8318SOL    HW126026   7.332   5.154   7.417  0.7539 -0.6919 -0.0221
 8318SOL    HW226027   7.331   5.040   7.317  0.9895 -0.2030 -0.5791
 8319SOL     OW26028   3.258   0.072   7.504 -0.3028  0.0822 -0.3418
 8319SOL    HW126029   3.231   0.098   7.592 -0.3611 -1.9407  0.2787
 8319SOL    HW226030   3.354   0.076   7.506 -0.2946 -0.2148 -0.0901
 8320SOL     OW26031   0.368   2.009   1.019  0.4577  0.5915 -0.1470
 8320SOL    HW126032   0.454   1.973   1.041  0.8606  0.4956 -1.7416
 8320SOL    HW226033   0.376   2.102   1.038  0.2713  0.2800  1.5296
 8321SOL     OW26034   0.455   3.330   3.820 -0.3998  0.3028 -0.1913
 8321SOL    HW126035   0.451   3.257   3.758 -0.1935  0.8062 -0.8069
 8321SOL    HW226036   0.484   3.290   3.902  1.8052  0.0091 -1.0570
 8322SOL     OW26037   4.675   4.815   6.835 -0.3978 -0.3945 -0.1157
 8322SOL    HW126038   4.621   4.784   6.908 -1.0247  2.4891  0.7759
 8322SOL    HW226039   4.698   4.736   6.787 -1.6082 -2.2110  2.0812
 8323SOL     OW26040   1.356   0.070   6.908  0.0411  0.2999 -0.5710
 8323SOL    HW126041   1.410   0.149   6.912 -1.1641  1.1942 -1.3710
 8323SOL    HW226042   1.277   0.097   6.861 -1.5744 -0.6811  1.4306
 8324SOL     OW26043   3.427   1.764   2.800  0.0321 -0.4748  0.5822
 8324SOL    HW126044   3.347   1.813   2.778 -0.3477 -1.4134 -0.2367
 8324SOL    HW226045   3.456   1.801   2.883 -1.7278 -0.6590  1.3194
 8325SOL     OW26046   7.679   4.846   3.052  0.4775  0.7066 -0.6893
 8325SOL    HW126047   7.761   4.874   3.093  1.2438  0.0763 -1.7117
 8325SOL    HW226048   7.653   4.920   2.997 -0.1391  1.2537  0.3132
 8326SOL     OW26049   3.469   1.515   2.700 -0.3153 -0.5407 -0.2327
 8326SOL    HW126050   3.443   1.602   2.733  0.6667 -0.0655 -0.6679
 8326SOL    HW226051   3.564   1.514   2.707 -0.0018 -0.3514 -3.0938
 8327SOL     OW26052   2.206   2.675   7.180  0.2480  0.5521 -0.2970
 8327SOL    HW126053   2.149   2.728   7.124  0.6141  1.4542  0.1711
 8327SOL    HW226054   2.151   2.601   7.206  0.0850  0.0675 -1.8917
 8328SOL     OW26055   6.332   4.338   2.326  0.0600 -0.4161  0.5894
 8328SOL    HW126056   6.265   4.363   2.390 -0.2464  0.0909  0.0820
 8328SOL    HW226057   6.326   4.406   2.259  1.4073 -0.0998  0.7661
 8329SOL     OW26058   7.933   4.789   1.903  0.2493  0.5231 -0.1397
 8329SOL    HW126059   7.973   4.703   1.917  0.9254  0.8280 -0.1291
 8329SOL    HW226060   7.909   4.819   1.990  0.6137  0.6222 -0.0717
 8330SOL     OW26061   6.121   0.296   5.384 -0.6089  0.1447 -0.0307
 8330SOL    HW126062   6.077   0.375   5.415 -2.2900 -0.5563 -0.5058
 8330SOL    HW226063   6.214   0.319   5.383 -0.9385  1.6881  1.0300
 8331SOL     OW26064   5.580   6.645   4.711  0.7054  0.2990 -0.3772
 8331SOL    HW126065   5.581   6.707   4.638 -0.6004 -0.7561 -1.3432
 8331SOL    HW226066   5.647   6.580   4.688  0.2961 -0.0317 -0.6525
 8332SOL     OW26067   5.154   7.293   8.067 -0.1838  0.1139  0.1878
 8332SOL    HW126068   5.137   7.207   8.029 -0.3114  0.8477 -1.4599
 8332SOL    HW226069   5.248   7.296   8.080 -0.1238 -0.0716 -0.2202
 8333SOL     OW26070   2.709   0.906   1.130 -0.1868 -0.9178 -0.2000
 8333SOL    HW126071   2.765   0.845   1.178 -0.8780 -0.5007  1.1702
 8333SOL    HW226072   2.748   0.992   1.146  0.2984 -0.8804 -1.4374
 8334SOL     OW26073   4.382   0.723   5.130 -0.0248 -0.0785 -0.6077
 8334SOL    HW126074   4.415   0.804   5.091 -1.1074  0.7361  0.1059
 8334SOL    HW226075   4.450   0.659   5.112  0.4286  0.7477 -2.0213
 8335SOL     OW26076   6.303   3.740   3.510  0.7231 -0.4621 -0.3273
 8335SOL    HW126077   6.289   3.772   3.599  0.1489  2.1630 -1.2455
 8335SOL    HW226078   6.245   3.665   3.501  0.2186 -0.2870  1.2508
 8336SOL     OW26079   3.379   3.370   4.124  0.9138 -0.7038 -0.1357
 8336SOL    HW126080   3.426   3.368   4.207  1.2296 -1.2776 -0.3183
 8336SOL    HW226081   3.376   3.278   4.097  0.7209 -0.5335 -0.7027
 8337SOL     OW26082   4.420   7.127   6.689 -0.2519  0.2280 -0.6732
 8337SOL    HW126083   4.363   7.198   6.719 -1.5492 -1.4552  1.0752
 8337SOL    HW226084   4.360   7.057   6.664  1.0143 -0.5601 -1.6030
 8338SOL     OW26085   6.014   5.461   1.871 -0.0005 -0.3592  0.1655
 8338SOL    HW126086   6.108   5.461   1.853  0.8371 -0.2091  3.7688
 8338SOL    HW226087   5.994   5.552   1.893 -0.7403 -0.5823  0.4309
 8339SOL     OW26088   0.759   2.662   1.815 -0.4160 -0.3041 -0.8636
 8339SOL    HW126089   0.667   2.643   1.797 -0.6614 -0.6724  0.6362
 8339SOL    HW226090   0.804   2.643   1.733 -1.5637 -0.9329 -1.3701
 8340SOL     OW26091   1.284   6.766   6.650  0.1365 -0.1144  0.3797
 8340SOL    HW126092   1.331   6.794   6.728  0.8119  0.5629 -0.2549
 8340SOL    HW226093   1.317   6.823   6.580  0.9571 -1.9262 -0.7864
 8341SOL     OW26094   2.111   5.244   0.903 -0.2682  0.0017  0.1433
 8341SOL    HW126095   2.170   5.183   0.859 -1.0222  0.5985 -1.7821
 8341SOL    HW226096   2.106   5.212   0.993  2.0678 -0.7239  0.0788
 8342SOL     OW26097   6.151   6.485   4.184  0.4821 -0.5951 -0.0048
 8342SOL    HW126098   6.135   6.579   4.175 -2.2726 -0.9625  0.1745
 8342SOL    HW226099   6.189   6.458   4.101 -0.8177  0.3336 -0.9296
 8343SOL     OW26100   3.156   6.054   2.024  0.6790  0.1098  0.1007
 8343SOL    HW126101   3.077   6.089   1.983 -0.5461  0.1735  2.3507
 8343SOL    HW226102   3.126   6.016   2.107  2.7617 -1.4788  0.2349
 8344SOL     OW26103   7.311   4.769   1.942  0.2016  0.0857 -0.3112
 8344SOL    HW126104   7.340   4.686   1.905  0.8254 -1.7779  3.8054
 8344SOL    HW226105   7.389   4.825   1.940  0.5767 -0.4356 -0.5577
 8345SOL     OW26106   4.896   1.161   2.754 -0.1482 -0.7549  0.8154
 8345SOL    HW126107   4.917   1.169   2.661  0.7796 -0.0633  1.0663
 8345SOL    HW226108   4.869   1.070   2.765  0.2322 -0.9801 -0.0445
 8346SOL     OW26109   4.068   4.582   5.328 -0.2746 -0.0728 -0.1872
 8346SOL    HW126110   3.972   4.582   5.322 -0.2861  0.0890 -0.0081
 8346SOL    HW226111   4.093   4.674   5.318 -0.0661 -0.2299 -1.2805
 8347SOL     OW26112   4.683   4.347   6.508  0.0458  0.5080 -0.2485
 8347SOL    HW126113   4.717   4.276   6.562 -0.2867  0.8132  0.3797
 8347SOL    HW226114   4.759   4.379   6.459  0.5995  0.9192  0.8352
 8348SOL     OW26115   3.450   4.175   5.748 -0.4669 -0.1068  0.3305
 8348SOL    HW126116   3.509   4.217   5.685  0.0893 -0.6207  0.5006
 8348SOL    HW226117   3.499   4.172   5.830 -0.8461 -0.2504  0.5563
 8349SOL     OW26118   3.242   6.845   0.113  0.4302 -0.6107  0.0877
 8349SOL    HW126119   3.299   6.917   0.083 -1.5500  0.1590 -2.1636
 8349SOL    HW226120   3.276   6.822   0.199  2.0446  2.0746  0.2887
 8350SOL     OW26121   0.052   4.688   2.898 -0.1364  0.2068  0.5236
 8350SOL    HW126122   0.145   4.696   2.880 -0.0100 -1.4904  0.3040
 8350SOL    HW226123   0.030   4.767   2.948  1.0739  1.3634 -0.7037
 8351SOL     OW26124   6.257   1.736   0.740  0.2155 -0.1802  0.1000
 8351SOL    HW126125   6.290   1.647   0.751  0.2084 -0.3289 -0.9576
 8351SOL    HW226126   6.164   1.731   0.761 -0.0635 -0.7067 -1.1881
 8352SOL     OW26127   4.652   2.416   6.855  0.2411 -0.3828  0.4606
 8352SOL    HW126128   4.643   2.508   6.879  3.0031  0.1661 -0.2912
 8352SOL    HW226129   4.628   2.368   6.934 -1.4301  0.9289  0.8046
 8353SOL     OW26130   2.862   5.981   3.185 -0.3046 -0.7654  0.1421
 8353SOL    HW126131   2.791   5.926   3.154 -0.5095 -0.5315  0.1891
 8353SOL    HW226132   2.927   5.979   3.115 -0.8267 -0.1177 -0.3808
 8354SOL     OW26133   3.847   0.905   1.276 -0.3499 -0.0020  0.5715
 8354SOL    HW126134   3.783   0.975   1.293 -1.0540 -0.4316 -0.2263
 8354SOL    HW226135   3.818   0.832   1.331  0.7673  0.5291  1.9047
 8355SOL     OW26136   3.685   5.297   2.521 -0.2044 -0.1580 -0.1558
 8355SOL    HW126137   3.695   5.390   2.540  0.9519  0.1214 -1.9412
 8355SOL    HW226138   3.775   5.263   2.522 -0.6624 -1.4812  1.3489
 8356SOL     OW26139   2.702   6.295   4.479  0.6072  0.0534  0.2318
 8356SOL    HW126140   2.745   6.214   4.508  1.4327  0.3149 -0.2547
 8356SOL    HW226141   2.762   6.333   4.415 -1.4468 -0.8491 -2.4070
 8357SOL     OW26142   3.689   6.172   2.555 -0.2701  0.3437 -0.3284
 8357SOL    HW126143   3.658   6.262   2.565 -1.7960  0.3853 -3.8485
 8357SOL    HW226144   3.693   6.159   2.460  2.4132 -2.5251  0.0140
 8358SOL     OW26145   2.989   5.096   6.994  0.5629 -0.4557  0.2043
 8358SOL    HW126146   3.048   5.027   6.964 -0.1769 -0.8550 -0.3542
 8358SOL    HW226147   2.957   5.136   6.914  0.3018 -0.0408  0.5145
 8359SOL     OW26148   5.195   4.123   6.169  0.0848  0.0890 -0.3631
 8359SOL    HW126149   5.137   4.094   6.240 -1.3737  0.6162 -1.2913
 8359SOL    HW226150   5.283   4.117   6.206 -0.6417  0.4231  1.5117
 8360SOL     OW26151   3.820   7.088   2.520 -0.6225 -0.0955 -0.1174
 8360SOL    HW126152   3.882   7.045   2.579  0.1652 -0.1215 -0.9419
 8360SOL    HW226153   3.737   7.087   2.568 -0.0304 -0.2126  0.9335
 8361SOL     OW26154   4.353   0.019   5.700  0.3326 -0.2901  0.3487
 8361SOL    HW126155   4.294   0.060   5.763 -1.2259 -0.9282 -0.6414
 8361SOL    HW226156   4.314   0.036   5.615  1.5040 -0.8820 -0.3414
 8362SOL     OW26157   0.263   7.408   0.201 -0.3423 -0.1223 -0.1394
 8362SOL    HW126158   0.311   7.344   0.255  0.6347  1.7362  1.3200
 8362SOL    HW226159   0.324   7.481   0.191 -2.0099  1.3005 -0.3262
 8363SOL     OW26160   4.562   4.143   8.015 -0.0198  0.4601  0.2520
 8363SOL    HW126161   4.630   4.099   7.963 -1.1542  1.1444 -1.9302
 8363SOL    HW226162   4.555   4.090   8.094  0.5157 -1.7602 -1.0989
 8364SOL     OW26163   0.110   0.080   5.320 -0.6052  0.4576  0.3335
 8364SOL    HW126164   0.057   0.065   5.398 -2.0105  1.1772 -0.4299
 8364SOL    HW226165   0.067   0.153   5.276  0.4041  0.3496 -0.8909
 8365SOL     OW26166   0.795   4.791   1.444 -0.0280 -0.0202  0.0040
 8365SOL    HW126167   0.830   4.731   1.378 -0.5012  0.2591 -0.5142
 8365SOL    HW226168   0.861   4.861   1.451  0.3998 -0.4608  0.4178
 8366SOL     OW26169   5.177   7.105   5.394  0.5984 -0.2891  0.3086
 8366SOL    HW126170   5.175   7.150   5.479 -0.9664  0.4252 -0.0675
 8366SOL    HW226171   5.260   7.132   5.355  2.0715 -1.8122  2.1931
 8367SOL     OW26172   6.163   6.296   4.408 -0.3946 -0.1994 -0.2027
 8367SOL    HW126173   6.154   6.367   4.345 -0.0427 -0.0095 -0.0444
 8367SOL    HW226174   6.078   6.252   4.408 -0.2103 -0.5886 -1.2742
 8368SOL     OW26175   6.887   0.142   4.623  0.0908  0.3148 -0.4115
 8368SOL    HW126176   6.839   0.062   4.647  0.4091  0.4686  0.8402
 8368SOL    HW226177   6.980   0.117   4.631  0.1902  0.8914  0.3218
 8369SOL     OW26178   7.228   1.335   3.499 -0.1522 -0.6218  0.0291
 8369SOL    HW126179   7.210   1.427   3.518 -2.3995 -0.6610 -1.4767
 8369SOL    HW226180   7.159   1.287   3.545  0.2952 -1.4720 -0.1656
 8370SOL     OW26181   4.449   2.452   0.272  0.4219  0.1073  0.1749
 8370SOL    HW126182   4.443   2.483   0.182 -3.7934 -0.0543  0.1637
 8370SOL    HW226183   4.491   2.523   0.320  0.5886  1.2150 -1.5388
 8371SOL     OW26184   3.613   0.099   5.550  0.1003 -0.0939 -0.2942
 8371SOL    HW126185   3.591   0.145   5.468 -2.4509 -0.8430 -0.1370
 8371SOL    HW226186   3.561   0.019   5.547  0.5335 -0.5002  1.7269
 8372SOL     OW26187   6.186   5.883   6.737 -0.0443  0.0590  0.3011
 8372SOL    HW126188   6.110   5.829   6.758 -1.0690  1.5374  0.5388
 8372SOL    HW226189   6.149   5.962   6.697  1.3058  1.1059  1.0252
 8373SOL     OW26190   3.558   5.077   6.241  0.3803  0.8588 -0.2157
 8373SOL    HW126191   3.485   5.041   6.291 -0.4911  0.0172 -1.9659
 8373SOL    HW226192   3.636   5.043   6.284 -0.3327  0.1436  0.5439
 8374SOL     OW26193   2.587   5.633   5.301 -0.0834 -0.4554 -0.3185
 8374SOL    HW126194   2.635   5.715   5.288  1.8318 -1.8600 -2.8442
 8374SOL    HW226195   2.653   5.565   5.296 -1.9899 -2.3664 -1.2656
 8375SOL     OW26196   0.576   7.159   5.078  0.1310 -0.3327 -0.0307
 8375SOL    HW126197   0.602   7.080   5.033 -2.4181 -2.2774  1.6051
 8375SOL    HW226198   0.498   7.189   5.031  0.1174  0.2385  0.3395
 8376SOL     OW26199   0.750   0.182   6.472 -0.2286  0.3337 -0.1732
 8376SOL    HW126200   0.772   0.247   6.539 -1.9104 -0.1433  0.8870
 8376SOL    HW226201   0.728   0.103   6.520 -1.7483  0.0524 -1.2543
 8377SOL     OW26202   5.578   1.111   1.761  0.4840 -0.0028  0.0392
 8377SOL    HW126203   5.533   1.078   1.684 -0.4178  0.3207  0.4036
 8377SOL    HW226204   5.639   1.177   1.727 -0.7336  0.9939 -0.3286
 8378SOL     OW26205   5.655   6.293   6.288 -0.0969  0.0663 -0.3207
 8378SOL    HW126206   5.702   6.300   6.371 -1.2537  2.1960  0.2109
 8378SOL    HW226207   5.588   6.361   6.292 -2.9981 -2.4945 -1.2195
 8379SOL     OW26208   7.922   2.266   5.305  0.3814 -0.0333 -0.7847
 8379SOL    HW126209   7.999   2.209   5.305  0.6120  0.2625 -0.0487
 8379SOL    HW226210   7.859   2.220   5.250 -0.2018 -2.0977  1.4435
 8380SOL     OW26211   3.718   6.226   1.864 -0.6212 -0.2625 -0.2239
 8380SOL    HW126212   3.788   6.169   1.835 -0.5656 -0.5873  0.5272
 8380SOL    HW226213   3.759   6.312   1.874  0.2704 -0.8977  2.4001
 8381SOL     OW26214   1.125   1.238   1.925 -0.5241 -0.1262  0.0764
 8381SOL    HW126215   1.077   1.289   1.860 -0.4133  1.1080  0.9291
 8381SOL    HW226216   1.207   1.215   1.881 -1.4788 -1.5170 -1.0881
 8382SOL     OW26217   1.120   6.806   5.864 -0.2269 -0.1548  0.5210
 8382SOL    HW126218   1.166   6.729   5.898 -1.5547 -0.5816  1.4475
 8382SOL    HW226219   1.054   6.825   5.930 -1.6679  0.1687 -0.9567
 8383SOL     OW26220   2.203   2.150   0.192 -0.4192  0.2242  0.5711
 8383SOL    HW126221   2.267   2.085   0.222  0.6882  0.4324 -1.2000
 8383SOL    HW226222   2.121   2.101   0.183 -0.2873 -0.2800  1.8999
 8384SOL     OW26223   5.280   2.468   0.359 -0.7589 -0.1757 -0.1586
 8384SOL    HW126224   5.195   2.507   0.339 -0.6514  0.7279  1.0676
 8384SOL    HW226225   5.283   2.388   0.305 -1.7038  0.6014 -1.4147
 8385SOL     OW26226   2.035   6.971   3.465 -0.0538  0.1623  0.2448
 8385SOL    HW126227   2.041   7.039   3.398 -0.2926 -0.9021 -0.8956
 8385SOL    HW226228   1.944   6.943   3.463  0.1867 -0.6519  0.2142
 8386SOL     OW26229   5.409   7.894   1.047  0.7094 -0.2448  0.0071
 8386SOL    HW126230   5.483   7.947   1.076  0.5224 -1.1951  2.4547
 8386SOL    HW226231   5.367   7.946   0.979  2.5802  1.1004 -0.1989
 8387SOL     OW26232   4.377   3.780   7.685 -0.2732 -0.1161 -0.2744
 8387SOL    HW126233   4.376   3.808   7.776 -0.6428 -0.5324 -0.1525
 8387SOL    HW226234   4.348   3.689   7.687 -0.9736  0.0843 -0.8804
 8388SOL     OW26235   7.012   2.521   3.522 -0.2963  0.1063  0.9331
 8388SOL    HW126236   6.932   2.572   3.531 -0.6705 -0.5821  1.5785
 8388SOL    HW226237   6.987   2.432   3.548  0.3664 -0.3948 -0.0763
 8389SOL     OW26238   2.323   0.625   5.948  0.0807 -0.1317 -0.4927
 8389SOL    HW126239   2.345   0.709   5.907 -1.4495 -0.1719 -1.5002
 8389SOL    HW226240   2.249   0.593   5.897  1.3306 -2.6634 -0.8474
 8390SOL     OW26241   7.088   3.502   3.716 -0.0372  0.2374 -0.0988
 8390SOL    HW126242   7.023   3.438   3.743 -0.9314  1.6974  1.3938
 8390SOL    HW226243   7.087   3.498   3.620 -0.5945 -1.4168 -0.0541
 8391SOL     OW26244   6.396   1.120   4.748 -0.4187 -0.7535  0.2422
 8391SOL    HW126245   6.365   1.187   4.809  0.3968 -1.2220  1.1988
 8391SOL    HW226246   6.464   1.073   4.797  1.1433 -0.3651 -1.4155
 8392SOL     OW26247   7.031   4.570   2.855  0.5290 -0.3233 -0.0223
 8392SOL    HW126248   7.108   4.603   2.901  0.1434 -0.8545  1.0239
 8392SOL    HW226249   7.055   4.483   2.825 -0.0157 -0.9314  1.2552
 8393SOL     OW26250   5.036   3.206   3.560  0.0539 -0.2600  0.0332
 8393SOL    HW126251   4.977   3.176   3.491  2.0851 -0.5500 -1.6954
 8393SOL    HW226252   5.079   3.283   3.522 -0.5131  1.0820  1.9684
 8394SOL     OW26253   1.661   4.669   5.802 -0.6161 -0.3665  0.0419
 8394SOL    HW126254   1.672   4.744   5.744  3.2533 -1.4303 -0.8526
 8394SOL    HW226255   1.667   4.593   5.745 -0.5520 -1.4081  1.3729
 8395SOL     OW26256   4.254   4.855   4.044  0.3780 -0.0533  0.2383
 8395SOL    HW126257   4.240   4.917   3.973 -2.5701 -0.1505  0.5871
 8395SOL    HW226258   4.311   4.900   4.106 -0.6152  1.8025 -0.1359
 8396SOL     OW26259   0.293   1.311   7.066  0.3187  0.2707 -0.0580
 8396SOL    HW126260   0.229   1.305   7.137  0.1509  0.7137 -0.1655
 8396SOL    HW226261   0.378   1.318   7.111  0.3315 -0.6963  0.0794
 8397SOL     OW26262   6.078   7.107   1.128 -0.4583 -0.2827 -0.0825
 8397SOL    HW126263   6.087   7.138   1.038  0.2554 -0.4287 -0.0657
 8397SOL    HW226264   5.984   7.117   1.147 -0.5877 -0.0929 -0.7781
 8398SOL     OW26265   1.060   2.682   3.947 -0.0854  0.3699 -0.1417
 8398SOL    HW126266   1.054   2.611   4.011  0.7680  0.2736 -0.1554
 8398SOL    HW226267   0.976   2.726   3.953 -0.0118  0.3873  1.0849
 8399SOL     OW26268   3.270   5.755   3.002 -0.0192  0.4178 -0.2783
 8399SOL    HW126269   3.184   5.762   3.043  1.0207  0.6610  2.0241
 8399SOL    HW226270   3.300   5.846   2.991 -0.2033  0.3507 -1.4715
 8400SOL     OW26271   1.719   8.069   5.629  0.1263 -0.3783  0.1944
 8400SOL    HW126272   1.764   8.147   5.597  1.0082 -0.2028  1.7834
 8400SOL    HW226273   1.648   8.103   5.683 -1.5667 -0.6668 -1.7061
 8401SOL     OW26274   2.559   6.172   2.748  0.0897 -0.0731  0.1815
 8401SOL    HW126275   2.533   6.081   2.739  0.2272 -0.0174 -0.8666
 8401SOL    HW226276   2.523   6.199   2.833  0.5075 -1.2441  0.7551
 8402SOL     OW26277   3.040   2.131   1.671  0.0989 -0.6028  0.4413
 8402SOL    HW126278   2.950   2.110   1.696 -0.1550  0.5387  0.5315
 8402SOL    HW226279   3.040   2.127   1.575  0.5595 -2.9323  0.4935
 8403SOL     OW26280   0.229   4.082   4.948  0.3088  0.1655  0.3779
 8403SOL    HW126281   0.136   4.098   4.958  0.1915 -0.0440 -0.3635
 8403SOL    HW226282   0.268   4.117   5.029 -0.2089  1.9617 -0.0949
 8404SOL     OW26283   5.619   3.586   6.262  0.6978  0.1195 -0.0349
 8404SOL    HW126284   5.659   3.652   6.317  1.2902  2.4201 -2.9560
 8404SOL    HW226285   5.692   3.548   6.212 -0.0010 -0.4824 -0.6334
 8405SOL     OW26286   0.180   7.885   5.008  0.9206  0.1941 -0.1090
 8405SOL    HW126287   0.249   7.846   5.062 -0.6763 -0.6541  1.4060
 8405SOL    HW226288   0.135   7.946   5.067  0.9975  1.5171 -1.3718
 8406SOL     OW26289   3.028   0.177   4.796  0.4570  0.0212 -0.0739
 8406SOL    HW126290   3.054   0.252   4.743  1.5014 -0.3803 -0.1603
 8406SOL    HW226291   3.107   0.153   4.844  0.0840 -0.8848  0.1126
 8407SOL     OW26292   7.812   6.848   0.832 -0.3955  0.1758 -0.0313
 8407SOL    HW126293   7.774   6.760   0.834 -0.1499  0.0202 -1.2840
 8407SOL    HW226294   7.886   6.844   0.892  0.7416 -1.0496 -1.4244
 8408SOL     OW26295   6.662   4.179   6.196 -0.0960 -0.3286 -0.2896
 8408SOL    HW126296   6.750   4.211   6.212  0.0219 -1.1991  1.0225
 8408SOL    HW226297   6.638   4.213   6.110  1.5431 -0.1424 -0.6948
 8409SOL     OW26298   8.117   2.240   0.276  0.3015  0.1830  0.0877
 8409SOL    HW126299   8.209   2.216   0.286 -0.2946 -2.7147 -0.5188
 8409SOL    HW226300   8.089   2.193   0.197 -1.8799  0.3675  0.6966
 8410SOL     OW26301   5.169   4.713   4.659  0.1438 -0.0984  0.3407
 8410SOL    HW126302   5.170   4.771   4.735  1.9810 -0.1154  0.3865
 8410SOL    HW226303   5.172   4.772   4.584  1.5955 -0.0825  0.3798
 8411SOL     OW26304   8.083   8.032   2.343 -0.2354 -0.7319 -0.9030
 8411SOL    HW126305   8.090   8.119   2.304  0.0227 -0.2565  0.1690
 8411SOL    HW226306   8.156   8.028   2.406 -1.1282 -1.1422  0.1354
 8412SOL     OW26307   6.000   3.401   0.898 -0.0249 -0.1670  0.4213
 8412SOL    HW126308   6.018   3.307   0.899 -2.5885 -0.7183  0.6646
 8412SOL    HW226309   5.918   3.410   0.850  0.4261  2.0335 -0.0614
 8413SOL     OW26310   2.891   1.838   1.335 -0.3292  0.0739 -0.4410
 8413SOL    HW126311   2.805   1.804   1.310 -0.7687  0.9377 -0.1478
 8413SOL    HW226312   2.881   1.933   1.334  0.5416  0.1834 -0.1057
 8414SOL     OW26313   7.473   0.469   6.493 -0.3097 -0.3705  0.3841
 8414SOL    HW126314   7.451   0.402   6.428  0.1409 -0.5295  0.3920
 8414SOL    HW226315   7.417   0.544   6.470 -0.5358 -0.6132  0.1384
 8415SOL     OW26316   1.753   4.985   0.667 -0.3244  0.0203 -0.4020
 8415SOL    HW126317   1.790   5.016   0.749 -1.0245 -0.0912 -0.0401
 8415SOL    HW226318   1.727   5.065   0.621  1.3573  0.1758 -1.1581
 8416SOL     OW26319   8.117   2.348   1.748  0.2931  0.2353 -0.3108
 8416SOL    HW126320   8.108   2.326   1.656 -0.9798  0.7811 -0.3387
 8416SOL    HW226321   8.152   2.436   1.749  2.4518 -0.5666 -0.2224
 8417SOL     OW26322   0.426   5.257   1.175  0.4058  0.3090  0.1939
 8417SOL    HW126323   0.470   5.173   1.161  1.5036  1.0179 -0.8531
 8417SOL    HW226324   0.443   5.307   1.095 -1.0143  1.1954  0.4080
 8418SOL     OW26325   6.245   1.125   0.151 -0.4315 -0.4104  0.0711
 8418SOL    HW126326   6.214   1.209   0.118  0.1558 -0.0509  0.4219
 8418SOL    HW226327   6.331   1.144   0.189 -0.6690 -0.9925  0.9373
 8419SOL     OW26328   5.956   1.212   1.841 -0.3885 -0.0890 -0.4244
 8419SOL    HW126329   6.001   1.246   1.764  0.4321 -1.4960 -0.6022
 8419SOL    HW226330   5.927   1.290   1.888  1.5919  0.8791 -0.7080
 8420SOL     OW26331   2.463   1.674   3.606  0.6236 -0.3910  0.2571
 8420SOL    HW126332   2.407   1.678   3.684  1.4201 -0.4056  0.8360
 8420SOL    HW226333   2.401   1.678   3.532 -0.1376 -0.3927  0.8824
 8421SOL     OW26334   0.713   6.544   1.307  0.2937 -0.0441 -0.1510
 8421SOL    HW126335   0.730   6.453   1.283  1.8304  0.4460 -1.0489
 8421SOL    HW226336   0.668   6.581   1.230  3.6880  1.0717 -1.8126
 8422SOL     OW26337   1.227   5.591   1.407  0.1528  0.2255 -0.1710
 8422SOL    HW126338   1.150   5.641   1.435 -0.2696 -0.3167 -0.3457
 8422SOL    HW226339   1.191   5.515   1.361  0.7871 -0.2483  0.1017
 8423SOL     OW26340   0.206   4.453   5.897  0.1093  0.2991 -0.6342
 8423SOL    HW126341   0.289   4.480   5.858  0.7427  0.3863  0.7094
 8423SOL    HW226342   0.218   4.467   5.991 -1.0451 -0.7152 -0.3094
 8424SOL     OW26343   2.843   6.407   4.243  0.2218  0.1403 -0.4340
 8424SOL    HW126344   2.841   6.323   4.197  0.3715 -0.0122 -0.1693
 8424SOL    HW226345   2.825   6.472   4.176 -0.9281 -0.1794 -0.4584
 8425SOL     OW26346   5.673   1.321   5.932 -0.3514 -0.1408  0.2103
 8425SOL    HW126347   5.732   1.396   5.926 -1.5309  0.8322  0.3958
 8425SOL    HW226348   5.726   1.246   5.904  0.1136  1.1562 -2.7664
 8426SOL     OW26349   1.808   1.935   1.680  0.1569 -0.0430 -0.1752
 8426SOL    HW126350   1.752   1.862   1.655 -0.2661  0.3472 -0.4032
 8426SOL    HW226351   1.783   2.006   1.620  0.4710  0.3246  0.1174
 8427SOL     OW26352   2.643   4.098   0.067 -0.1549 -0.4879  0.2054
 8427SOL    HW126353   2.634   4.092  -0.028  0.6738  2.0201 -0.1193
 8427SOL    HW226354   2.687   4.017   0.093 -1.2254 -1.6377 -1.3877
 8428SOL     OW26355   0.201   2.401   0.286  0.1341  0.2263  0.0396
 8428SOL    HW126356   0.272   2.374   0.345  0.0758 -0.3380 -0.1435
 8428SOL    HW226357   0.135   2.438   0.344 -0.2531 -1.0148  0.4297
 8429SOL     OW26358   8.032   4.799   1.622  0.4947 -0.1362 -0.1554
 8429SOL    HW126359   7.992   4.785   1.708  0.4183 -1.3741 -0.3853
 8429SOL    HW226360   8.064   4.890   1.626  0.7229 -0.2482  1.2703
 8430SOL     OW26361   0.623   2.261   5.037  0.1108 -0.7454  0.2075
 8430SOL    HW126362   0.587   2.294   5.120  0.2694 -1.4470  0.5578
 8430SOL    HW226363   0.656   2.174   5.058 -1.1137 -1.5154 -0.9195
 8431SOL     OW26364   4.864   6.372   2.501 -0.0131  0.5525 -0.1315
 8431SOL    HW126365   4.773   6.403   2.505 -0.5253 -0.7270 -1.2753
 8431SOL    HW226366   4.915   6.444   2.538 -1.4448  1.4841  0.1065
 8432SOL     OW26367   5.748   0.550   8.132 -0.1148 -0.0935  0.3397
 8432SOL    HW126368   5.780   0.471   8.176 -0.5682 -0.4869 -0.0240
 8432SOL    HW226369   5.796   0.621   8.173 -1.1176 -0.3551  2.0944
 8433SOL     OW26370   6.426   7.512   4.655  0.1374 -0.0721  0.2735
 8433SOL    HW126371   6.370   7.539   4.728  0.7575  0.4312  0.5717
 8433SOL    HW226372   6.431   7.590   4.599  1.5773  0.3191  0.9094
 8434SOL     OW26373   4.723   2.293   1.039  0.3965 -0.0778 -0.6951
 8434SOL    HW126374   4.689   2.361   0.982 -0.1908 -0.0753 -0.3499
 8434SOL    HW226375   4.647   2.239   1.061  0.6020 -0.0661  0.0910
 8435SOL     OW26376   7.419   6.646   5.769 -0.4181 -0.0895 -0.4839
 8435SOL    HW126377   7.470   6.679   5.695  0.4974  0.6067  0.4352
 8435SOL    HW226378   7.484   6.619   5.833 -1.1768 -2.2718 -0.5693
 8436SOL     OW26379   7.186   7.700   7.133  0.4188 -0.2308 -0.3849
 8436SOL    HW126380   7.259   7.653   7.174  0.2108 -0.1159  0.1158
 8436SOL    HW226381   7.218   7.790   7.123  0.3203 -0.1645 -0.1017
 8437SOL     OW26382   6.754   6.623   3.709  0.4684 -0.4000 -0.6959
 8437SOL    HW126383   6.693   6.594   3.777  0.2728 -0.0771 -0.7303
 8437SOL    HW226384   6.831   6.567   3.720 -0.2111 -1.4931 -1.2988
 8438SOL     OW26385   3.944   2.981   4.857 -0.1241  0.5994  0.1651
 8438SOL    HW126386   3.958   3.030   4.777 -0.8677  1.4815  0.5571
 8438SOL    HW226387   4.006   3.017   4.920 -0.3323  0.7052  0.3132
 8439SOL     OW26388   5.829   3.671   7.106 -0.1587 -0.0385  0.4387
 8439SOL    HW126389   5.906   3.625   7.140  0.3077  1.3893  1.3872
 8439SOL    HW226390   5.801   3.618   7.031  0.8355 -1.4044  0.9926
 8440SOL     OW26391   3.226   3.283   0.138 -0.4377 -0.0013  0.0924
 8440SOL    HW126392   3.289   3.272   0.067 -0.0926  0.8247  0.2511
 8440SOL    HW226393   3.238   3.374   0.166 -0.3598 -0.4040  1.4085
 8441SOL     OW26394   7.800   4.711   6.093  0.0816  0.3088  0.0379
 8441SOL    HW126395   7.877   4.654   6.095  2.1649  2.9011 -0.5923
 8441SOL    HW226396   7.755   4.694   6.176 -0.0490 -2.9094 -0.5478
 8442SOL     OW26397   1.271   0.361   7.745  0.4621 -0.0598  0.1042
 8442SOL    HW126398   1.200   0.312   7.704  0.6657 -1.2422  1.1072
 8442SOL    HW226399   1.228   0.422   7.804  0.2650 -1.5857  1.6008
 8443SOL     OW26400   1.740   0.434   7.952  0.1500 -0.3443 -0.2002
 8443SOL    HW126401   1.833   0.457   7.954  0.6613 -2.2882 -0.0745
 8443SOL    HW226402   1.739   0.338   7.946 -1.8498 -0.4300  0.8318
 8444SOL     OW26403   0.776   3.172   2.025  0.1377  0.3561  0.2002
 8444SOL    HW126404   0.841   3.206   1.964  1.6406 -1.3326  0.7788
 8444SOL    HW226405   0.821   3.169   2.109 -1.2852  0.8426  1.0125
 8445SOL     OW26406   0.674   1.991   8.062  0.3008  0.2792  0.1091
 8445SOL    HW126407   0.765   1.992   8.031  0.1162 -0.9678 -0.5325
 8445SOL    HW226408   0.647   1.900   8.054 -0.0938  0.0278  3.0480
 8446SOL     OW26409   3.676   2.514   3.531  0.5132  0.5828  0.0552
 8446SOL    HW126410   3.663   2.601   3.569  0.1776  0.9202 -0.8147
 8446SOL    HW226411   3.699   2.531   3.440  2.3081 -0.1792  0.3291
 8447SOL     OW26412   7.290   5.160   4.874 -0.1210  0.2936 -0.0705
 8447SOL    HW126413   7.223   5.094   4.889 -1.6469  1.5296 -1.1153
 8447SOL    HW226414   7.304   5.201   4.960  0.0672 -0.6623  0.3593
 8448SOL     OW26415   5.238   4.450   7.818 -0.3675 -0.0661 -0.1305
 8448SOL    HW126416   5.304   4.381   7.823  0.4111  0.7180  0.7252
 8448SOL    HW226417   5.160   4.412   7.859  0.1995 -0.2779  0.7742
 8449SOL     OW26418   0.562   8.024   7.254 -0.2842 -0.0862  0.9190
 8449SOL    HW126419   0.503   8.080   7.304  0.3866  0.8718  0.6556
 8449SOL    HW226420   0.628   7.996   7.317  0.2505  0.6759  0.7052
 8450SOL     OW26421   5.746   3.139   4.028 -0.2073 -0.0046 -0.2894
 8450SOL    HW126422   5.750   3.233   4.010  1.4798  0.2193  0.9757
 8450SOL    HW226423   5.838   3.113   4.036 -0.6504 -1.7784 -0.6259
 8451SOL     OW26424   5.160   5.046   3.388 -0.9150  0.2668 -0.0096
 8451SOL    HW126425   5.244   5.018   3.351 -1.0239  1.8678 -1.6368
 8451SOL    HW226426   5.097   5.034   3.317 -1.5697  1.3674  0.3532
 8452SOL     OW26427   8.080   0.533   4.775  0.5863 -0.2986  0.3183
 8452SOL    HW126428   8.038   0.611   4.812  1.3860 -0.3013  1.3087
 8452SOL    HW226429   8.017   0.463   4.787 -0.6570  0.3957 -1.7151
 8453SOL     OW26430   7.623   5.782   2.342 -0.6134  0.2785 -0.1999
 8453SOL    HW126431   7.563   5.747   2.408  1.2206 -2.1132  0.3473
 8453SOL    HW226432   7.710   5.763   2.377  0.4336  0.1469 -2.7035
 8454SOL     OW26433   4.538   0.370   5.585  0.5174  0.3341  1.0777
 8454SOL    HW126434   4.534   0.333   5.496  2.1296  0.5400  0.8923
 8454SOL    HW226435   4.453   0.349   5.623  0.8448 -2.4442  0.5197
 8455SOL     OW26436   0.826   7.381   1.123  0.1179 -0.2796 -0.1613
 8455SOL    HW126437   0.841   7.462   1.172 -0.4494  3.1946 -4.9797
 8455SOL    HW226438   0.883   7.317   1.165  0.9546  2.6182  3.7750
 8456SOL     OW26439   3.309   6.712   4.276 -0.4129 -0.2991  0.0903
 8456SOL    HW126440   3.311   6.660   4.356 -2.1229 -0.5811 -0.0075
 8456SOL    HW226441   3.235   6.677   4.226  2.1129 -1.8837 -2.8467
 8457SOL     OW26442   1.812   7.818   1.007 -0.6028  0.1345 -0.1614
 8457SOL    HW126443   1.844   7.803   0.918 -2.0020 -0.3401 -0.6066
 8457SOL    HW226444   1.724   7.782   1.007 -0.5859  0.0381  1.4627
 8458SOL     OW26445   0.547   7.494   3.523 -0.0452 -0.0644 -0.3861
 8458SOL    HW126446   0.504   7.527   3.602 -0.0760  0.8499 -0.7683
 8458SOL    HW226447   0.539   7.565   3.460 -0.4624 -0.9673 -1.3884
 8459SOL     OW26448   3.258   0.671   0.141  0.1587 -0.0972  0.7011
 8459SOL    HW126449   3.278   0.760   0.169  0.0556  0.5246 -1.0678
 8459SOL    HW226450   3.211   0.632   0.215  0.5993  1.1545  1.6749
 8460SOL     OW26451   6.352   0.044   7.887 -0.4811 -0.0256 -0.4250
 8460SOL    HW126452   6.432   0.095   7.871 -0.5788  0.0851 -0.5601
 8460SOL    HW226453   6.372  -0.007   7.965  0.0146 -0.5938 -0.9084
 8461SOL     OW26454   4.301   5.051   5.194  0.5003  0.3148  0.4102
 8461SOL    HW126455   4.215   5.010   5.201  0.4596  0.6581  2.5124
 8461SOL    HW226456   4.344   5.032   5.277  1.1310  3.0133  0.8034
 8462SOL     OW26457   2.495   6.520   6.299 -0.4846  0.3960  0.4848
 8462SOL    HW126458   2.505   6.597   6.354  1.4506  1.3345 -1.0310
 8462SOL    HW226459   2.412   6.532   6.253 -0.5521  1.2007  0.8167
 8463SOL     OW26460   0.382   0.106   3.849  0.1612  0.4236  0.1931
 8463SOL    HW126461   0.350   0.168   3.784 -1.1105 -0.3672  0.0369
 8463SOL    HW226462   0.343   0.134   3.932  0.9005  0.7844  0.4282
 8464SOL     OW26463   1.882   7.944   5.810  0.4159 -0.3513  0.0436
 8464SOL    HW126464   1.825   7.981   5.744  0.5533 -0.9257 -0.4015
 8464SOL    HW226465   1.845   7.857   5.829  0.0754  0.0099  1.0977
 8465SOL     OW26466   0.628   5.570   6.902  0.2785  0.3351 -0.4668
 8465SOL    HW126467   0.717   5.553   6.932  0.4377  0.3427 -0.9282
 8465SOL    HW226468   0.572   5.538   6.973  0.6718  3.9908  1.7343
 8466SOL     OW26469   6.855   7.083   7.639 -0.0386  0.0466  0.6340
 8466SOL    HW126470   6.897   7.020   7.581  0.5330  1.0433 -0.0675
 8466SOL    HW226471   6.880   7.055   7.727  2.0744  0.5345  0.2514
 8467SOL     OW26472   0.474   4.553   2.293 -0.2562  0.6937 -0.1903
 8467SOL    HW126473   0.563   4.522   2.275 -0.5402 -0.6410  0.5743
 8467SOL    HW226474   0.483   4.648   2.302  1.7330  0.3700  3.1312
 8468SOL     OW26475   2.064   4.330   7.140 -0.6396  0.3164  0.3241
 8468SOL    HW126476   1.989   4.306   7.194 -0.6854  0.6518  0.4089
 8468SOL    HW226477   2.027   4.385   7.071 -0.4865  0.4032  0.3113
 8469SOL     OW26478   6.624   0.235   5.139 -0.1605 -0.0778 -0.4962
 8469SOL    HW126479   6.695   0.293   5.165 -1.0208  1.5825 -1.6271
 8469SOL    HW226480   6.619   0.245   5.044 -0.5381 -1.8199 -0.6886
 8470SOL     OW26481   4.818   3.052   5.101 -0.2986  0.6173  0.6377
 8470SOL    HW126482   4.908   3.086   5.106  0.2388 -0.7775  5.2413
 8470SOL    HW226483   4.763   3.128   5.116  0.2189  1.1165  0.0782
 8471SOL     OW26484   4.053   6.109   4.305 -0.1390  0.1806 -0.6780
 8471SOL    HW126485   4.053   6.026   4.257 -1.2393  0.4512 -1.1747
 8471SOL    HW226486   4.086   6.173   4.243  1.2088  0.0486 -0.1316
 8472SOL     OW26487   6.364   2.259   3.604 -0.3572  0.1699  0.5147
 8472SOL    HW126488   6.349   2.299   3.519  0.5418  0.4502  0.4760
 8472SOL    HW226489   6.459   2.262   3.616 -0.0157 -3.4473 -0.2391
 8473SOL     OW26490   6.358   2.929   0.448  0.1899  0.2586 -1.2431
 8473SOL    HW126491   6.297   2.857   0.428 -2.2528  2.4921 -2.5525
 8473SOL    HW226492   6.423   2.925   0.378  1.5348 -2.0101  0.0245
 8474SOL     OW26493   0.420   3.237   8.139 -0.0163  0.1570  0.3748
 8474SOL    HW126494   0.511   3.250   8.113 -0.5626  1.2287 -1.1511
 8474SOL    HW226495   0.369   3.289   8.077 -1.5800  1.1264  2.3185
 8475SOL     OW26496   5.070   2.421   0.901  0.2474 -0.0557 -0.2172
 8475SOL    HW126497   5.007   2.362   0.861  1.9814 -2.0182 -0.2540
 8475SOL    HW226498   5.093   2.483   0.832 -1.0524  0.2316 -0.4110
 8476SOL     OW26499   3.211   4.624   1.624 -0.6816 -0.4415 -0.2926
 8476SOL    HW126500   3.234   4.573   1.546  0.5650  0.3888 -0.4984
 8476SOL    HW226501   3.200   4.714   1.592 -1.8621 -0.3759  0.2305
 8477SOL     OW26502   7.435   4.134   0.221 -0.4626 -0.2152  0.4331
 8477SOL    HW126503   7.356   4.095   0.183 -1.2195 -0.1178  1.8638
 8477SOL    HW226504   7.464   4.070   0.286  1.1948 -0.6828 -0.7182
 8478SOL     OW26505   2.222   6.405   0.593 -0.7360 -0.6029  0.1880
 8478SOL    HW126506   2.210   6.472   0.661 -0.9255 -0.8556  0.4055
 8478SOL    HW226507   2.168   6.331   0.622  0.5390 -1.3822  0.6623
 8479SOL     OW26508   1.979   5.130   1.428  0.2679  0.0368  0.0274
 8479SOL    HW126509   1.885   5.133   1.408  0.3383  0.2043 -0.2899
 8479SOL    HW226510   2.014   5.063   1.368  0.7300  1.5557 -1.4954
 8480SOL     OW26511   5.451   5.378   0.848  0.0525 -0.1703 -0.1306
 8480SOL    HW126512   5.535   5.358   0.807  0.2485 -0.4120  0.3875
 8480SOL    HW226513   5.460   5.469   0.877  0.2037 -0.2581  0.0975
 8481SOL     OW26514   3.007   3.358   6.409  0.0266 -0.3280  0.0832
 8481SOL    HW126515   2.936   3.305   6.371  0.6587 -0.7276 -0.5548
 8481SOL    HW226516   3.033   3.310   6.488 -0.3896 -0.1978  0.3013
 8482SOL     OW26517   4.398   2.169   3.942  0.3307  0.1222 -0.0735
 8482SOL    HW126518   4.362   2.171   4.030 -0.1300  0.6647 -0.2620
 8482SOL    HW226519   4.330   2.211   3.888  1.4381  1.6471 -0.3584
 8483SOL     OW26520   7.567   0.433   7.171 -0.2376  0.0345 -0.6620
 8483SOL    HW126521   7.604   0.449   7.084  0.5987 -1.3121 -0.5942
 8483SOL    HW226522   7.475   0.456   7.163 -0.0059  0.6449 -1.6947
 8484SOL     OW26523   1.207   1.737   3.016 -0.7883 -0.1660  0.4079
 8484SOL    HW126524   1.278   1.778   2.966 -0.8703  2.0441  1.9443
 8484SOL    HW226525   1.250   1.675   3.074 -0.2367  0.3189  0.5202
 8485SOL     OW26526   0.171   5.070   2.673 -0.0631  0.1326 -0.0374
 8485SOL    HW126527   0.194   5.048   2.583 -1.7620 -0.6190 -0.3344
 8485SOL    HW226528   0.075   5.072   2.674 -0.1694 -1.6333  2.1125
 8486SOL     OW26529   1.705   7.916   1.703  0.6775  0.0161 -0.3154
 8486SOL    HW126530   1.739   7.860   1.773  1.2998  3.0991  2.1174
 8486SOL    HW226531   1.668   7.856   1.639 -0.7773 -3.0719  3.0794
 8487SOL     OW26532   7.196   4.960   7.131 -0.5377  0.3166 -0.1366
 8487SOL    HW126533   7.156   4.898   7.070 -1.9394  0.7397  0.3120
 8487SOL    HW226534   7.203   5.041   7.080  0.3446  0.0725 -0.4084
 8488SOL     OW26535   3.827   4.864   0.303 -0.8815  0.1555 -0.6340
 8488SOL    HW126536   3.845   4.832   0.391 -1.8660 -0.0999 -0.5121
 8488SOL    HW226537   3.910   4.854   0.256 -0.7127 -1.0004 -0.1226
 8489SOL     OW26538   4.473   2.537   3.384  0.1427 -0.0598  0.0020
 8489SOL    HW126539   4.443   2.614   3.432 -1.4711 -0.4081 -0.4058
 8489SOL    HW226540   4.505   2.477   3.452 -2.4116 -0.6804  0.7453
 8490SOL     OW26541   3.359   5.996   4.910 -0.4669 -0.2891  0.0267
 8490SOL    HW126542   3.436   6.029   4.865 -1.7925  2.0334 -0.7369
 8490SOL    HW226543   3.285   6.036   4.864 -2.2336 -3.0500  0.1930
 8491SOL     OW26544   3.632   2.088   6.537 -0.7282  0.3052  0.3487
 8491SOL    HW126545   3.710   2.067   6.587 -0.5705  1.7477  0.7513
 8491SOL    HW226546   3.560   2.048   6.586 -0.2769 -1.1327 -0.0861
 8492SOL     OW26547   7.801   2.169   1.580  0.1297 -0.1288  0.1478
 8492SOL    HW126548   7.814   2.104   1.510 -0.6391 -0.6559  0.4830
 8492SOL    HW226549   7.786   2.116   1.658  0.9437  0.4588  0.7139
 8493SOL     OW26550   5.936   7.836   0.431  0.0058 -0.0935 -0.1322
 8493SOL    HW126551   5.861   7.787   0.396  0.4186 -1.3009  0.6152
 8493SOL    HW226552   5.944   7.912   0.373 -3.3661  1.5225  1.2055
 8494SOL     OW26553   2.138   0.946   4.768 -0.1087  0.6360 -0.4501
 8494SOL    HW126554   2.084   0.887   4.715  0.9571  0.0507 -0.9248
 8494SOL    HW226555   2.079   0.978   4.836 -1.0798  0.1254 -1.0285
 8495SOL     OW26556   3.778   2.215   4.730  0.3724  0.0451 -0.7555
 8495SOL    HW126557   3.771   2.199   4.635  1.0864  0.1609 -0.8328
 8495SOL    HW226558   3.815   2.135   4.765  2.2064  0.7717 -0.8945
 8496SOL     OW26559   7.462   1.685   6.249 -0.4431 -0.4647 -0.4373
 8496SOL    HW126560   7.377   1.643   6.237 -1.3911  0.7722  1.5484
 8496SOL    HW226561   7.445   1.779   6.237  1.1417 -0.3494 -2.3175
 8497SOL     OW26562   6.262   0.998   1.840 -0.6597  0.3098 -0.4210
 8497SOL    HW126563   6.217   0.916   1.819 -0.4736 -0.6235  2.3465
 8497SOL    HW226564   6.336   1.002   1.780 -0.9859 -1.3029 -0.9597
 8498SOL     OW26565   3.726   6.167   1.476 -0.6211  0.1586 -0.5772
 8498SOL    HW126566   3.632   6.149   1.488 -0.9212  0.8206 -1.8091
 8498SOL    HW226567   3.732   6.206   1.389  1.1329 -2.3143 -1.6765
 8499SOL     OW26568   5.807   5.707   3.985 -0.2718  0.1353  0.0199
 8499SOL    HW126569   5.817   5.674   4.074 -1.2467 -1.6973 -0.4781
 8499SOL    HW226570   5.797   5.801   3.994  0.0426  0.0180  1.8068
 8500SOL     OW26571   7.451   2.325   1.651  0.0751  0.2107 -0.1579
 8500SOL    HW126572   7.521   2.344   1.589 -0.6253  3.1088 -0.1786
 8500SOL    HW226573   7.491   2.334   1.737  0.2275 -0.4407 -0.1495
 8501SOL     OW26574   2.330   4.417   4.408 -0.0553  0.0445  0.2690
 8501SOL    HW126575   2.288   4.352   4.352 -0.4446 -1.1527  1.8579
 8501SOL    HW226576   2.309   4.501   4.369  0.1460 -0.7552 -1.6516
 8502SOL     OW26577   3.690   4.312   1.036 -0.0181 -0.3035  0.4611
 8502SOL    HW126578   3.723   4.393   0.998 -1.5145  0.4409  0.6956
 8502SOL    HW226579   3.665   4.336   1.125 -1.2476 -0.7933  0.2690
 8503SOL     OW26580   3.559   3.959   4.931  0.1487 -0.3051 -0.4320
 8503SOL    HW126581   3.516   4.036   4.893 -0.9670 -0.8278 -0.2924
 8503SOL    HW226582   3.516   3.948   5.016  0.3931 -0.9982 -0.3937
 8504SOL     OW26583   4.050   3.432   7.025  0.5938  0.4254 -0.1997
 8504SOL    HW126584   4.021   3.346   7.053 -1.1002  1.3447  1.0745
 8504SOL    HW226585   4.138   3.441   7.062  0.2772 -0.2749  0.7544
 8505SOL     OW26586   2.136   8.124   2.683  0.2373 -0.5853 -0.3672
 8505SOL    HW126587   2.121   8.143   2.591 -1.1439 -0.2799 -0.1146
 8505SOL    HW226588   2.053   8.087   2.714  1.1229 -1.9753  0.4405
 8506SOL     OW26589   6.351   5.293   3.234  0.2010 -0.2672 -0.0983
 8506SOL    HW126590   6.405   5.217   3.255  0.0745  0.3435  2.9482
 8506SOL    HW226591   6.403   5.368   3.264 -0.0045  0.8482 -2.3039
 8507SOL     OW26592   2.625   3.212   2.398  0.6692 -0.4988  0.2985
 8507SOL    HW126593   2.638   3.286   2.339 -0.1276 -0.0176  0.7082
 8507SOL    HW226594   2.531   3.195   2.396  0.6578 -0.6277  1.2426
 8508SOL     OW26595   5.111   6.587   6.979  0.0262 -0.0648 -0.5016
 8508SOL    HW126596   5.035   6.645   6.983 -0.2472 -0.1786 -2.6191
 8508SOL    HW226597   5.146   6.585   7.068 -2.8637 -0.5851  0.6990
 8509SOL     OW26598   2.927   6.897   6.834 -0.3453 -0.2512 -0.4514
 8509SOL    HW126599   3.019   6.924   6.836 -0.5947  0.7122 -1.1402
 8509SOL    HW226600   2.879   6.974   6.862 -0.9224 -0.9493  0.5269
 8510SOL     OW26601   2.544   6.386   5.022 -0.0764 -0.0911 -0.0530
 8510SOL    HW126602   2.533   6.323   4.951  0.4823 -2.3593  1.7163
 8510SOL    HW226603   2.639   6.392   5.034 -0.1751 -0.5425  1.1161
 8511SOL     OW26604   0.459   5.175   0.197 -0.0574  0.0145 -0.5809
 8511SOL    HW126605   0.433   5.119   0.270 -1.2739 -1.8126 -2.3023
 8511SOL    HW226606   0.406   5.254   0.206 -1.2294 -0.7854 -0.2353
 8512SOL     OW26607   4.561   1.553   5.518  0.4511  0.1675 -0.4955
 8512SOL    HW126608   4.509   1.507   5.452 -0.2158  0.2523 -0.0305
 8512SOL    HW226609   4.498   1.586   5.580  1.1115 -0.3875  0.5023
 8513SOL     OW26610   3.084   4.048   0.848  0.2556  0.2929  0.4950
 8513SOL    HW126611   3.150   4.049   0.917 -0.0522 -1.2375  0.8559
 8513SOL    HW226612   3.022   3.981   0.876 -0.3207  0.2193 -0.8761
 8514SOL     OW26613   5.430   1.337   6.110 -0.3412 -0.0326  0.1262
 8514SOL    HW126614   5.383   1.392   6.047 -1.8562  0.1423  1.3468
 8514SOL    HW226615   5.506   1.304   6.061 -0.9545  0.8221 -1.4893
 8515SOL     OW26616   7.840   6.564   1.422 -0.5354 -0.4727 -0.3604
 8515SOL    HW126617   7.772   6.531   1.481 -2.5456 -0.3208 -2.4851
 8515SOL    HW226618   7.840   6.659   1.436  0.5882 -0.6339  0.9528
 8516SOL     OW26619   3.922   3.631   3.853  0.2111  0.1455  0.0260
 8516SOL    HW126620   3.906   3.590   3.938  1.0005  0.2619  0.2420
 8516SOL    HW226621   3.959   3.561   3.799 -1.3569 -0.2381 -0.6044
 8517SOL     OW26622   1.421   4.613   4.781 -0.2091  0.4844 -0.4495
 8517SOL    HW126623   1.480   4.546   4.746 -2.9640 -1.3034 -1.9910
 8517SOL    HW226624   1.414   4.677   4.710 -0.1090  0.7333 -0.2376
 8518SOL     OW26625   0.714   2.291   7.261 -0.0593 -0.3994 -0.5179
 8518SOL    HW126626   0.719   2.308   7.167 -1.3283  0.3217 -0.4772
 8518SOL    HW226627   0.621   2.296   7.282  0.3215  1.4658  1.1044
 8519SOL     OW26628   4.811   5.882   1.283 -0.1534  0.5694 -0.1583
 8519SOL    HW126629   4.857   5.847   1.359  0.4430  1.3595 -0.1466
 8519SOL    HW226630   4.723   5.901   1.315 -0.7313 -1.5295 -0.3352
 8520SOL     OW26631   3.280   2.289   0.684 -0.1792  0.5322  0.4042
 8520SOL    HW126632   3.260   2.226   0.753 -1.5297  0.8312  0.3165
 8520SOL    HW226633   3.195   2.324   0.659  0.0870 -0.5075 -2.3300
 8521SOL     OW26634   5.472   3.672   0.649  0.6123 -0.0370  0.4686
 8521SOL    HW126635   5.522   3.661   0.568 -0.5330  0.4436 -0.3326
 8521SOL    HW226636   5.386   3.636   0.629  0.2320  0.3223  1.3960
 8522SOL     OW26637   2.997   2.511   6.179  0.4916 -0.1683 -0.0098
 8522SOL    HW126638   3.045   2.574   6.125 -0.3776  0.9708  0.4925
 8522SOL    HW226639   3.006   2.428   6.133 -1.3763  0.9898 -2.7445
 8523SOL     OW26640   5.371   3.700   2.046  0.2233 -0.1880 -0.1894
 8523SOL    HW126641   5.377   3.621   2.100  0.6447  0.1404  0.2488
 8523SOL    HW226642   5.453   3.703   1.997 -0.0810 -0.3857 -0.7206
 8524SOL     OW26643   4.446   0.965   3.766  0.1064 -0.3854 -0.2655
 8524SOL    HW126644   4.383   1.037   3.774  0.9259  0.3687 -0.3359
 8524SOL    HW226645   4.504   0.976   3.842  1.3141  0.1335 -1.2266
 8525SOL     OW26646   7.766   0.047   5.829 -0.2385 -0.6192 -0.2610
 8525SOL    HW126647   7.839   0.095   5.789  0.0260 -0.0615  0.8332
 8525SOL    HW226648   7.694   0.110   5.830 -0.1204 -0.4874  0.4854
 8526SOL     OW26649   1.413   5.138   5.396 -1.0137 -0.3896 -0.5871
 8526SOL    HW126650   1.453   5.225   5.395 -1.1078 -0.3476 -0.7017
 8526SOL    HW226651   1.329   5.150   5.439 -0.0714 -0.8482  1.5059
 8527SOL     OW26652   0.415   4.617   5.812 -0.0812 -0.3994 -0.0726
 8527SOL    HW126653   0.495   4.667   5.799  0.1087 -0.5959  0.3016
 8527SOL    HW226654   0.393   4.584   5.725  0.8119 -1.1804 -0.0217
 8528SOL     OW26655   2.347   5.479   2.028 -0.0205 -0.1559 -0.4867
 8528SOL    HW126656   2.411   5.524   1.972  1.4050 -1.9825 -0.4358
 8528SOL    HW226657   2.386   5.480   2.115  0.1044 -1.5303 -0.5045
 8529SOL     OW26658   7.855   2.614   3.722  0.2127  0.7564 -0.1050
 8529SOL    HW126659   7.797   2.689   3.734  1.7241  2.2352 -1.6373
 8529SOL    HW226660   7.878   2.615   3.629  1.8729 -0.3834  0.2419
 8530SOL     OW26661   3.742   6.118   4.975 -0.1237 -0.4335 -0.2596
 8530SOL    HW126662   3.724   6.161   4.891  1.0925  1.3133  0.3150
 8530SOL    HW226663   3.748   6.025   4.953  1.6750  0.0902 -2.4437
 8531SOL     OW26664   5.062   2.629   2.836 -0.2103  0.2479  0.0455
 8531SOL    HW126665   5.120   2.673   2.774  0.5261 -1.2661 -0.4016
 8531SOL    HW226666   4.987   2.601   2.783  0.2977 -0.8170 -0.1452
 8532SOL     OW26667   5.335   5.915   3.266  0.1033 -0.5385  0.5906
 8532SOL    HW126668   5.244   5.929   3.293  0.3304  2.8642  0.0376
 8532SOL    HW226669   5.384   5.910   3.348 -0.1597  1.8878  0.9820
 8533SOL     OW26670   1.361   3.375   7.456 -0.2470 -0.0764 -0.2773
 8533SOL    HW126671   1.334   3.440   7.520 -2.5370  0.6669 -1.8905
 8533SOL    HW226672   1.327   3.292   7.490  0.7764 -0.1130  0.6953
 8534SOL     OW26673   2.587   1.310   2.709  0.3432  0.1830 -0.0566
 8534SOL    HW126674   2.656   1.253   2.743  0.2197 -0.3041 -0.6245
 8534SOL    HW226675   2.505   1.267   2.734  0.2272  0.9299  0.9107
 8535SOL     OW26676   2.687   5.386   7.013  0.2230 -0.1321  0.4947
 8535SOL    HW126677   2.743   5.429   7.078  0.7600 -0.0170 -0.0348
 8535SOL    HW226678   2.601   5.381   7.055  0.9044 -1.4767  1.8449
 8536SOL     OW26679   5.309   3.938   5.998  0.3959  0.3080  0.6728
 8536SOL    HW126680   5.258   4.007   6.041 -0.1127 -0.1363  0.7997
 8536SOL    HW226681   5.399   3.955   6.023  0.3352  1.2309  0.2827
 8537SOL     OW26682   1.200   0.361   4.674  0.3317  0.0639 -0.0987
 8537SOL    HW126683   1.192   0.387   4.582 -0.4218  0.4715  0.0739
 8537SOL    HW226684   1.110   0.362   4.707  0.3469 -2.0112  0.1381
 8538SOL     OW26685   1.728   0.349   5.685 -0.0328 -0.4759 -0.2737
 8538SOL    HW126686   1.775   0.365   5.603  0.2337 -2.7033 -0.6269
 8538SOL    HW226687   1.759   0.417   5.745 -0.9158  1.7884 -2.2202
 8539SOL     OW26688   8.093   2.109   6.446 -0.2108  0.4404  0.9369
 8539SOL    HW126689   8.073   2.186   6.393  0.8785  1.8718  2.5309
 8539SOL    HW226690   8.049   2.037   6.400  0.7143  1.5549 -1.9416
 8540SOL     OW26691   4.156   3.258   7.297 -0.2601  0.5233 -0.1726
 8540SOL    HW126692   4.199   3.344   7.299 -0.3231  0.5511 -0.0380
 8540SOL    HW226693   4.224   3.197   7.327  0.4057  0.2590 -2.0479
 8541SOL     OW26694   7.394   7.885   5.020 -0.1351 -0.1630  0.0753
 8541SOL    HW126695   7.478   7.847   4.994 -0.4499 -0.5221 -0.4378
 8541SOL    HW226696   7.351   7.815   5.070  0.1299  0.2418  0.8798
 8542SOL     OW26697   4.616   7.205   4.909  0.4469  0.1253  0.2189
 8542SOL    HW126698   4.558   7.236   4.979  2.0017  0.9708  1.1737
 8542SOL    HW226699   4.603   7.268   4.839  0.8098  0.7879  0.7377
 8543SOL     OW26700   1.205   1.417   1.151  0.1163 -0.5731 -0.0679
 8543SOL    HW126701   1.210   1.448   1.060  0.2872 -0.5817 -0.0624
 8543SOL    HW226702   1.295   1.393   1.173  0.0612 -0.6481  0.0777
 8544SOL     OW26703   0.086   0.603   0.252 -0.2398 -0.1629  0.3167
 8544SOL    HW126704   0.102   0.558   0.169 -0.0438  1.7017 -0.7028
 8544SOL    HW226705   0.127   0.689   0.241 -1.4857  0.6676  1.7916
 8545SOL     OW26706   4.330   7.618   7.239 -0.2714  0.1938 -0.7075
 8545SOL    HW126707   4.350   7.680   7.309 -0.9275 -0.2923 -0.0710
 8545SOL    HW226708   4.360   7.534   7.272  2.0710  0.3514 -2.2067
 8546SOL     OW26709   4.986   7.807   0.492 -0.3745  0.4981  0.6090
 8546SOL    HW126710   4.911   7.850   0.450 -0.2380  0.1473  0.0012
 8546SOL    HW226711   5.058   7.869   0.481 -0.3500  0.4261  0.3801
 8547SOL     OW26712   2.786   3.970   5.323 -0.6702  0.6680  0.3864
 8547SOL    HW126713   2.710   3.933   5.368  0.6051 -0.6702  1.5695
 8547SOL    HW226714   2.806   4.050   5.372 -0.4335  0.2266  1.0253
 8548SOL     OW26715   4.693   4.564   3.774  0.1509  0.1499 -0.1260
 8548SOL    HW126716   4.724   4.511   3.847 -0.8989 -0.2261  0.0642
 8548SOL    HW226717   4.629   4.624   3.814 -1.1542 -0.7045 -0.8615
 8549SOL     OW26718   3.785   6.309   1.222 -0.2588 -0.0063  0.6889
 8549SOL    HW126719   3.772   6.332   1.130  1.0489 -0.0227  0.4885
 8549SOL    HW226720   3.801   6.393   1.265  1.7317 -0.2133  0.4336
 8550SOL     OW26721   6.202   2.444   1.628 -0.4508  0.3409  0.2464
 8550SOL    HW126722   6.115   2.408   1.614 -0.4266  0.0548  0.8035
 8550SOL    HW226723   6.262   2.375   1.601 -0.3973  0.4650  0.0461
 8551SOL     OW26724   2.815   5.556   0.141  0.2309  0.9673 -0.2253
 8551SOL    HW126725   2.892   5.564   0.084  0.7052  1.3187  0.4384
 8551SOL    HW226726   2.763   5.634   0.122  0.1300  0.8158 -0.5573
 8552SOL     OW26727   7.471   5.777   6.073 -0.1605 -0.4661 -0.4649
 8552SOL    HW126728   7.478   5.765   6.168  0.5329  0.1344 -0.4271
 8552SOL    HW226729   7.385   5.742   6.051  0.7489 -3.1498 -0.0460
 8553SOL     OW26730   7.860   5.840   4.357  0.7016 -0.1037  0.7194
 8553SOL    HW126731   7.882   5.752   4.326 -2.3416 -0.3745 -1.0381
 8553SOL    HW226732   7.889   5.898   4.287  3.1091  0.4527  2.0670
 8554SOL     OW26733   2.566   8.060   1.521  0.1004  0.1009 -0.1156
 8554SOL    HW126734   2.640   8.121   1.509  0.9457 -1.0120 -0.7727
 8554SOL    HW226735   2.523   8.058   1.435  0.6223 -0.8828 -0.3723
 8555SOL     OW26736   4.775   1.831   0.038 -0.0516  0.3518  0.0997
 8555SOL    HW126737   4.729   1.874   0.111 -0.4716  0.0079  0.0387
 8555SOL    HW226738   4.863   1.868   0.041  0.3194 -0.5610  1.5597
 8556SOL     OW26739   5.314   1.709   0.275 -0.1784 -0.1971 -0.8648
 8556SOL    HW126740   5.401   1.716   0.315 -0.7586  2.8546  0.1188
 8556SOL    HW226741   5.284   1.621   0.298  1.6424 -0.4239  0.9391
 8557SOL     OW26742   5.321   6.830   6.954 -0.7515 -0.3350  0.0619
 8557SOL    HW126743   5.287   6.799   7.038 -1.1443 -1.3087 -0.4445
 8557SOL    HW226744   5.243   6.856   6.905 -0.4060  3.6938  1.2175
 8558SOL     OW26745   7.590   1.115   7.195  1.0616  0.5993 -0.0078
 8558SOL    HW126746   7.539   1.061   7.135  0.7133  0.0486  0.7525
 8558SOL    HW226747   7.525   1.154   7.254  1.3673  1.3733 -0.1773
 8559SOL     OW26748   5.349   7.587   4.184  0.3076  0.6728 -0.3424
 8559SOL    HW126749   5.332   7.604   4.092 -0.8060  1.1125 -0.0718
 8559SOL    HW226750   5.263   7.595   4.226  0.4152 -1.5704  0.4387
 8560SOL     OW26751   3.448   4.941   2.736 -0.8631  0.1002 -0.6605
 8560SOL    HW126752   3.456   4.940   2.831 -0.6474 -1.5602 -0.6670
 8560SOL    HW226753   3.451   5.033   2.712  1.7221  0.4506  0.7221
 8561SOL     OW26754   3.029   7.967   2.165 -0.2964  0.0988  0.1206
 8561SOL    HW126755   2.960   7.913   2.204 -1.7913  2.4286  0.9575
 8561SOL    HW226756   2.987   8.007   2.088  0.2338  1.1887  0.3741
 8562SOL     OW26757   7.865   0.752   2.196 -0.1799 -0.5964  0.0186
 8562SOL    HW126758   7.906   0.709   2.271  0.5129 -0.5199 -0.3061
 8562SOL    HW226759   7.820   0.681   2.150  1.3508 -1.0970 -0.7742
 8563SOL     OW26760   4.502   4.114   3.017 -0.0079  0.2056 -0.5427
 8563SOL    HW126761   4.460   4.174   3.079  0.3906  1.7851 -1.7317
 8563SOL    HW226762   4.596   4.128   3.030  0.1446 -1.4282  0.3255
 8564SOL     OW26763   1.134   3.308   1.251 -0.1195  0.1360 -0.4608
 8564SOL    HW126764   1.136   3.224   1.206 -2.5265  0.0673 -0.5902
 8564SOL    HW226765   1.189   3.295   1.329  1.0628 -0.9145 -1.4343
 8565SOL     OW26766   4.556   0.950   7.899  0.3033 -0.0554 -0.3557
 8565SOL    HW126767   4.464   0.956   7.873  0.3016 -0.1126 -0.3620
 8565SOL    HW226768   4.591   0.879   7.845 -0.8204 -3.5941  3.1228
 8566SOL     OW26769   7.592   2.826   3.733 -0.2900  0.8234 -0.2517
 8566SOL    HW126770   7.630   2.889   3.673  1.6629 -0.6412 -0.6652
 8566SOL    HW226771   7.498   2.831   3.718 -0.1182  2.9896 -0.8523
 8567SOL     OW26772   5.373   2.338   4.257  0.5029 -0.0818 -0.5078
 8567SOL    HW126773   5.328   2.416   4.224 -2.2716 -2.0998 -1.9494
 8567SOL    HW226774   5.465   2.352   4.235 -0.1897  1.9216 -2.5049
 8568SOL     OW26775   2.949   5.282   3.969  0.2435 -0.0454  0.7660
 8568SOL    HW126776   3.045   5.280   3.976  0.4792  1.2568 -1.2307
 8568SOL    HW226777   2.927   5.205   3.918  0.0754 -0.9670  2.1781
 8569SOL     OW26778   7.125   6.630   1.302 -0.7039  0.6118  0.0186
 8569SOL    HW126779   7.124   6.616   1.396 -0.1955  0.2281 -0.0308
 8569SOL    HW226780   7.080   6.714   1.290 -2.0763 -0.0383  0.4682
 8570SOL     OW26781   7.513   5.329   7.269  0.3129  0.6146  0.8199
 8570SOL    HW126782   7.590   5.276   7.245  0.2774  0.3297  1.3288
 8570SOL    HW226783   7.448   5.264   7.296 -0.2775  0.8214 -0.0597
 8571SOL     OW26784   2.854   2.158   4.709  0.0110 -0.5706 -0.2800
 8571SOL    HW126785   2.871   2.074   4.667 -0.2770 -1.0998  0.6308
 8571SOL    HW226786   2.907   2.157   4.789 -0.4526 -0.1437  0.0460
 8572SOL     OW26787   7.404   6.851   8.161  0.1734  0.1587 -0.4497
 8572SOL    HW126788   7.362   6.784   8.214 -0.2801  1.6063  1.1210
 8572SOL    HW226789   7.487   6.868   8.205  0.3873  0.4682 -0.9617
 8573SOL     OW26790   7.021   2.433   4.046  0.2536 -0.0155 -0.7511
 8573SOL    HW126791   6.990   2.523   4.041 -0.4867 -0.1085  1.2924
 8573SOL    HW226792   7.105   2.438   4.092  1.1173 -0.2232 -2.2368
 8574SOL     OW26793   8.124   4.032   5.033  0.4056  0.6115 -0.3103
 8574SOL    HW126794   8.072   3.961   5.072  0.7356  0.0998 -0.7862
 8574SOL    HW226795   8.072   4.062   4.958 -0.1595  1.4966  0.4195
 8575SOL     OW26796   6.795   5.363   4.253  0.6579 -0.2316  0.1872
 8575SOL    HW126797   6.863   5.429   4.237  1.7106 -1.0969  0.8784
 8575SOL    HW226798   6.820   5.324   4.337  0.2676 -1.7357 -0.3725
 8576SOL     OW26799   1.102   4.087   0.243 -0.2932  0.0187  0.5097
 8576SOL    HW126800   1.129   3.997   0.224  1.6630  0.7173 -0.3190
 8576SOL    HW226801   1.056   4.082   0.327 -0.0346 -1.7148  0.5730
 8577SOL     OW26802   6.804   0.450   2.557  0.5031 -0.1479 -0.3846
 8577SOL    HW126803   6.819   0.521   2.494  0.1386  1.4002  1.1872
 8577SOL    HW226804   6.890   0.433   2.594  0.5702 -0.4319 -0.6741
 8578SOL     OW26805   2.687   6.358   8.090  0.1273 -0.0016 -0.2279
 8578SOL    HW126806   2.739   6.323   8.018  0.2153  0.1899 -0.2581
 8578SOL    HW226807   2.614   6.296   8.099  2.5212 -2.6822  2.6133
 8579SOL     OW26808   0.261   3.181   4.940 -1.0260  0.1893  0.1841
 8579SOL    HW126809   0.349   3.218   4.940 -0.6442 -0.4806 -2.8601
 8579SOL    HW226810   0.215   3.229   5.009  1.3882  1.3189  1.1189
 8580SOL     OW26811   2.411   0.541   4.065 -0.5011  0.3316  0.9188
 8580SOL    HW126812   2.359   0.517   3.987 -0.0264 -1.3143  1.0773
 8580SOL    HW226813   2.352   0.526   4.138 -0.7859  1.4208  0.9355
 8581SOL     OW26814   1.809   1.342   3.761 -0.3675  0.2027 -0.0436
 8581SOL    HW126815   1.806   1.394   3.841  0.6788  0.8894 -0.4272
 8581SOL    HW226816   1.741   1.277   3.772 -0.3998  0.4390  1.3034
 8582SOL     OW26817   0.146   2.538   3.781  0.1874  0.1307 -0.1276
 8582SOL    HW126818   0.095   2.457   3.783 -0.2766  0.2616  4.4720
 8582SOL    HW226819   0.081   2.608   3.791  0.8410  0.7606 -0.1685
 8583SOL     OW26820   6.417   7.114   2.799 -0.0018  0.0093 -0.1328
 8583SOL    HW126821   6.378   7.027   2.793 -2.4230  0.9265  1.0089
 8583SOL    HW226822   6.386   7.149   2.883  1.1348  1.8799 -0.4203
 8584SOL     OW26823   3.346   6.974   2.248  0.2519 -0.7868  0.8060
 8584SOL    HW126824   3.425   6.942   2.291  0.5782 -0.4625  0.4489
 8584SOL    HW226825   3.349   6.934   2.161  0.0582 -0.7128  0.7648
 8585SOL     OW26826   7.968   7.184   6.245  0.3569 -0.6727  0.1796
 8585SOL    HW126827   7.879   7.205   6.272  0.9301  0.0125  1.6479
 8585SOL    HW226828   7.980   7.231   6.163  0.0941  1.1182  1.1245
 8586SOL     OW26829   5.691   8.014   0.441 -0.0176 -0.5435  0.3900
 8586SOL    HW126830   5.657   8.054   0.520 -0.1531 -0.8971  0.5159
 8586SOL    HW226831   5.771   8.062   0.421  0.9058 -1.4716  1.6471
 8587SOL     OW26832   4.664   1.057   1.489 -0.2669 -0.0740  0.0251
 8587SOL    HW126833   4.619   1.075   1.407 -0.3835 -0.8133 -0.0762
 8587SOL    HW226834   4.602   1.083   1.557 -0.0833  0.7539 -0.1135
 8588SOL     OW26835   0.122   2.352   4.442 -0.5541 -0.1267  0.4993
 8588SOL    HW126836   0.191   2.372   4.505 -0.1717 -0.6580  0.2588
 8588SOL    HW226837   0.098   2.261   4.461 -1.0200 -0.0234  0.4214
 8589SOL     OW26838   2.607   5.254   6.132  0.0431 -0.4978 -0.0685
 8589SOL    HW126839   2.545   5.322   6.106  1.3039  0.2914 -1.1302
 8589SOL    HW226840   2.555   5.174   6.133 -1.4601  0.4154  1.1190
 8590SOL     OW26841   4.681   4.915   6.577 -0.0535  0.1971 -0.1309
 8590SOL    HW126842   4.690   4.827   6.541 -0.1169  0.4472 -0.7751
 8590SOL    HW226843   4.672   4.902   6.671 -0.5217 -0.5149 -0.2695
 8591SOL     OW26844   3.044   7.623   5.095  0.7292 -0.4609 -0.0977
 8591SOL    HW126845   3.137   7.606   5.079  0.5603 -0.8051 -0.7654
 8591SOL    HW226846   2.999   7.548   5.055  0.1127  0.2124 -0.6972
 8592SOL     OW26847   4.501   0.750   7.352  0.3113  0.1388  0.4140
 8592SOL    HW126848   4.517   0.833   7.306  1.6917  0.0353  0.6581
 8592SOL    HW226849   4.499   0.774   7.445 -0.8128  0.1005  0.4178
 8593SOL     OW26850   4.931   4.862   3.393 -0.5449  0.3391 -0.7228
 8593SOL    HW126851   4.937   4.905   3.307  1.7436  0.6069 -0.4993
 8593SOL    HW226852   5.004   4.801   3.394 -2.1841 -1.7139  0.0113
 8594SOL     OW26853   3.839   7.161   5.518 -0.1248 -0.1130  0.2658
 8594SOL    HW126854   3.873   7.247   5.544  0.9092 -0.4980  0.2518
 8594SOL    HW226855   3.782   7.136   5.590  0.3929  0.1349  0.7797
 8595SOL     OW26856   4.470   6.824   7.019 -0.4230 -0.0798 -0.1604
 8595SOL    HW126857   4.543   6.826   7.081  0.4191 -1.0552 -1.0886
 8595SOL    HW226858   4.438   6.915   7.017  0.8080  0.3810  0.2240
 8596SOL     OW26859   7.775   5.238   4.117 -0.5936  0.2142  0.1026
 8596SOL    HW126860   7.786   5.144   4.130  1.5871 -0.0204 -2.4826
 8596SOL    HW226861   7.710   5.245   4.047 -0.6772  0.6330  0.2212
 8597SOL     OW26862   3.838   2.330   0.244 -0.4071  0.4362  0.0112
 8597SOL    HW126863   3.873   2.407   0.288 -1.7306  0.0893  1.8065
 8597SOL    HW226864   3.915   2.279   0.218  0.4460  1.3543  0.6914
 8598SOL     OW26865   2.820   2.423   1.184 -0.0376 -0.0639  0.3831
 8598SOL    HW126866   2.915   2.433   1.189  0.1577 -1.4042 -0.3005
 8598SOL    HW226867   2.792   2.491   1.123  0.2004  1.6614  2.0731
 8599SOL     OW26868   0.595   2.957   0.470 -0.5339  0.1146 -0.2656
 8599SOL    HW126869   0.659   2.903   0.515  0.0266  0.1535 -0.9986
 8599SOL    HW226870   0.645   3.033   0.439 -1.3160  1.1161  0.8249
 8600SOL     OW26871   2.160   5.661   4.040 -0.5409 -0.0130  0.1985
 8600SOL    HW126872   2.176   5.751   4.013 -2.0311 -0.1673 -1.4183
 8600SOL    HW226873   2.220   5.609   3.988 -1.0747 -0.0772 -0.3632
 8601SOL     OW26874   2.893   0.345   0.891 -0.0756 -0.1720  0.2900
 8601SOL    HW126875   2.820   0.299   0.933  0.6827 -1.7023 -0.0071
 8601SOL    HW226876   2.955   0.360   0.963 -0.3405  0.4592  0.3952
 8602SOL     OW26877   1.645   4.897   2.318  0.2290  0.6711  0.5242
 8602SOL    HW126878   1.715   4.958   2.338 -1.2937  1.8856  2.4696
 8602SOL    HW226879   1.671   4.816   2.361  0.2640  1.2362  1.6006
 8603SOL     OW26880   0.714   3.889   0.200 -0.6261  0.3355 -0.2557
 8603SOL    HW126881   0.782   3.952   0.176  1.0599 -1.5545 -0.6701
 8603SOL    HW226882   0.649   3.897   0.131  0.2792  0.6066 -1.1039
 8604SOL     OW26883   6.529   4.746   6.083  0.3105 -0.4153  0.0277
 8604SOL    HW126884   6.582   4.817   6.120 -0.8389  0.7325 -0.4579
 8604SOL    HW226885   6.582   4.712   6.011  0.8901 -0.0870  0.2855
 8605SOL     OW26886   0.353   2.652   8.069 -0.4541 -0.2558  0.2941
 8605SOL    HW126887   0.279   2.713   8.079 -2.2762 -2.1093 -1.1949
 8605SOL    HW226888   0.364   2.643   7.974 -0.4037 -2.3841  0.4564
 8606SOL     OW26889   4.645   6.242   0.753  0.2931  0.3855 -0.2099
 8606SOL    HW126890   4.553   6.216   0.746  0.6968 -0.7477 -2.1030
 8606SOL    HW226891   4.658   6.260   0.846 -1.5020 -0.7520  0.3112
 8607SOL     OW26892   7.617   6.600   1.145 -0.1923  0.2808  0.1239
 8607SOL    HW126893   7.670   6.539   1.197 -0.1671 -1.8896 -2.2524
 8607SOL    HW226894   7.527   6.583   1.174 -0.1292 -0.5157 -0.1065
 8608SOL     OW26895   1.654   6.459   7.343 -0.5441 -0.0740 -0.0722
 8608SOL    HW126896   1.588   6.500   7.399 -0.7435 -1.0246  0.4013
 8608SOL    HW226897   1.738   6.485   7.383 -0.6877 -0.9125  0.8011
 8609SOL     OW26898   2.436   3.169   2.139 -0.1882 -0.0645  0.0000
 8609SOL    HW126899   2.488   3.249   2.136  2.1984 -1.5176 -0.6325
 8609SOL    HW226900   2.400   3.166   2.227 -1.5126  2.3425 -0.3942
 8610SOL     OW26901   7.632   0.763   0.282 -0.2138  0.1305 -0.0121
 8610SOL    HW126902   7.668   0.771   0.193 -2.6925 -4.7088 -1.8298
 8610SOL    HW226903   7.558   0.824   0.283  0.8901  1.5473 -0.5254
 8611SOL     OW26904   7.620   0.621   4.415 -0.0272 -0.0533 -0.2404
 8611SOL    HW126905   7.553   0.573   4.365  0.9529 -0.8902 -0.7815
 8611SOL    HW226906   7.702   0.578   4.392  0.5856  0.2865  1.2241
 8612SOL     OW26907   3.222   7.896   0.305 -0.4102 -0.2698  0.4856
 8612SOL    HW126908   3.306   7.881   0.262 -0.2196  1.0171  0.3884
 8612SOL    HW226909   3.159   7.899   0.233 -0.2443  0.7924  0.3739
 8613SOL     OW26910   7.864   3.725   4.287 -0.1796 -0.2836  0.4629
 8613SOL    HW126911   7.867   3.638   4.328 -1.8145  0.0330  1.3314
 8613SOL    HW226912   7.806   3.713   4.212 -0.1848  0.0042  0.4201
 8614SOL     OW26913   0.825   3.415   4.989 -0.3567  0.2788  0.0744
 8614SOL    HW126914   0.820   3.483   4.922 -0.6617  0.1747 -0.0118
 8614SOL    HW226915   0.838   3.463   5.071 -2.7471  0.6299  0.3348
 8615SOL     OW26916   4.115   4.539   6.912 -0.0479  0.5730  0.2098
 8615SOL    HW126917   4.020   4.522   6.909 -0.4607  2.8051 -1.6834
 8615SOL    HW226918   4.149   4.495   6.834  0.4896 -0.0901  0.8051
 8616SOL     OW26919   1.244   3.944   0.926  0.0508 -0.4708 -0.3675
 8616SOL    HW126920   1.156   3.969   0.954 -0.3733 -1.1823 -1.0343
 8616SOL    HW226921   1.250   3.851   0.944  0.2884 -0.6395 -1.2881
 8617SOL     OW26922   6.096   5.249   7.792 -0.1837 -0.6250  0.7930
 8617SOL    HW126923   6.136   5.172   7.751  0.4738  0.3191 -0.4000
 8617SOL    HW226924   6.160   5.277   7.857  2.5477  2.3591 -2.7659
 8618SOL     OW26925   0.490   5.985   2.315 -0.0913  0.0563 -0.0437
 8618SOL    HW126926   0.458   6.024   2.396  0.7702  1.5838 -0.3948
 8618SOL    HW226927   0.446   5.900   2.310 -2.6074  1.2221  0.4290
 8619SOL     OW26928   2.731   5.408   4.065  0.4090  0.4541  0.0699
 8619SOL    HW126929   2.790   5.364   4.003  1.0479 -0.1779  1.0917
 8619SOL    HW226930   2.789   5.448   4.130 -0.2693 -0.5801  1.3697
 8620SOL     OW26931   0.760   4.338   2.947  0.0198  0.0023  0.0304
 8620SOL    HW126932   0.745   4.329   3.041 -0.5188  1.3675  0.0931
 8620SOL    HW226933   0.781   4.430   2.934 -1.6731  0.2513 -1.3980
 8621SOL     OW26934   4.209   6.789   0.607 -0.4433  0.2911  0.3572
 8621SOL    HW126935   4.245   6.869   0.568 -2.1040  1.1039  0.3857
 8621SOL    HW226936   4.210   6.806   0.701 -0.5182  0.1427  0.3852
 8622SOL     OW26937   1.394   1.611   7.073 -0.0869  0.4898  0.3754
 8622SOL    HW126938   1.393   1.570   7.160 -1.3853  0.1634  0.2244
 8622SOL    HW226939   1.464   1.566   7.026  0.1855  0.2114  1.0319
 8623SOL     OW26940   7.477   0.968   5.912 -0.1633  0.2457  0.0933
 8623SOL    HW126941   7.489   1.061   5.893 -0.3701  0.0989 -0.8174
 8623SOL    HW226942   7.560   0.940   5.950  0.0277  0.7222  0.0353
 8624SOL     OW26943   0.527   2.581   5.940  0.0022  0.1127  0.2719
 8624SOL    HW126944   0.580   2.654   5.974 -0.8347  1.4700 -1.1814
 8624SOL    HW226945   0.437   2.606   5.959 -0.3260 -0.2931 -0.7133
 8625SOL     OW26946   4.313   0.806   1.612 -0.8302  0.1059 -1.0297
 8625SOL    HW126947   4.230   0.794   1.565 -1.6061  0.3309  0.2066
 8625SOL    HW226948   4.325   0.901   1.614 -0.9636  0.1150 -0.5298
 8626SOL     OW26949   0.589   3.174   4.264  0.4975 -0.4738  0.3734
 8626SOL    HW126950   0.582   3.269   4.250 -1.9863 -0.6049  0.3430
 8626SOL    HW226951   0.666   3.149   4.213  2.2123  1.7240  1.6757
 8627SOL     OW26952   0.875   6.823   7.684 -0.2642  0.2432  0.0088
 8627SOL    HW126953   0.839   6.735   7.694  1.5933 -0.6633 -0.7258
 8627SOL    HW226954   0.825   6.861   7.612  0.1438 -0.9748 -0.9778
 8628SOL     OW26955   1.892   1.295   4.669  0.2619 -0.3180 -0.0131
 8628SOL    HW126956   1.908   1.375   4.620 -2.3654  0.1264 -0.3153
 8628SOL    HW226957   1.900   1.321   4.761 -0.9752  0.4402 -0.0977
 8629SOL     OW26958   2.978   4.066   3.947  0.3400  0.2428 -0.2241
 8629SOL    HW126959   3.035   4.099   4.016  1.0044 -1.1220 -0.0916
 8629SOL    HW226960   2.898   4.040   3.992  0.3400  0.3960 -0.1353
 8630SOL     OW26961   2.110   5.635   6.003 -0.2571 -0.1261  0.4976
 8630SOL    HW126962   2.027   5.682   6.009 -0.8163 -1.1128  0.6792
 8630SOL    HW226963   2.170   5.697   5.961 -1.0220  0.6701  0.5577
 8631SOL     OW26964   5.361   1.160   2.928 -0.1452 -0.4819 -0.7992
 8631SOL    HW126965   5.422   1.158   3.002 -2.6872 -1.8929  1.4592
 8631SOL    HW226966   5.308   1.238   2.943  0.1079 -0.0766 -1.8986
 8632SOL     OW26967   5.063   4.348   1.065 -0.2103 -0.5034 -0.2768
 8632SOL    HW126968   4.974   4.315   1.056 -0.4593 -0.0016  0.2810
 8632SOL    HW226969   5.080   4.347   1.159  1.2267 -2.7673 -0.4859
 8633SOL     OW26970   0.899   7.058   0.308 -0.0477  0.4450  0.0481
 8633SOL    HW126971   0.936   7.005   0.379  0.0977 -0.1284 -0.4477
 8633SOL    HW226972   0.975   7.104   0.271 -0.3429  1.9970  1.2792
 8634SOL     OW26973   1.523   6.191   7.249 -0.2835  0.5482 -0.2558
 8634SOL    HW126974   1.584   6.152   7.312 -0.6713 -0.9130 -0.7408
 8634SOL    HW226975   1.487   6.267   7.294  0.4716  0.3285  0.7604
 8635SOL     OW26976   7.488   2.788   2.917  0.5987 -0.3061 -0.1056
 8635SOL    HW126977   7.417   2.778   2.854 -0.3665 -0.2677  0.9412
 8635SOL    HW226978   7.545   2.855   2.880 -0.0248 -0.1830 -0.8490
 8636SOL     OW26979   7.349   7.728   0.276  0.1301  0.1101  0.0343
 8636SOL    HW126980   7.429   7.770   0.243  1.3858 -1.5952  0.7461
 8636SOL    HW226981   7.366   7.634   0.265 -1.4477 -0.3054  0.9691
 8637SOL     OW26982   5.913   5.444   6.780  0.7254  0.2262  0.3814
 8637SOL    HW126983   5.916   5.350   6.799 -0.1520  0.1780  0.3242
 8637SOL    HW226984   5.831   5.456   6.733  1.3112  0.8756 -0.4862
 8638SOL     OW26985   5.796   2.616   3.081  0.4078 -0.1158  0.3350
 8638SOL    HW126986   5.797   2.710   3.099  0.1228  0.1417 -0.8986
 8638SOL    HW226987   5.737   2.579   3.147  1.0774  0.4653  1.2737
 8639SOL     OW26988   0.255   5.593   4.688  0.3975  0.6265  0.7071
 8639SOL    HW126989   0.166   5.561   4.681 -0.1887  2.1035  0.8932
 8639SOL    HW226990   0.310   5.519   4.664 -0.9458  0.4221 -2.0435
 8640SOL     OW26991   2.720   7.771   5.606  0.3270  0.4986  0.3250
 8640SOL    HW126992   2.760   7.698   5.557  0.7247  1.0934 -0.2602
 8640SOL    HW226993   2.696   7.835   5.538  1.1174  1.4505  0.9140
 8641SOL     OW26994   0.852   2.125   4.331  0.2547 -0.2456 -0.2976
 8641SOL    HW126995   0.767   2.092   4.360  1.2660 -1.1602  1.9061
 8641SOL    HW226996   0.874   2.194   4.393  1.1720 -0.1149 -0.7443
 8642SOL     OW26997   1.773   0.257   4.555 -0.2818  0.2243 -0.1843
 8642SOL    HW126998   1.843   0.215   4.504  1.6063  2.7300  0.1757
 8642SOL    HW226999   1.775   0.212   4.640 -0.6140 -1.1465 -0.8718
 8643SOL     OW27000   7.828   4.000   4.304 -0.0705  0.1360  0.0440
 8643SOL    HW127001   7.848   3.907   4.313  0.6354  0.1206 -1.4312
 8643SOL    HW227002   7.740   4.003   4.268  1.2097 -0.1681 -3.5668
 8644SOL     OW27003   0.352   4.439   3.143  0.3640 -0.6341  0.4458
 8644SOL    HW127004   0.404   4.487   3.208  0.5874 -2.3255  1.5790
 8644SOL    HW227005   0.351   4.497   3.067 -0.2786  1.6507  2.0449
 8645SOL     OW27006   4.439   6.199   7.246  0.5965 -0.2758 -0.1719
 8645SOL    HW127007   4.394   6.144   7.309 -0.0266 -0.2766 -0.6170
 8645SOL    HW227008   4.484   6.138   7.187 -0.6442 -0.3555 -1.0781
 8646SOL     OW27009   7.165   2.442   7.861 -0.4782 -0.1450  0.5466
 8646SOL    HW127010   7.152   2.482   7.947  0.6806 -2.5142  1.9269
 8646SOL    HW227011   7.151   2.348   7.876  1.4535 -0.8341 -1.4485
 8647SOL     OW27012   3.893   2.854   4.313  0.3357 -0.6027  0.3192
 8647SOL    HW127013   3.933   2.767   4.308  0.1677 -0.6089 -1.1451
 8647SOL    HW227014   3.851   2.856   4.400 -1.5285 -2.8227 -0.4231
 8648SOL     OW27015   7.192   0.616   8.054 -0.0638  0.1640 -0.1447
 8648SOL    HW127016   7.265   0.601   7.995  0.4119  1.4217  0.1118
 8648SOL    HW227017   7.229   0.605   8.142 -0.5898 -0.9197 -0.0377
 8649SOL     OW27018   3.774   0.868   5.523  0.3266 -0.0748 -0.4689
 8649SOL    HW127019   3.817   0.954   5.512 -0.0272  0.2386  0.4860
 8649SOL    HW227020   3.689   0.879   5.482  1.8731 -1.4194 -4.5335
 8650SOL     OW27021   4.231   3.989   4.616 -0.2681 -0.1051 -0.3702
 8650SOL    HW127022   4.266   3.970   4.529 -0.5838  2.8203 -1.2504
 8650SOL    HW227023   4.306   4.023   4.666 -0.5675  0.4936 -0.3117
 8651SOL     OW27024   4.351   0.957   7.695 -0.6397 -0.2339 -0.2954
 8651SOL    HW127025   4.405   1.005   7.633  1.7380 -0.7652  1.2363
 8651SOL    HW227026   4.381   0.866   7.689  0.1374 -0.1885  2.0510
 8652SOL     OW27027   1.002   3.915   1.634 -0.4052 -0.4639  0.0807
 8652SOL    HW127028   1.095   3.893   1.620 -0.9945 -4.4459  1.1196
 8652SOL    HW227029   0.999   3.953   1.721  0.2218 -0.3552  0.0628
 8653SOL     OW27030   6.510   1.693   5.651  0.0142 -0.1934 -0.7149
 8653SOL    HW127031   6.492   1.775   5.606  0.6695 -0.1667 -0.9273
 8653SOL    HW227032   6.427   1.645   5.647 -0.4694  0.5766 -0.3160
 8654SOL     OW27033   4.508   4.660   7.009 -0.2545  0.5295  0.1261
 8654SOL    HW127034   4.488   4.570   6.984  1.1237 -0.0355  0.9227
 8654SOL    HW227035   4.435   4.711   6.976 -1.2257 -0.9246 -0.0634
 8655SOL     OW27036   1.524   5.903   8.156  0.0152 -0.4373  1.0491
 8655SOL    HW127037   1.460   5.841   8.121 -0.3647 -0.1342  1.1927
 8655SOL    HW227038   1.577   5.929   8.081 -0.1370 -0.5718  0.8955
 8656SOL     OW27039   3.591   2.800   6.244 -0.0008  0.0393  0.8559
 8656SOL    HW127040   3.560   2.722   6.200  0.0446  0.5071 -0.0335
 8656SOL    HW227041   3.552   2.796   6.332 -3.0916  0.8919 -0.3722
 8657SOL     OW27042   3.385   0.609   1.888 -0.2070  0.4089  0.5147
 8657SOL    HW127043   3.350   0.521   1.902 -0.6641  0.4643 -0.2338
 8657SOL    HW227044   3.469   0.609   1.933  0.4741 -0.8938 -0.6892
 8658SOL     OW27045   2.071   3.660   0.993  0.2359 -0.7905  0.2965
 8658SOL    HW127046   2.044   3.569   0.984  1.4289 -1.1546  0.3278
 8658SOL    HW227047   2.021   3.692   1.069  0.2963 -1.6094  0.6890
 8659SOL     OW27048   0.957   4.992   5.807 -0.2089 -0.1265 -0.0794
 8659SOL    HW127049   0.999   5.030   5.883 -1.9019  0.0610  0.8085
 8659SOL    HW227050   0.887   5.054   5.784 -0.7940 -0.9905 -0.7288
 8660SOL     OW27051   6.717   4.985   4.692 -0.2235 -0.0735  0.0334
 8660SOL    HW127052   6.699   5.073   4.660  0.8085  0.5666  1.1460
 8660SOL    HW227053   6.631   4.950   4.716 -0.4765  1.4600  1.6112
 8661SOL     OW27054   6.592   4.694   3.983 -0.3820 -0.8478 -0.3115
 8661SOL    HW127055   6.665   4.646   4.021 -1.6666 -2.1107  0.6676
 8661SOL    HW227056   6.617   4.786   3.992  0.7934 -1.2352  0.6129
 8662SOL     OW27057   2.295   1.078   4.434 -0.0714 -0.1988  0.1090
 8662SOL    HW127058   2.256   1.142   4.493 -1.3409  0.1399 -1.0556
 8662SOL    HW227059   2.231   1.066   4.365  2.0090  0.6409 -2.1232
 8663SOL     OW27060   3.712   5.582   4.208  0.0743 -0.1256  0.2317
 8663SOL    HW127061   3.671   5.587   4.295  1.0625 -0.6925  0.7454
 8663SOL    HW227062   3.702   5.491   4.182  0.5550 -0.1572  0.1460
 8664SOL     OW27063   0.758   1.016   4.165 -0.1080  0.2880 -0.2146
 8664SOL    HW127064   0.734   0.935   4.210  1.3483  1.1342  2.2774
 8664SOL    HW227065   0.812   0.987   4.091 -0.8843 -1.0592 -0.2874
 8665SOL     OW27066   4.648   1.676   6.490  0.1668  0.3831  0.1726
 8665SOL    HW127067   4.695   1.747   6.448 -0.0974 -0.6252 -1.9490
 8665SOL    HW227068   4.580   1.651   6.428 -0.7356 -0.7166  1.5230
 8666SOL     OW27069   1.383   2.126   4.383  0.1298 -0.1029  0.2773
 8666SOL    HW127070   1.413   2.150   4.471  0.1416  0.4014  0.1352
 8666SOL    HW227071   1.327   2.198   4.356 -0.7724 -0.7746  0.3119
 8667SOL     OW27072   4.278   3.816   4.068 -0.3120  0.1311  0.3939
 8667SOL    HW127073   4.242   3.811   3.979  0.3539  3.0756 -0.1625
 8667SOL    HW227074   4.357   3.869   4.059 -0.4357  0.8580  2.7992
 8668SOL     OW27075   4.961   4.448   4.739  0.5083 -0.4778  0.0090
 8668SOL    HW127076   5.030   4.481   4.796  0.3302 -1.4361  0.8106
 8668SOL    HW227077   4.890   4.423   4.799  1.0108 -3.2373 -0.4029
 8669SOL     OW27078   1.212   7.114   2.068  0.4460  0.2054 -0.0464
 8669SOL    HW127079   1.157   7.137   2.143 -0.0161 -0.4035 -0.1922
 8669SOL    HW227080   1.265   7.040   2.100  2.0152  1.5003  0.4668
 8670SOL     OW27081   5.301   1.887   7.999  0.0309  0.4541 -0.3210
 8670SOL    HW127082   5.346   1.919   7.921 -1.2504  2.9637 -0.1405
 8670SOL    HW227083   5.321   1.952   8.067 -0.3312 -0.7095  0.9497
 8671SOL     OW27084   6.515   3.684   6.669 -0.2944  0.4169  0.0451
 8671SOL    HW127085   6.593   3.680   6.723 -0.2174  3.4415  0.3131
 8671SOL    HW227086   6.457   3.616   6.704  1.2901 -0.3460  1.2892
 8672SOL     OW27087   7.992   6.245   7.336  0.0641 -0.3031 -0.1212
 8672SOL    HW127088   8.033   6.197   7.264  2.3214 -0.4393  1.1480
 8672SOL    HW227089   8.054   6.315   7.357 -1.2433  0.6656  0.7327
 8673SOL     OW27090   5.799   2.149   0.629  0.7015  0.0704 -0.7990
 8673SOL    HW127091   5.731   2.169   0.564  1.1643 -0.5859 -1.5058
 8673SOL    HW227092   5.808   2.053   0.625  1.8911  0.1780 -0.9521
 8674SOL     OW27093   0.760   0.619   6.743 -0.0779 -0.2768 -0.2572
 8674SOL    HW127094   0.847   0.614   6.783  0.1935 -1.3901 -0.9212
 8674SOL    HW227095   0.763   0.696   6.686 -0.7538  1.8763  2.4097
 8675SOL     OW27096   0.790   4.253   5.311  0.4169  0.7272  0.0576
 8675SOL    HW127097   0.824   4.334   5.272  2.2570 -0.2708 -0.5269
 8675SOL    HW227098   0.855   4.230   5.377  0.9532 -1.2527 -1.0768
 8676SOL     OW27099   5.457   1.057   2.476  0.0380  0.3980 -0.0678
 8676SOL    HW127100   5.540   1.102   2.459 -0.2198  0.5931 -0.8486
 8676SOL    HW227101   5.390   1.117   2.442 -0.3497 -0.2570 -0.4828
 8677SOL     OW27102   1.016   1.065   6.091  0.1682 -0.2749 -0.4599
 8677SOL    HW127103   0.926   1.063   6.060  0.4581  0.5059 -1.4016
 8677SOL    HW227104   1.009   1.065   6.186 -0.9096  1.5932 -0.4984
 8678SOL     OW27105   0.809   6.727   1.885 -0.6546 -0.2684  0.0303
 8678SOL    HW127106   0.726   6.766   1.913 -0.6773 -0.9177  0.9319
 8678SOL    HW227107   0.784   6.659   1.823 -0.5614  1.6382 -2.2105
 8679SOL     OW27108   2.706   6.882   3.255 -0.5556 -0.3426  0.8037
 8679SOL    HW127109   2.613   6.901   3.246 -0.5536 -0.7429 -0.2386
 8679SOL    HW227110   2.730   6.839   3.173  1.2018  2.3982 -0.2645
 8680SOL     OW27111   0.910   2.261   7.443  0.6179 -0.1507 -0.0684
 8680SOL    HW127112   0.856   2.278   7.366  1.2987  1.6620 -0.1870
 8680SOL    HW227113   0.877   2.322   7.509  1.4925 -0.1165  0.3529
 8681SOL     OW27114   7.602   0.192   7.548 -0.5097  0.2746  0.1350
 8681SOL    HW127115   7.509   0.216   7.551 -0.0635  2.0385  0.8722
 8681SOL    HW227116   7.627   0.207   7.456 -2.2139 -5.8147 -1.7975
 8682SOL     OW27117   3.380   1.591   3.153 -0.0711 -0.0761  0.0123
 8682SOL    HW127118   3.433   1.527   3.200 -0.3863 -0.4727 -0.1603
 8682SOL    HW227119   3.354   1.546   3.072 -0.8599  0.0204  0.2023
 8683SOL     OW27120   6.883   2.320   7.511  0.3416  0.1335 -0.1483
 8683SOL    HW127121   6.891   2.226   7.498 -0.5158 -0.3754  2.3679
 8683SOL    HW227122   6.966   2.347   7.550 -0.1414  0.0022  1.0066
 8684SOL     OW27123   0.065   1.832   1.963  0.4236  1.0760  0.5244
 8684SOL    HW127124   0.098   1.887   1.892  2.1258  0.4401  0.7894
 8684SOL    HW227125   0.141   1.816   2.019 -0.3858 -0.2616  1.2904
 8685SOL     OW27126   2.463   2.095   5.071  0.1340 -0.2198  0.2107
 8685SOL    HW127127   2.536   2.045   5.108 -0.3648 -1.5227 -0.4970
 8685SOL    HW227128   2.457   2.066   4.980 -0.2999  1.0132 -0.1813
 8686SOL     OW27129   5.792   1.023   1.452 -0.1368  0.0149 -0.3632
 8686SOL    HW127130   5.847   1.001   1.528  1.6181  0.6259 -1.4033
 8686SOL    HW227131   5.765   1.114   1.468  1.3155  0.6047 -1.0280
 8687SOL     OW27132   7.790   2.754   0.122  0.2095 -0.1107 -0.2605
 8687SOL    HW127133   7.801   2.693   0.050  1.3087  0.1162 -0.3003
 8687SOL    HW227134   7.811   2.840   0.085 -4.3458  0.9138 -1.0935
 8688SOL     OW27135   6.046   3.737   6.139  0.2948  0.0500 -0.1045
 8688SOL    HW127136   6.116   3.676   6.116  2.2541  2.5355 -1.2586
 8688SOL    HW227137   6.091   3.809   6.183 -2.0556  0.2473  2.2052
 8689SOL     OW27138   6.331   4.291   5.615 -0.2607  0.1531  0.0877
 8689SOL    HW127139   6.270   4.253   5.551 -0.0658 -0.0975  0.0527
 8689SOL    HW227140   6.310   4.385   5.614  0.1479  0.2508 -0.7946
 8690SOL     OW27141   3.839   5.897   4.539  0.1015  0.1096 -0.1809
 8690SOL    HW127142   3.932   5.899   4.514  0.5424  0.0936  1.3749
 8690SOL    HW227143   3.792   5.906   4.456  1.4807 -0.4623 -1.0629
 8691SOL     OW27144   7.665   0.210   0.482  0.2122 -0.0175  0.2440
 8691SOL    HW127145   7.745   0.212   0.535  1.7052  0.2213 -1.8532
 8691SOL    HW227146   7.697   0.211   0.392 -2.1853 -0.3649 -0.6838
 8692SOL     OW27147   8.124   3.433   0.572 -0.2240  0.0996 -0.0299
 8692SOL    HW127148   8.133   3.355   0.627 -0.0847  1.2706  1.6711
 8692SOL    HW227149   8.169   3.410   0.491 -0.5694 -1.7386  0.2444
 8693SOL     OW27150   2.731   5.867   0.895  0.2201  0.3831 -0.3034
 8693SOL    HW127151   2.772   5.920   0.827 -0.3977  1.7480  0.3648
 8693SOL    HW227152   2.793   5.871   0.968  0.0598  0.3795 -0.1674
 8694SOL     OW27153   7.217   5.413   1.232  0.6134  0.0550  0.1199
 8694SOL    HW127154   7.199   5.323   1.205  0.9083 -0.2037  0.7661
 8694SOL    HW227155   7.180   5.421   1.320 -1.8021  1.3870 -0.9258
 8695SOL     OW27156   1.903   1.863   8.161  0.5584  0.0898 -0.2023
 8695SOL    HW127157   1.838   1.889   8.095  1.4574  2.2162 -0.3216
 8695SOL    HW227158   1.906   1.768   8.155 -1.6352  0.0120 -1.0524
 8696SOL     OW27159   6.656   1.149   1.828  0.4056 -0.1094  0.5214
 8696SOL    HW127160   6.714   1.192   1.765  0.0927  0.2272  0.4586
 8696SOL    HW227161   6.655   1.208   1.903 -1.1265  0.7204 -0.1045
 8697SOL     OW27162   7.463   2.653   7.006  0.2343  0.1273  0.3626
 8697SOL    HW127163   7.554   2.625   6.996  0.7350  2.2140 -2.0492
 8697SOL    HW227164   7.453   2.670   7.100  2.0439 -0.9666  0.7885
 8698SOL     OW27165   0.512   1.125   2.662  0.1367  0.7827  0.3244
 8698SOL    HW127166   0.554   1.057   2.609 -2.7469  0.3950 -1.7079
 8698SOL    HW227167   0.528   1.206   2.614  1.2152  1.1477  1.2661
 8699SOL     OW27168   5.365   2.754   0.885 -0.0243  0.8249  0.4319
 8699SOL    HW127169   5.380   2.823   0.821 -0.5381 -1.5846 -2.5345
 8699SOL    HW227170   5.300   2.789   0.945 -2.2828  2.0668 -2.5360
 8700SOL     OW27171   1.060   5.085   7.748  0.5704 -0.3197  0.1492
 8700SOL    HW127172   1.010   5.032   7.686  1.4781  0.4856 -1.3197
 8700SOL    HW227173   1.018   5.068   7.833 -1.0902 -0.9678 -0.7557
 8701SOL     OW27174   5.859   5.504   6.440 -0.0936 -0.0705 -0.4603
 8701SOL    HW127175   5.822   5.540   6.359  1.6463  2.0834 -0.4094
 8701SOL    HW227176   5.795   5.526   6.508 -0.2877  0.6377 -0.8579
 8702SOL     OW27177   8.036   0.855   0.104 -0.4465  0.2222  0.4332
 8702SOL    HW127178   8.060   0.907   0.180 -0.2088  0.0915  0.4492
 8702SOL    HW227179   8.100   0.880   0.037  0.1525 -0.6081  0.6786
 8703SOL     OW27180   6.621   2.995   3.308 -0.6197  0.1308 -0.3680
 8703SOL    HW127181   6.653   3.018   3.396 -0.2270  1.2038 -0.7708
 8703SOL    HW227182   6.538   2.950   3.323  0.6426 -2.0279  0.6808
 8704SOL     OW27183   5.542   2.964   5.042  0.1284 -0.8182  0.2373
 8704SOL    HW127184   5.552   3.029   4.972  1.6941 -0.3638  0.8278
 8704SOL    HW227185   5.485   3.006   5.106 -1.8441 -1.4788 -0.9930
 8705SOL     OW27186   4.499   3.259   2.157  0.0463 -0.1187  0.0763
 8705SOL    HW127187   4.426   3.318   2.140 -0.4730 -1.1286 -1.3416
 8705SOL    HW227188   4.540   3.295   2.236 -1.2651  1.1347  0.2378
 8706SOL     OW27189   4.714   4.537   7.472 -0.0111  0.0877  0.1032
 8706SOL    HW127190   4.729   4.484   7.550 -1.0294  0.7425  0.7640
 8706SOL    HW227191   4.698   4.473   7.403 -1.3328 -0.5031  0.9132
 8707SOL     OW27192   5.880   5.121   2.861  0.0212 -0.1911  0.1717
 8707SOL    HW127193   5.852   5.145   2.773 -0.4643 -0.2261  0.3121
 8707SOL    HW227194   5.799   5.122   2.913  0.3170 -0.0778  0.6350
 8708SOL     OW27195   7.450   7.612   1.347 -0.2856 -0.4684 -0.0324
 8708SOL    HW127196   7.446   7.671   1.272  3.1864 -1.0622 -0.8636
 8708SOL    HW227197   7.436   7.525   1.310  0.4965 -0.6777  0.1535
 8709SOL     OW27198   3.897   3.338   0.767 -0.2632 -0.7502 -0.1997
 8709SOL    HW127199   3.932   3.385   0.691 -0.3092 -0.6899 -0.1834
 8709SOL    HW227200   3.802   3.348   0.759 -0.2483 -0.3208  0.1376
 8710SOL     OW27201   7.348   0.648   1.613  0.0079  0.1546  0.7777
 8710SOL    HW127202   7.351   0.665   1.519  1.8297  0.0180  0.7726
 8710SOL    HW227203   7.260   0.674   1.640 -0.4194  0.5353 -0.8960
 8711SOL     OW27204   8.073   3.732   2.092  0.3056  0.3199  0.1725
 8711SOL    HW127205   8.147   3.674   2.103  0.0256 -0.9497 -3.3028
 8711SOL    HW227206   8.111   3.820   2.089  1.4288 -0.1560  0.1207
 8712SOL     OW27207   5.458   0.102   2.008 -0.4035 -0.1235  0.3100
 8712SOL    HW127208   5.516   0.030   2.034 -0.2699 -1.2035 -2.6412
 8712SOL    HW227209   5.518   0.169   1.974 -0.7406 -0.6543 -1.4131
 8713SOL     OW27210   4.235   8.098   6.182  0.3539  0.0541  0.5493
 8713SOL    HW127211   4.296   8.120   6.112 -0.8981  0.9580 -0.3027
 8713SOL    HW227212   4.252   8.163   6.250 -0.0478  0.6720  0.0670
 8714SOL     OW27213   3.925   4.310   4.677  0.3952 -0.1374  0.1210
 8714SOL    HW127214   3.903   4.382   4.618 -1.0928 -0.7555 -0.1329
 8714SOL    HW227215   3.883   4.233   4.638 -1.3463 -0.4229  2.3229
 8715SOL     OW27216   0.575   3.663   0.719  0.1475 -0.3804  0.0946
 8715SOL    HW127217   0.510   3.663   0.648  0.2488 -1.9957 -0.0329
 8715SOL    HW227218   0.523   3.655   0.799  0.0709  0.7257  0.1596
 8716SOL     OW27219   3.587   2.227   5.069  0.2122  0.5240 -0.3370
 8716SOL    HW127220   3.552   2.227   5.158  0.1319 -1.3128 -0.3232
 8716SOL    HW227221   3.516   2.190   5.015  1.4358 -1.6579 -0.5745
 8717SOL     OW27222   0.342   3.556   3.202 -0.4501 -0.0088  0.3685
 8717SOL    HW127223   0.368   3.647   3.216 -2.5665  0.8716 -0.9589
 8717SOL    HW227224   0.248   3.555   3.218 -0.1361 -2.5810  2.9341
 8718SOL     OW27225   2.343   0.983   4.162 -0.7506  0.4080 -0.4431
 8718SOL    HW127226   2.248   0.993   4.162 -0.9579 -1.3191 -0.4564
 8718SOL    HW227227   2.361   0.927   4.237  0.1198 -0.3764 -1.2199
 8719SOL     OW27228   6.817   5.669   0.730 -0.4199 -0.1947 -0.6675
 8719SOL    HW127229   6.847   5.661   0.821  0.2962 -0.9708 -0.9570
 8719SOL    HW227230   6.812   5.763   0.714  0.9024 -0.0385 -0.2801
 8720SOL     OW27231   3.339   2.377   1.072 -0.1285 -0.2411 -0.1831
 8720SOL    HW127232   3.371   2.347   0.987 -1.2857  0.7034 -0.9834
 8720SOL    HW227233   3.367   2.468   1.077  1.1564 -0.6627  1.1117
 8721SOL     OW27234   2.518   4.207   2.485 -0.0012 -0.8544  0.3393
 8721SOL    HW127235   2.495   4.226   2.576  2.3675 -0.3379  0.8899
 8721SOL    HW227236   2.603   4.163   2.490 -0.1795 -1.5315 -1.5971
 8722SOL     OW27237   5.616   4.119   7.766 -0.8494 -0.2244  0.1851
 8722SOL    HW127238   5.650   4.189   7.822 -1.3743  1.3957 -1.3892
 8722SOL    HW227239   5.682   4.050   7.771 -0.4365  0.2420  2.0144
 8723SOL     OW27240   4.388   5.750   4.556  0.0570 -0.4110  0.2976
 8723SOL    HW127241   4.427   5.835   4.533 -0.1253 -0.3595  0.1753
 8723SOL    HW227242   4.367   5.758   4.649 -1.1699  0.1593 -0.0151
 8724SOL     OW27243   2.754   6.967   2.030  0.0082 -0.3611  0.0831
 8724SOL    HW127244   2.670   6.922   2.021  0.5444 -1.0500 -2.1462
 8724SOL    HW227245   2.745   7.019   2.109 -2.4769 -0.4819 -0.0421
 8725SOL     OW27246   6.003   1.641   2.591 -0.2450 -0.4927 -0.4014
 8725SOL    HW127247   6.057   1.565   2.613  0.2513 -0.6981 -2.2439
 8725SOL    HW227248   5.913   1.608   2.594  0.0225 -1.5777 -2.5421
 8726SOL     OW27249   4.437   5.842   0.094 -0.0857  0.6078  0.6541
 8726SOL    HW127250   4.533   5.845   0.099 -0.0512 -0.2353  0.5282
 8726SOL    HW227251   4.416   5.749   0.098 -0.8881  0.7785  0.3715
 8727SOL     OW27252   7.252   6.356   3.934 -0.5160  0.2716  0.0103
 8727SOL    HW127253   7.296   6.410   3.869 -0.2143  1.3410  1.0829
 8727SOL    HW227254   7.273   6.397   4.018 -2.3261 -0.0628  0.6624
 8728SOL     OW27255   5.254   2.240   2.156  0.2664  0.3048 -0.2599
 8728SOL    HW127256   5.158   2.235   2.153  0.1942  1.0963  0.3637
 8728SOL    HW227257   5.272   2.317   2.210  1.2789 -0.8020  1.0201
 8729SOL     OW27258   6.272   5.120   3.681  0.1426 -0.1818  0.1697
 8729SOL    HW127259   6.350   5.126   3.626  0.2343 -0.8465  0.2128
 8729SOL    HW227260   6.250   5.211   3.703 -0.2841  0.1447 -1.4935
 8730SOL     OW27261   3.759   7.603   7.212  0.6444  0.3035 -0.0338
 8730SOL    HW127262   3.853   7.601   7.231  0.7733  0.2642 -0.6610
 8730SOL    HW227263   3.745   7.529   7.152  0.2310  0.3693 -0.0212
 8731SOL     OW27264   1.471   1.518   0.490  0.6173  0.1519 -0.1903
 8731SOL    HW127265   1.497   1.499   0.580  0.7227  2.3400  0.3081
 8731SOL    HW227266   1.376   1.506   0.489  0.4758  1.1193  0.5137
 8732SOL     OW27267   0.070   5.284   8.159 -0.0052  0.3923  0.9757
 8732SOL    HW127268   0.120   5.243   8.088  0.9339  0.3735  1.6245
 8732SOL    HW227269   0.046   5.370   8.123  0.2684  0.2991  0.5518
 8733SOL     OW27270   3.164   4.535   4.613  0.5177 -0.4231  0.0691
 8733SOL    HW127271   3.190   4.624   4.636  0.7007 -0.1320 -1.1659
 8733SOL    HW227272   3.141   4.541   4.520 -0.6129 -1.4213  0.2750
 8734SOL     OW27273   5.492   3.171   0.249 -0.0132 -0.0703 -0.2550
 8734SOL    HW127274   5.564   3.137   0.301 -1.8309 -1.2041  1.6870
 8734SOL    HW227275   5.518   3.154   0.158  0.9370 -3.1874  0.4565
 8735SOL     OW27276   6.283   3.739   6.494 -0.0974  0.7387 -0.2413
 8735SOL    HW127277   6.363   3.749   6.546 -0.8818  2.1941  0.7599
 8735SOL    HW227278   6.304   3.669   6.432  2.1409  1.4021 -0.3555
 8736SOL     OW27279   6.251   5.999   0.292  0.1328  0.1526  0.0980
 8736SOL    HW127280   6.184   6.063   0.267 -0.1783  0.2214  1.0630
 8736SOL    HW227281   6.209   5.946   0.360  0.2672 -1.2906 -0.8895
 8737SOL     OW27282   7.528   0.656   6.709  0.3089 -0.2098 -0.3886
 8737SOL    HW127283   7.513   0.597   6.635  0.3421 -0.8885  0.1321
 8737SOL    HW227284   7.622   0.674   6.705  0.2595 -0.0012 -0.6841
 8738SOL     OW27285   4.596   0.120   1.567  0.2675  0.4495  0.2383
 8738SOL    HW127286   4.597   0.202   1.517  0.0839  0.3820  0.1251
 8738SOL    HW227287   4.530   0.134   1.635 -0.2002  0.1724 -0.1544
 8739SOL     OW27288   4.023   7.883   6.453  0.5474 -0.2266  0.2803
 8739SOL    HW127289   4.040   7.884   6.547  0.7318  0.5443  0.2434
 8739SOL    HW227290   3.933   7.915   6.445  0.2136 -1.1405  0.2470
 8740SOL     OW27291   2.464   7.607   7.604  0.3120  0.1607  0.1355
 8740SOL    HW127292   2.524   7.582   7.675  1.9493  0.2186 -1.1627
 8740SOL    HW227293   2.516   7.596   7.524 -0.9428  1.6502 -0.9410
 8741SOL     OW27294   4.784   5.625   4.237 -0.2951 -0.2438 -0.8260
 8741SOL    HW127295   4.787   5.680   4.159  0.9804 -0.0181 -0.6523
 8741SOL    HW227296   4.855   5.562   4.225 -0.7299 -0.8413 -0.3004
 8742SOL     OW27297   5.383   5.236   1.083 -0.0355 -0.7202 -0.8351
 8742SOL    HW127298   5.423   5.150   1.098 -0.0946 -0.7382 -0.7789
 8742SOL    HW227299   5.413   5.262   0.996  0.6368 -0.4369 -0.5294
 8743SOL     OW27300   3.675   4.977   1.867 -0.5246  0.0255  0.3306
 8743SOL    HW127301   3.768   4.971   1.843  0.1745  0.7165  2.5907
 8743SOL    HW227302   3.640   4.890   1.848  1.3421 -1.2204  2.1686
 8744SOL     OW27303   2.268   1.243   1.663 -0.5245 -0.6639 -0.1519
 8744SOL    HW127304   2.340   1.306   1.663 -0.9192 -0.1843 -0.6317
 8744SOL    HW227305   2.190   1.298   1.648 -0.8397 -1.3013 -0.9335
 8745SOL     OW27306   0.252   4.882   0.163  0.5855  0.0187 -0.4609
 8745SOL    HW127307   0.328   4.864   0.108 -0.8845 -0.8434 -2.2962
 8745SOL    HW227308   0.222   4.796   0.192 -0.2854  0.2594 -0.6114
 8746SOL     OW27309   1.584   5.827   1.563  0.6732 -0.0337  0.6389
 8746SOL    HW127310   1.573   5.876   1.482 -0.8090 -0.9601  0.2348
 8746SOL    HW227311   1.600   5.737   1.534 -1.2952 -0.6614  1.3196
 8747SOL     OW27312   8.015   3.378   7.222  0.3815 -0.0067 -0.3636
 8747SOL    HW127313   7.966   3.333   7.153  2.4150  0.7978 -2.4353
 8747SOL    HW227314   8.055   3.308   7.273  1.4516 -0.6414 -2.0034
 8748SOL     OW27315   1.747   5.832   0.735 -0.4534 -0.5036 -0.3247
 8748SOL    HW127316   1.677   5.809   0.675 -0.6443  1.0467 -0.7440
 8748SOL    HW227317   1.705   5.889   0.800  0.0504 -1.0115  0.4761
 8749SOL     OW27318   8.078   0.706   0.834  0.1867 -0.0266  0.3672
 8749SOL    HW127319   8.166   0.673   0.852 -0.1539 -0.6800  0.8792
 8749SOL    HW227320   8.020   0.647   0.882 -0.4719  1.0516  0.9231
 8750SOL     OW27321   7.121   6.173   1.271 -0.0144  0.3440 -0.2092
 8750SOL    HW127322   7.094   6.248   1.218 -0.6046 -1.0288 -1.9637
 8750SOL    HW227323   7.211   6.155   1.242  0.3515  0.7075  0.6511
 8751SOL     OW27324   3.918   0.324   1.738 -0.3734 -0.0365 -0.0225
 8751SOL    HW127325   3.977   0.261   1.698 -0.6255  0.6429 -1.5333
 8751SOL    HW227326   3.964   0.354   1.816  0.5898 -0.6562 -0.3375
 8752SOL     OW27327   0.874   0.419   6.606 -0.0210 -0.2442  0.1379
 8752SOL    HW127328   0.894   0.467   6.526  1.1511 -0.7295  0.1174
 8752SOL    HW227329   0.810   0.474   6.652 -0.4644  0.1909 -0.9699
 8753SOL     OW27330   3.973   6.416   7.446 -0.1074 -0.1154  0.4853
 8753SOL    HW127331   3.989   6.336   7.397  0.1185  1.4943 -2.2492
 8753SOL    HW227332   3.949   6.481   7.380 -1.3060  1.8476  2.6881
 8754SOL     OW27333   0.890   5.807   5.193 -0.3677 -0.4660  0.0921
 8754SOL    HW127334   0.913   5.815   5.101  1.1905  1.1940  0.5644
 8754SOL    HW227335   0.798   5.833   5.198 -0.3697 -0.2646 -0.9508
 8755SOL     OW27336   0.210   3.677   3.780  0.1467  0.1678 -0.0992
 8755SOL    HW127337   0.125   3.689   3.820 -0.5453 -0.2847 -1.3681
 8755SOL    HW227338   0.216   3.582   3.763  0.8638  0.2039 -0.1002
 8756SOL     OW27339   2.186   2.142   5.036  0.3628 -0.5077 -0.4178
 8756SOL    HW127340   2.125   2.188   5.093 -0.3266 -1.6705 -0.1737
 8756SOL    HW227341   2.268   2.141   5.085  0.0262 -0.6820  0.1562
 8757SOL     OW27342   5.981   4.107   4.806  0.3111  0.2322  0.6242
 8757SOL    HW127343   5.960   4.172   4.740  0.6720 -0.3331 -0.0684
 8757SOL    HW227344   6.006   4.029   4.756 -0.9801 -0.7339  1.4137
 8758SOL     OW27345   4.214   7.390   2.928 -0.2206  0.4590  0.0273
 8758SOL    HW127346   4.152   7.457   2.957 -0.2592 -0.0636  1.2024
 8758SOL    HW227347   4.210   7.394   2.832 -2.8361 -0.2563  0.0340
 8759SOL     OW27348   1.724   6.354   2.758  0.0800 -0.3924  0.1263
 8759SOL    HW127349   1.631   6.371   2.776  0.2314  0.0916  0.4631
 8759SOL    HW227350   1.739   6.267   2.795  0.1942  0.2622  1.7168
 8760SOL     OW27351   3.663   1.652   3.263  0.1886 -0.0182  0.2829
 8760SOL    HW127352   3.752   1.619   3.272 -0.2325 -1.0642  0.7928
 8760SOL    HW227353   3.608   1.584   3.302 -0.8677  0.3908 -0.4316
 8761SOL     OW27354   3.471   8.048   1.612  0.3087  0.1860  0.5043
 8761SOL    HW127355   3.425   8.006   1.685 -0.1550 -1.3001 -0.5798
 8761SOL    HW227356   3.414   8.033   1.536  0.5753  2.0508 -0.1128
 8762SOL     OW27357   4.544   1.390   7.454 -0.5527 -0.1489 -0.6396
 8762SOL    HW127358   4.618   1.451   7.449 -0.8111  0.4043  1.3243
 8762SOL    HW227359   4.519   1.375   7.363  1.1819  0.6184 -1.2960
 8763SOL     OW27360   6.587   5.230   4.638 -0.7156 -0.6154 -0.0018
 8763SOL    HW127361   6.506   5.282   4.631 -0.0587  0.6415  1.2678
 8763SOL    HW227362   6.605   5.202   4.549 -0.6173  2.1428 -0.9282
 8764SOL     OW27363   2.909   7.690   1.567  0.3216 -0.2892 -0.7232
 8764SOL    HW127364   2.900   7.731   1.481  0.8153 -0.3227 -0.7940
 8764SOL    HW227365   3.003   7.674   1.576  0.4840  1.1478  0.4733
 8765SOL     OW27366   2.439   2.382   3.815  0.0250 -0.2388  0.4472
 8765SOL    HW127367   2.493   2.456   3.786 -1.3338  0.6246  0.0629
 8765SOL    HW227368   2.492   2.304   3.794  1.1169  0.5739  0.0953
 8766SOL     OW27369   5.751   3.243   2.122  0.0094 -0.1153 -0.2591
 8766SOL    HW127370   5.741   3.152   2.150  1.6278 -0.0972  0.5130
 8766SOL    HW227371   5.838   3.245   2.081 -1.6653  0.1495 -4.2751
 8767SOL     OW27372   1.774   0.441   3.394 -0.0929  0.4597 -0.8168
 8767SOL    HW127373   1.831   0.505   3.437 -1.0745 -0.0557  1.3602
 8767SOL    HW227374   1.700   0.431   3.453 -0.0732 -2.5293 -1.1482
 8768SOL     OW27375   6.076   2.142   7.324 -0.4763 -0.5111 -0.3470
 8768SOL    HW127376   6.058   2.084   7.250 -1.4175  0.7045 -1.1308
 8768SOL    HW227377   6.025   2.106   7.396 -0.6788 -0.9184 -0.6921
 8769SOL     OW27378   7.401   4.587   0.033 -0.1567  0.2845 -0.3867
 8769SOL    HW127379   7.359   4.525  -0.027 -1.9806  0.2701  0.8208
 8769SOL    HW227380   7.444   4.531   0.098  2.3072  0.2889 -1.8874
 8770SOL     OW27381   4.002   7.351   6.844  0.1997  0.3239 -0.0020
 8770SOL    HW127382   3.983   7.444   6.833  2.6517  0.9481  0.3700
 8770SOL    HW227383   3.994   7.335   6.938  2.8295  1.0037  0.4083
 8771SOL     OW27384   7.548   6.584   4.934  1.0392 -0.0171  0.3578
 8771SOL    HW127385   7.514   6.540   5.013 -5.0832  0.4017 -1.5133
 8771SOL    HW227386   7.556   6.676   4.960  1.3981 -0.2423  1.0689
 8772SOL     OW27387   4.340   7.251   3.618 -0.5894 -0.4611  0.6833
 8772SOL    HW127388   4.404   7.287   3.679 -0.7209 -1.8045  1.6508
 8772SOL    HW227389   4.303   7.328   3.574  0.8105  0.4123  0.9625
 8773SOL     OW27390   6.982   5.690   6.483 -0.0564  0.3405  0.2869
 8773SOL    HW127391   6.956   5.712   6.572 -0.0391  1.3713  0.0510
 8773SOL    HW227392   7.000   5.774   6.442 -2.5721  0.1226 -1.4768
 8774SOL     OW27393   3.902   7.229   6.101  0.3211  0.3758  0.2987
 8774SOL    HW127394   3.960   7.268   6.167 -0.1089  0.8002  0.4360
 8774SOL    HW227395   3.908   7.288   6.026 -0.9092  1.1493  0.7764
 8775SOL     OW27396   1.035   6.435   7.399 -0.6494  0.4201 -0.4924
 8775SOL    HW127397   0.975   6.462   7.468 -1.1764  1.3978 -1.3148
 8775SOL    HW227398   1.081   6.515   7.374  0.2129 -0.1059 -0.6297
 8776SOL     OW27399   7.728   3.763   5.084  0.5773 -0.4224 -0.3165
 8776SOL    HW127400   7.686   3.836   5.130 -0.4162 -1.0659 -0.1783
 8776SOL    HW227401   7.713   3.687   5.140  0.2003 -1.0330 -1.2284
 8777SOL     OW27402   8.035   2.992   3.704 -0.2099 -0.3317  0.1183
 8777SOL    HW127403   7.973   2.954   3.642 -0.3994  0.2875 -0.0801
 8777SOL    HW227404   8.011   2.954   3.789 -0.3713 -0.6767 -0.0831
 8778SOL     OW27405   5.874   0.041   0.371 -0.0522 -0.0712  0.5849
 8778SOL    HW127406   5.879   0.137   0.366  0.8168 -0.1200  0.3794
 8778SOL    HW227407   5.964   0.013   0.383  0.0714 -1.0084 -1.8593
 8779SOL     OW27408   4.952   6.235   1.635  0.2524  0.0720  0.0829
 8779SOL    HW127409   4.912   6.149   1.622  0.4864 -0.0276  0.0069
 8779SOL    HW227410   4.904   6.274   1.708  2.5173 -1.6453  2.6937
 8780SOL     OW27411   4.052   0.550   4.002  0.3321 -0.0876 -0.5012
 8780SOL    HW127412   4.063   0.547   4.097  0.1770 -0.6262 -0.4932
 8780SOL    HW227413   3.958   0.555   3.989  0.3848  0.6250 -0.6206
 8781SOL     OW27414   1.132   7.156   2.867  0.1990  0.3683  0.0009
 8781SOL    HW127415   1.079   7.235   2.876  1.2467  1.2027 -0.7801
 8781SOL    HW227416   1.222   7.189   2.857  0.6030 -0.9011 -0.8398
 8782SOL     OW27417   2.647   3.299   4.924  0.3798  0.4408 -0.3838
 8782SOL    HW127418   2.607   3.314   4.838 -0.5816  0.3718  0.0428
 8782SOL    HW227419   2.681   3.210   4.919 -1.2863 -0.2333 -0.0850
 8783SOL     OW27420   3.197   6.543   2.780  0.1929  0.4916 -0.1945
 8783SOL    HW127421   3.203   6.568   2.872  0.1486  0.9463 -0.3120
 8783SOL    HW227422   3.104   6.530   2.764  0.0535  1.8098 -0.5311
 8784SOL     OW27423   7.202   0.939   7.773  0.1524 -0.5645  0.5754
 8784SOL    HW127424   7.110   0.938   7.799 -0.1026 -0.7902 -0.3018
 8784SOL    HW227425   7.211   0.865   7.713  0.0192  1.4379 -2.1469
 8785SOL     OW27426   3.119   0.916   3.899 -0.4654  1.1288  0.2531
 8785SOL    HW127427   3.114   0.835   3.949 -1.8088  1.4066  0.6364
 8785SOL    HW227428   3.169   0.894   3.821 -0.9498 -0.1251  0.2718
 8786SOL     OW27429   0.874   1.423   3.007 -0.4466 -0.4134  0.5182
 8786SOL    HW127430   0.891   1.500   3.062  0.2463  0.6377 -1.0823
 8786SOL    HW227431   0.830   1.458   2.929 -0.3508 -1.6752 -0.1351
 8787SOL     OW27432   5.435   3.313   6.477  0.8201  0.4192  0.2880
 8787SOL    HW127433   5.495   3.352   6.413  2.0465 -2.6080 -0.5566
 8787SOL    HW227434   5.427   3.222   6.450  0.1383 -0.6271  3.5794
 8788SOL     OW27435   4.280   1.545   7.322 -0.0927 -0.1629 -0.7346
 8788SOL    HW127436   4.368   1.562   7.289  0.4996  2.1832  1.7561
 8788SOL    HW227437   4.278   1.450   7.337  2.1865 -0.1952 -0.3700
 8789SOL     OW27438   5.811   7.498   3.981 -1.0799  0.0598 -0.2914
 8789SOL    HW127439   5.886   7.555   3.996  0.5395 -2.4638  2.2638
 8789SOL    HW227440   5.735   7.557   3.982  0.5474  2.2684  1.0942
 8790SOL     OW27441   7.973   7.582   3.694  0.2071  0.4976  0.6221
 8790SOL    HW127442   7.959   7.546   3.606  2.7324  0.1428  0.2824
 8790SOL    HW227443   7.931   7.668   3.692  0.2565  0.5162 -0.9391
 8791SOL     OW27444   3.539   2.725   2.167  0.2047 -0.3721 -0.2407
 8791SOL    HW127445   3.452   2.712   2.131  0.6905  2.1239 -2.6200
 8791SOL    HW227446   3.524   2.771   2.250 -0.7502 -0.7711 -0.1836
 8792SOL     OW27447   2.540   5.211   4.976  0.8407 -0.4797  0.0045
 8792SOL    HW127448   2.622   5.197   5.024 -0.4177 -1.1799  2.0698
 8792SOL    HW227449   2.498   5.284   5.021  0.2188 -0.2466 -0.9201
 8793SOL     OW27450   6.283   3.800   3.765 -0.4349 -0.1298 -0.0142
 8793SOL    HW127451   6.232   3.724   3.791 -1.1714  0.9279  1.7798
 8793SOL    HW227452   6.371   3.783   3.799 -1.0223  0.5543  1.9825
 8794SOL     OW27453   4.297   6.101   4.430 -0.0009  0.1665  0.1671
 8794SOL    HW127454   4.223   6.059   4.387 -0.0789  1.0007 -0.5539
 8794SOL    HW227455   4.257   6.157   4.498 -0.2239  2.0347 -1.4104
 8795SOL     OW27456   0.922   5.366   5.331  0.3954 -0.0920  0.4675
 8795SOL    HW127457   0.959   5.454   5.318 -2.0495  0.7863 -1.4624
 8795SOL    HW227458   0.904   5.335   5.242 -1.0145 -1.5255  1.2193
 8796SOL     OW27459   7.014   6.954   6.451 -0.2512 -0.3075  0.0870
 8796SOL    HW127460   7.108   6.966   6.466 -0.2312 -0.1397 -0.1690
 8796SOL    HW227461   7.008   6.915   6.364 -0.2931 -2.6838  1.0798
 8797SOL     OW27462   4.619   1.820   6.980 -0.1479  0.1799 -0.5844
 8797SOL    HW127463   4.617   1.914   6.961  0.6326  0.2237 -0.5111
 8797SOL    HW227464   4.695   1.787   6.931 -0.0257 -0.2902 -0.0963
 8798SOL     OW27465   5.604   6.783   0.253 -0.2588  0.0216  0.0887
 8798SOL    HW127466   5.662   6.792   0.177 -0.7054  1.9353 -0.0795
 8798SOL    HW227467   5.629   6.699   0.292  0.4795 -0.6678 -1.7402
 8799SOL     OW27468   6.117   4.100   6.652 -0.3578  0.6924  0.0666
 8799SOL    HW127469   6.181   4.167   6.625 -0.4808  0.3038 -1.2086
 8799SOL    HW227470   6.144   4.078   6.742  1.2204  0.6422 -0.3800
 8800SOL     OW27471   7.020   6.852   0.862 -0.1923 -0.0746  0.6274
 8800SOL    HW127472   7.082   6.871   0.932  2.2120  1.0672 -1.6289
 8800SOL    HW227473   7.067   6.793   0.803 -1.6079  0.0611 -0.7288
 8801SOL     OW27474   7.565   4.961   3.963  0.0480 -0.5773  0.1166
 8801SOL    HW127475   7.594   5.050   3.944 -2.2586  0.4952  1.3038
 8801SOL    HW227476   7.593   4.910   3.887  2.9730  0.7278  0.1681
 8802SOL     OW27477   0.854   1.548   6.752 -0.5692  0.6062  0.3495
 8802SOL    HW127478   0.876   1.464   6.710  1.1288  0.2908  1.7340
 8802SOL    HW227479   0.791   1.524   6.820  1.8244 -0.0870  2.4856
 8803SOL     OW27480   4.794   6.726   7.644  0.2980 -0.2870 -0.6397
 8803SOL    HW127481   4.785   6.798   7.581  0.2774 -1.2983 -1.8326
 8803SOL    HW227482   4.723   6.666   7.622  0.7164 -0.9905 -0.0996
 8804SOL     OW27483   0.430   0.675   1.742  0.0633  0.1602 -0.0947
 8804SOL    HW127484   0.411   0.605   1.680 -0.8753 -0.7058  1.1163
 8804SOL    HW227485   0.480   0.739   1.692  1.0824 -1.4349 -1.1940
 8805SOL     OW27486   6.594   8.090   0.533 -0.7373  0.4403  0.2908
 8805SOL    HW127487   6.553   8.108   0.617  1.7471 -0.9239  1.9119
 8805SOL    HW227488   6.687   8.108   0.547 -0.4204  1.6744 -2.6684
 8806SOL     OW27489   3.417   5.294   1.787  0.3781 -0.3549 -0.5001
 8806SOL    HW127490   3.446   5.315   1.698  0.3051  0.6961 -0.2908
 8806SOL    HW227491   3.371   5.373   1.816 -0.4258 -1.0430  0.1233
 8807SOL     OW27492   3.426   4.440   8.033  0.1618 -0.3368 -0.1446
 8807SOL    HW127493   3.446   4.389   8.111 -2.1465 -1.8415 -0.4460
 8807SOL    HW227494   3.489   4.410   7.968 -0.2249 -1.7494  0.1104
 8808SOL     OW27495   7.499   1.952   5.046 -0.2203 -0.3427 -0.2486
 8808SOL    HW127496   7.517   1.875   5.101  0.6952  0.2074  0.2471
 8808SOL    HW227497   7.584   1.972   5.005 -0.7924 -0.4766 -1.5377
 8809SOL     OW27498   5.592   2.356   6.555 -0.0644 -0.4669  0.1328
 8809SOL    HW127499   5.687   2.349   6.546 -0.0518 -2.7785  1.3040
 8809SOL    HW227500   5.560   2.266   6.545 -1.9918  0.0377  1.2151
 8810SOL     OW27501   7.339   5.159   4.048 -0.3893  0.0666  1.0750
 8810SOL    HW127502   7.255   5.139   4.090 -0.4312 -1.9496  0.1516
 8810SOL    HW227503   7.404   5.118   4.105 -0.0494  1.0579  1.4305
 8811SOL     OW27504   7.959   2.362   1.049 -0.2964  0.2805  0.0126
 8811SOL    HW127505   8.003   2.440   1.014 -0.6411  0.3344 -0.3164
 8811SOL    HW227506   8.007   2.288   1.012 -0.9291  0.3341 -0.9482
 8812SOL     OW27507   4.269   2.205   5.439  0.5319  0.3403 -0.3397
 8812SOL    HW127508   4.224   2.122   5.425  0.7885  0.2648 -0.7426
 8812SOL    HW227509   4.337   2.206   5.372 -0.6298  1.7036 -1.5650
 8813SOL     OW27510   7.415   3.189   1.297  0.2721  0.1285  0.1909
 8813SOL    HW127511   7.421   3.221   1.207  0.3684 -0.8032 -0.1358
 8813SOL    HW227512   7.504   3.197   1.331 -0.2314  3.0143  1.1106
 8814SOL     OW27513   4.614   0.838   5.726 -0.9633  0.3027  0.1350
 8814SOL    HW127514   4.707   0.859   5.732  0.0488 -2.6272 -2.3425
 8814SOL    HW227515   4.583   0.891   5.652 -0.9714  0.4422  0.2382
 8815SOL     OW27516   6.349   4.132   0.445  0.0059  0.1735  0.0592
 8815SOL    HW127517   6.291   4.143   0.520 -2.3491 -2.2637 -1.2098
 8815SOL    HW227518   6.313   4.190   0.378  0.5200  0.4548  0.0289
 8816SOL     OW27519   1.644   6.372   7.090  0.5785  0.4804  0.4365
 8816SOL    HW127520   1.585   6.298   7.101 -0.8334  1.5286  0.1182
 8816SOL    HW227521   1.660   6.404   7.179 -1.7398  1.9764  0.4019
 8817SOL     OW27522   2.223   3.456   4.905  0.6551 -0.2347  0.5176
 8817SOL    HW127523   2.141   3.417   4.875  0.8278  0.6468 -1.1646
 8817SOL    HW227524   2.291   3.398   4.871  0.8062  0.0474  0.3398
 8818SOL     OW27525   6.387   7.939   2.491 -0.0088  0.0463 -0.0628
 8818SOL    HW127526   6.350   7.895   2.567  2.2338  0.1920  1.2185
 8818SOL    HW227527   6.312   7.971   2.442 -1.5698 -1.4318  1.2480
 8819SOL     OW27528   7.908   7.968   6.500 -0.2378  0.3471  0.0720
 8819SOL    HW127529   7.945   7.910   6.433  1.5200  0.5992  0.7811
 8819SOL    HW227530   7.966   8.045   6.501 -0.8389  0.8165  1.1472
 8820SOL     OW27531   2.895   5.194   1.326  0.0260 -0.1214 -0.5349
 8820SOL    HW127532   2.813   5.171   1.370  1.3059 -0.6379  1.7552
 8820SOL    HW227533   2.947   5.114   1.330  0.3634 -0.0701 -2.7638
 8821SOL     OW27534   0.620   4.823   5.841  0.4137  0.3495 -0.2334
 8821SOL    HW127535   0.695   4.808   5.785 -0.0476 -0.2623 -0.6980
 8821SOL    HW227536   0.568   4.888   5.794  0.1787  0.0620 -0.3748
 8822SOL     OW27537   2.292   7.704   7.810 -0.9386  0.8712  0.5039
 8822SOL    HW127538   2.379   7.698   7.771 -1.2080 -0.3592  0.0726
 8822SOL    HW227539   2.245   7.627   7.778 -2.8095  2.4491 -0.7769
 8823SOL     OW27540   4.089   6.238   0.462  0.7687  0.4102  0.0555
 8823SOL    HW127541   4.125   6.202   0.381  1.1399  1.3381 -0.2125
 8823SOL    HW227542   4.163   6.285   0.502  0.2275  1.1514  0.2057
 8824SOL     OW27543   1.358   7.005   1.639 -0.2181  0.1077 -0.0017
 8824SOL    HW127544   1.299   6.995   1.565  0.9517 -1.4683 -0.7817
 8824SOL    HW227545   1.434   7.050   1.603 -0.0129  0.1322  0.4524
 8825SOL     OW27546   7.233   1.472   5.176  0.0737 -0.0896 -0.0782
 8825SOL    HW127547   7.314   1.420   5.175  0.4382  0.4292  0.9632
 8825SOL    HW227548   7.163   1.408   5.177  0.5142 -0.5709  0.8897
 8826SOL     OW27549   1.395   3.040   1.820 -0.3823  0.2175  0.2856
 8826SOL    HW127550   1.469   3.100   1.818  0.5630 -0.9189 -0.4700
 8826SOL    HW227551   1.408   2.990   1.901 -0.3699  0.0818  0.2000
 8827SOL     OW27552   6.665   1.562   3.542  0.4860 -0.4954 -0.4861
 8827SOL    HW127553   6.694   1.560   3.633 -0.0619 -2.1673 -0.3153
 8827SOL    HW227554   6.735   1.608   3.495  0.8995  0.1429  0.7162
 8828SOL     OW27555   5.815   3.951   7.693 -0.1298 -0.1393 -0.1236
 8828SOL    HW127556   5.779   3.906   7.617 -1.0867 -1.4548  1.0823
 8828SOL    HW227557   5.898   3.905   7.711 -0.5648 -0.7222  0.4315
 8829SOL     OW27558   3.061   4.038   4.447  0.1887  0.1745 -0.3774
 8829SOL    HW127559   2.993   4.102   4.424 -0.5500 -0.2790  0.4517
 8829SOL    HW227560   3.031   4.002   4.530  1.3321 -0.2289 -0.1360
 8830SOL     OW27561   1.017   3.285   2.998 -0.2300 -0.3810  0.4230
 8830SOL    HW127562   1.085   3.331   2.949 -0.7032  0.7266  0.7711
 8830SOL    HW227563   0.979   3.351   3.055 -1.3412 -1.0675  0.5198
 8831SOL     OW27564   2.837   7.504   8.075  0.1220 -0.2096 -0.0794
 8831SOL    HW127565   2.807   7.429   8.025 -0.4005  0.6209 -1.0351
 8831SOL    HW227566   2.758   7.554   8.094  0.6200  0.8572 -0.7222
 8832SOL     OW27567   6.186   3.868   7.315  0.6744 -0.9194 -0.5179
 8832SOL    HW127568   6.113   3.807   7.305 -0.2239  0.0192  0.1553
 8832SOL    HW227569   6.255   3.816   7.358 -0.2077 -1.3799  0.3865
 8833SOL     OW27570   0.626   3.756   6.136 -0.2058  0.2242 -0.0043
 8833SOL    HW127571   0.666   3.720   6.057  0.5121 -0.3194  0.5928
 8833SOL    HW227572   0.557   3.814   6.103  0.4182  0.4176 -1.0369
 8834SOL     OW27573   1.475   6.905   1.850  0.4529 -0.0361 -1.1071
 8834SOL    HW127574   1.419   6.944   1.783 -0.4891 -1.4043 -1.1647
 8834SOL    HW227575   1.557   6.885   1.805 -0.2238 -1.0824 -1.9212
 8835SOL     OW27576   3.185   7.785   3.879  0.0939  0.1105  0.4549
 8835SOL    HW127577   3.098   7.825   3.886  0.0478  0.1054 -0.0587
 8835SOL    HW227578   3.215   7.809   3.792 -1.5481 -4.1085 -1.5935
 8836SOL     OW27579   7.086   5.658   4.938  0.2098 -0.2762 -0.5269
 8836SOL    HW127580   7.056   5.570   4.960  0.0199 -0.1483 -0.2596
 8836SOL    HW227581   7.181   5.653   4.938  0.2440 -0.1066  1.1008
 8837SOL     OW27582   3.612   5.485   0.762  0.0712 -0.5461 -0.5073
 8837SOL    HW127583   3.672   5.413   0.779 -1.2556 -1.3445  1.2005
 8837SOL    HW227584   3.664   5.551   0.716  1.4984 -2.2870 -1.4978
 8838SOL     OW27585   5.995   7.938   3.974 -0.5174  0.1759  0.1421
 8838SOL    HW127586   6.054   7.981   4.036 -1.1744 -0.1056  0.9857
 8838SOL    HW227587   5.979   8.003   3.906  0.9331  0.1747 -0.2176
 8839SOL     OW27588   7.930   3.985   4.810  0.0401  0.2199 -0.4315
 8839SOL    HW127589   7.988   3.998   4.734 -0.2010 -1.1030 -0.8664
 8839SOL    HW227590   7.892   3.899   4.796  0.7218 -0.4849  1.7053
 8840SOL     OW27591   6.574   4.888   3.684  0.9234  0.0535  0.4091
 8840SOL    HW127592   6.589   4.982   3.690 -0.9210  0.4041  0.2432
 8840SOL    HW227593   6.661   4.849   3.689  1.9718  1.8720 -1.6365
 8841SOL     OW27594   3.758   1.518   7.229  0.2647 -0.2163 -0.2158
 8841SOL    HW127595   3.704   1.481   7.158 -0.1724  0.1720 -0.0924
 8841SOL    HW227596   3.721   1.605   7.243 -0.2389 -0.6240  1.1095
 8842SOL     OW27597   1.100   4.938   1.147  0.6690  0.4577 -0.0382
 8842SOL    HW127598   1.173   4.925   1.086  0.0105 -0.5004 -0.6391
 8842SOL    HW227599   1.030   4.975   1.094  1.6173  4.3901  1.1211
 8843SOL     OW27600   3.702   6.065   3.149 -0.1084  0.0161 -0.0696
 8843SOL    HW127601   3.683   6.135   3.211  1.6195 -0.1311  0.6769
 8843SOL    HW227602   3.689   6.104   3.063 -3.8114 -0.1122  0.2361
 8844SOL     OW27603   6.518   3.795   4.553 -0.1454  0.6595  0.1047
 8844SOL    HW127604   6.524   3.828   4.464  2.8602  1.0535  0.3371
 8844SOL    HW227605   6.581   3.848   4.603  2.4518 -3.0214  1.2234
 8845SOL     OW27606   3.898   7.311   7.863  0.1342  0.8688  0.5022
 8845SOL    HW127607   3.814   7.355   7.872 -0.9763 -1.0148 -0.0594
 8845SOL    HW227608   3.877   7.229   7.818  2.1285 -0.1276  1.2865
 8846SOL     OW27609   3.211   6.878   0.950 -0.5195 -0.0646 -0.2623
 8846SOL    HW127610   3.146   6.902   1.016 -1.1592  0.1034 -0.9499
 8846SOL    HW227611   3.172   6.805   0.902 -0.5672  0.5854 -1.2282
 8847SOL     OW27612   7.374   2.887   4.056  0.3626  0.2425  0.0454
 8847SOL    HW127613   7.415   2.964   4.015 -1.8698  1.3797 -0.1916
 8847SOL    HW227614   7.418   2.813   4.015  1.3397  1.3781 -1.0687
 8848SOL     OW27615   2.860   3.925   3.671  0.4836  0.7321 -0.0788
 8848SOL    HW127616   2.861   3.920   3.575  1.4191  1.9976 -0.1676
 8848SOL    HW227617   2.863   4.019   3.689 -1.3305  0.5991  1.2065
 8849SOL     OW27618   3.026   4.784   3.893  0.0042 -0.1912 -0.1345
 8849SOL    HW127619   2.996   4.748   3.977  0.2034 -0.2490 -0.0858
 8849SOL    HW227620   3.122   4.787   3.902  0.1367 -1.4476 -0.8585
 8850SOL     OW27621   1.943   3.434   0.996 -0.4201  0.2509 -0.6965
 8850SOL    HW127622   1.854   3.466   0.980  0.0500  2.6719  1.0925
 8850SOL    HW227623   1.933   3.368   1.065 -0.8280  0.6485 -0.3687
 8851SOL     OW27624   0.446   4.715   4.537 -0.0634 -0.0218  0.2200
 8851SOL    HW127625   0.464   4.623   4.517  0.7729  0.2746 -0.4813
 8851SOL    HW227626   0.531   4.751   4.562 -0.3045  0.6426  0.1221
 8852SOL     OW27627   3.170   3.312   5.109  0.3739 -0.3153  0.1457
 8852SOL    HW127628   3.101   3.304   5.175  1.4063  0.9976  1.4639
 8852SOL    HW227629   3.219   3.390   5.135  1.3145 -0.2258 -1.7437
 8853SOL     OW27630   6.201   6.387   8.013  0.2747  0.2892  0.1405
 8853SOL    HW127631   6.115   6.425   8.030 -0.3989 -0.6328 -1.0647
 8853SOL    HW227632   6.254   6.412   8.089 -0.0234  3.7731 -0.6341
 8854SOL     OW27633   5.282   2.081   5.458  0.1552 -0.4158  0.0755
 8854SOL    HW127634   5.338   2.127   5.395  0.2302 -0.1433  0.3362
 8854SOL    HW227635   5.232   2.019   5.405 -1.3835  1.2986 -0.6077
 8855SOL     OW27636   5.639   6.098   4.287 -0.2040  0.3411 -0.3127
 8855SOL    HW127637   5.564   6.119   4.342  0.8236 -0.0719  1.3107
 8855SOL    HW227638   5.621   6.010   4.254 -0.4032  0.2116  0.1321
 8856SOL     OW27639   2.598   3.465   0.390 -0.3511  0.2884  0.2120
 8856SOL    HW127640   2.615   3.558   0.404  0.1386  0.3587 -0.7566
 8856SOL    HW227641   2.609   3.452   0.295 -1.7359 -0.4955  0.1247
 8857SOL     OW27642   7.161   6.399   7.492 -0.0090  0.3021 -0.1064
 8857SOL    HW127643   7.103   6.330   7.524 -0.0215  0.1268 -0.5074
 8857SOL    HW227644   7.248   6.359   7.492 -0.2261 -0.2117 -1.7861
 8858SOL     OW27645   1.152   6.095   1.287  0.3411 -0.0315  0.2769
 8858SOL    HW127646   1.059   6.114   1.274  0.2104 -1.3068 -0.7704
 8858SOL    HW227647   1.186   6.173   1.332 -0.7595  1.4092 -1.2681
 8859SOL     OW27648   4.397   7.245   2.166  0.2693 -0.5724  0.2218
 8859SOL    HW127649   4.326   7.206   2.115  0.6223  0.2952 -0.9610
 8859SOL    HW227650   4.362   7.251   2.255 -1.1010 -0.2609 -0.3165
 8860SOL     OW27651   6.787   4.544   4.725 -0.0681  0.0721  0.5926
 8860SOL    HW127652   6.822   4.456   4.742 -0.4857 -0.3340 -0.5356
 8860SOL    HW227653   6.862   4.594   4.693  0.0921  0.0282  0.8961
 8861SOL     OW27654   1.040   2.395   7.005 -0.4258 -0.6422  0.9070
 8861SOL    HW127655   1.108   2.462   7.011 -0.0827 -0.9918  0.9342
 8861SOL    HW227656   1.059   2.349   6.923 -1.5132  0.2180  0.1454
 8862SOL     OW27657   2.224   0.887   6.441 -0.3777  0.3839 -0.6924
 8862SOL    HW127658   2.288   0.955   6.420 -1.5626  1.0251 -2.4355
 8862SOL    HW227659   2.258   0.808   6.399  1.2361 -0.3447  1.7090
 8863SOL     OW27660   0.484   0.506   3.087 -0.6359  0.0413 -0.0076
 8863SOL    HW127661   0.439   0.521   3.004 -0.4168  0.2533 -0.0891
 8863SOL    HW227662   0.492   0.593   3.127  0.9015  0.2175 -0.6155
 8864SOL     OW27663   5.056   0.837   4.915 -0.0622 -0.4209 -0.0114
 8864SOL    HW127664   5.088   0.816   4.827 -2.2459 -2.1662 -0.4736
 8864SOL    HW227665   5.030   0.929   4.910  1.8886  0.1569 -0.4772
 8865SOL     OW27666   6.218   6.321   3.570 -0.5925  0.3739 -0.2102
 8865SOL    HW127667   6.271   6.254   3.614 -0.1968  1.1498  0.5339
 8865SOL    HW227668   6.281   6.372   3.520 -0.7183  0.9028  0.1635
 8866SOL     OW27669   4.378   3.495   1.676  0.1322  0.6510 -0.1461
 8866SOL    HW127670   4.417   3.410   1.696  1.7179  1.5338  0.6625
 8866SOL    HW227671   4.385   3.545   1.758  1.3014  2.3183 -1.2052
 8867SOL     OW27672   3.416   5.041   5.983  0.0697  0.2204  0.1788
 8867SOL    HW127673   3.456   5.082   6.060 -0.0837 -0.7138  0.7713
 8867SOL    HW227674   3.477   4.972   5.958 -1.6010 -2.0459  1.8302
 8868SOL     OW27675   5.036   6.206   6.185 -0.5798 -0.4865  0.4984
 8868SOL    HW127676   5.018   6.222   6.278  0.2930 -0.0130  0.6048
 8868SOL    HW227677   5.130   6.224   6.176 -0.7041 -0.2886 -0.5236
 8869SOL     OW27678   7.838   3.858   1.983 -0.2165  0.3278 -0.0427
 8869SOL    HW127679   7.917   3.813   2.014 -1.4500 -0.5735  2.0421
 8869SOL    HW227680   7.856   3.951   1.998  0.8240  0.2276 -0.5925
 8870SOL     OW27681   0.754   0.034   5.150 -0.2207  0.0605 -0.6691
 8870SOL    HW127682   0.819  -0.034   5.170 -1.0373 -0.6500 -0.3697
 8870SOL    HW227683   0.691  -0.010   5.093 -0.2360  0.8625 -1.2871
 8871SOL     OW27684   4.267   6.396   3.784 -0.6063  0.3034  0.2154
 8871SOL    HW127685   4.222   6.322   3.825 -0.2832 -0.6113 -0.9912
 8871SOL    HW227686   4.315   6.356   3.711  0.9033  1.4656  0.5220
 8872SOL     OW27687   0.098   0.400   1.434 -0.8260 -0.2956 -0.0903
 8872SOL    HW127688   0.143   0.471   1.388 -1.3726  0.5058  0.5782
 8872SOL    HW227689   0.103   0.326   1.374 -0.1359  0.2705 -0.7566
 8873SOL     OW27690   2.001   5.749   1.626 -0.1994  0.5715  0.3752
 8873SOL    HW127691   2.033   5.681   1.567  0.2214  1.7384 -0.7982
 8873SOL    HW227692   1.988   5.704   1.710 -0.2446 -1.0045 -0.4374
 8874SOL     OW27693   0.564   1.700   3.264 -0.1246  0.4234  0.2939
 8874SOL    HW127694   0.590   1.608   3.259 -0.7865  0.2018  0.7341
 8874SOL    HW227695   0.527   1.709   3.352 -2.5268  0.4299 -0.6231
 8875SOL     OW27696   3.749   1.117   4.416  0.4201  0.0414  0.1638
 8875SOL    HW127697   3.804   1.039   4.416  0.5613  0.0453  2.7365
 8875SOL    HW227698   3.797   1.179   4.471 -0.5611  1.2940 -0.3390
 8876SOL     OW27699   6.026   4.545   5.991 -0.2414  0.0453 -0.0848
 8876SOL    HW127700   6.010   4.640   5.985 -0.5727  0.1727  2.0792
 8876SOL    HW227701   6.118   4.536   5.966 -0.3997  0.8207 -1.0379
 8877SOL     OW27702   5.843   1.571   7.250 -0.2126  0.2172  0.4330
 8877SOL    HW127703   5.909   1.611   7.192 -1.9836  0.8531 -1.2338
 8877SOL    HW227704   5.848   1.623   7.330 -0.2120  1.7147 -0.4948
 8878SOL     OW27705   5.358   2.136   1.230  0.2476  0.0827  0.1249
 8878SOL    HW127706   5.328   2.054   1.269 -0.5506 -0.0858 -0.7944
 8878SOL    HW227707   5.279   2.189   1.222  0.3624  0.0669 -1.3361
 8879SOL     OW27708   6.359   2.968   4.677 -0.7529  0.2031  0.2059
 8879SOL    HW127709   6.351   2.895   4.616 -0.5538  0.5744 -0.2791
 8879SOL    HW227710   6.292   2.952   4.744  0.0285 -1.0119  0.7375
 8880SOL     OW27711   7.287   3.162   3.099 -0.3868 -0.4794 -0.4663
 8880SOL    HW127712   7.325   3.111   3.028  0.1865  0.2818 -0.7287
 8880SOL    HW227713   7.193   3.141   3.097 -0.1714 -1.4786 -0.5785
 8881SOL     OW27714   3.645   7.118   7.938  0.3018 -0.0074  0.0075
 8881SOL    HW127715   3.602   7.157   7.861  0.6409 -0.5841 -0.4834
 8881SOL    HW227716   3.651   7.025   7.917  0.9856 -0.0680  0.4593
 8882SOL     OW27717   5.234   1.193   6.205 -0.1557  0.2711 -0.1564
 8882SOL    HW127718   5.298   1.247   6.159  0.5631 -0.0541  0.4367
 8882SOL    HW227719   5.241   1.220   6.297  0.5071 -1.0851  0.2202
 8883SOL     OW27720   2.060   2.316   6.162 -0.4410 -0.6770  0.2357
 8883SOL    HW127721   2.047   2.387   6.225 -0.3063  0.7389 -1.2803
 8883SOL    HW227722   2.025   2.349   6.080 -0.5622 -2.4613 -0.4778
 8884SOL     OW27723   3.487   3.876   4.479 -0.1783  0.2152  0.3840
 8884SOL    HW127724   3.582   3.873   4.470 -0.2127  1.5126 -0.8361
 8884SOL    HW227725   3.469   3.965   4.511 -0.9255 -0.3878  1.7195
 8885SOL     OW27726   4.240   1.083   7.917 -0.3797 -0.0361 -1.2035
 8885SOL    HW127727   4.284   1.044   7.841  3.2841  0.9592  0.1684
 8885SOL    HW227728   4.252   1.177   7.905  1.0319  0.1201  0.9097
 8886SOL     OW27729   2.738   6.345   1.830  0.2293  0.0723 -0.1722
 8886SOL    HW127730   2.660   6.400   1.831  0.1097 -0.0982  0.5445
 8886SOL    HW227731   2.806   6.400   1.790 -0.2181  0.2646 -0.6758
 8887SOL     OW27732   5.905   1.595   5.536  0.5111 -0.3765 -0.1518
 8887SOL    HW127733   5.961   1.643   5.475 -0.2525 -0.5328 -0.9892
 8887SOL    HW227734   5.915   1.641   5.619  0.9949  0.2850 -0.5687
 8888SOL     OW27735   5.827   5.798   1.772 -0.3462 -0.1590  0.2828
 8888SOL    HW127736   5.904   5.845   1.740 -0.7814  1.2805  1.2440
 8888SOL    HW227737   5.796   5.749   1.696  1.8204 -1.2261  0.0222
 8889SOL     OW27738   2.949   5.656   2.236 -0.0473  0.1916 -0.7979
 8889SOL    HW127739   2.914   5.688   2.319  1.4339  0.3697 -0.2087
 8889SOL    HW227740   2.907   5.711   2.169  0.7180  1.8633  0.0316
 8890SOL     OW27741   5.084   0.685   3.794 -0.6149  0.2124  0.0857
 8890SOL    HW127742   5.097   0.701   3.888  0.0202 -0.2724  0.0883
 8890SOL    HW227743   5.118   0.763   3.751  1.0348 -0.4336  0.1684
 8891SOL     OW27744   4.823   7.779   4.386 -1.1241  0.2334  0.1854
 8891SOL    HW127745   4.786   7.803   4.470 -0.9923  0.4162  0.1920
 8891SOL    HW227746   4.784   7.694   4.365 -1.2102  0.2222  0.3962
 8892SOL     OW27747   2.643   1.437   3.527  0.3033 -0.3762 -0.2676
 8892SOL    HW127748   2.614   1.477   3.445  1.3423 -1.7080 -1.3310
 8892SOL    HW227749   2.724   1.482   3.549 -0.0657  0.0992  0.1305
 8893SOL     OW27750   4.337   6.616   3.370 -0.1534 -0.5274  0.2732
 8893SOL    HW127751   4.286   6.542   3.402  1.8081 -2.1684 -0.1670
 8893SOL    HW227752   4.322   6.617   3.276 -0.6263  0.0066  0.3523
 8894SOL     OW27753   0.242   7.636   2.718 -0.0633 -0.1221  0.0902
 8894SOL    HW127754   0.264   7.560   2.772  0.1090 -1.0105 -1.1582
 8894SOL    HW227755   0.284   7.710   2.760  2.2833 -1.1898 -0.2300
 8895SOL     OW27756   1.458   2.151   2.806  0.0861  0.6833 -0.6417
 8895SOL    HW127757   1.446   2.109   2.721  0.7395 -0.3872 -0.2417
 8895SOL    HW227758   1.527   2.216   2.791  0.2932  0.4070 -0.9142
 8896SOL     OW27759   0.858   7.705   2.029  0.0156  0.0023 -0.9786
 8896SOL    HW127760   0.867   7.725   1.936 -1.2411 -0.8094 -1.3001
 8896SOL    HW227761   0.773   7.661   2.036 -0.0153  0.2599  0.5914
 8897SOL     OW27762   1.180   2.242   5.748  0.5222  0.3617  0.0445
 8897SOL    HW127763   1.194   2.332   5.719  0.2876  0.0517 -1.0691
 8897SOL    HW227764   1.243   2.190   5.699  0.2902 -0.1534  0.2788
 8898SOL     OW27765   3.248   0.883   3.646  0.5209 -0.2107  0.3940
 8898SOL    HW127766   3.288   0.801   3.675  1.0060 -0.3435 -0.6357
 8898SOL    HW227767   3.265   0.887   3.552  0.6239  1.1493  0.4563
 8899SOL     OW27768   4.168   4.987   5.700 -0.5638 -0.0161 -0.0387
 8899SOL    HW127769   4.262   4.969   5.704 -0.7237 -1.1129 -0.6144
 8899SOL    HW227770   4.127   4.900   5.701 -1.4688  0.3195 -1.8903
 8900SOL     OW27771   2.359   2.011   5.434  0.5437 -0.5949 -0.0611
 8900SOL    HW127772   2.352   2.021   5.529 -0.7847  2.3877 -0.3712
 8900SOL    HW227773   2.406   2.090   5.405 -0.6346 -0.5562 -2.0372
 8901SOL     OW27774   1.945   1.972   5.307 -0.4113  0.0323  0.2867
 8901SOL    HW127775   1.954   1.878   5.315  1.2358 -0.1594 -2.4949
 8901SOL    HW227776   1.872   1.984   5.246  0.7776  0.4160 -1.1081
 8902SOL     OW27777   4.730   6.358   7.292 -0.3522 -0.0797 -0.0536
 8902SOL    HW127778   4.736   6.307   7.211 -1.7277  0.2829 -0.4109
 8902SOL    HW227779   4.696   6.296   7.357  0.1055 -0.1879  0.0914
 8903SOL     OW27780   6.523   2.752   1.441  0.3761 -0.1186  0.0101
 8903SOL    HW127781   6.478   2.669   1.424 -0.1699  0.4286 -1.3449
 8903SOL    HW227782   6.533   2.792   1.354  3.2661 -0.1055  0.2480
 8904SOL     OW27783   3.735   4.860   2.731 -1.0083  0.1816 -0.2627
 8904SOL    HW127784   3.780   4.945   2.736 -2.0544  0.7114  0.6715
 8904SOL    HW227785   3.645   4.880   2.758 -1.5493 -1.0342 -1.0959
 8905SOL     OW27786   2.947   7.943   2.809  0.6650 -0.5908 -0.5568
 8905SOL    HW127787   2.896   7.921   2.888  0.2952  2.2761  0.1253
 8905SOL    HW227788   3.038   7.930   2.835  0.6167  1.3701  0.8087
 8906SOL     OW27789   5.126   6.818   3.274 -0.3816 -0.5074  0.0746
 8906SOL    HW127790   5.180   6.888   3.237  0.8530 -1.9714 -1.0161
 8906SOL    HW227791   5.055   6.805   3.210  0.7290 -1.7995 -0.9684
 8907SOL     OW27792   3.725   7.858   1.012  0.2776  0.0268 -0.2792
 8907SOL    HW127793   3.760   7.858   1.101 -0.9833 -1.9826  0.2753
 8907SOL    HW227794   3.738   7.769   0.980 -1.0868  0.1574 -1.3392
 8908SOL     OW27795   4.463   8.111   0.387  0.2427 -0.0484 -0.3105
 8908SOL    HW127796   4.389   8.162   0.419  0.0597  0.2993 -1.2525
 8908SOL    HW227797   4.492   8.060   0.462 -0.7312  0.0732  0.1593
 8909SOL     OW27798   2.405   6.117   1.729  0.1834 -0.2033 -0.1812
 8909SOL    HW127799   2.444   6.035   1.699  0.2269 -0.7260  1.2166
 8909SOL    HW227800   2.314   6.094   1.750  0.0967  0.1837 -0.1232
 8910SOL     OW27801   2.288   0.029   1.548  0.1136 -0.2709 -0.9417
 8910SOL    HW127802   2.374  -0.006   1.524  0.2340  0.4231 -1.5407
 8910SOL    HW227803   2.281   0.013   1.643  0.4553 -1.2619 -1.0681
 8911SOL     OW27804   7.273   3.326   0.611 -0.2939 -1.1345  0.2038
 8911SOL    HW127805   7.261   3.276   0.530 -1.6607 -1.8117  0.7934
 8911SOL    HW227806   7.193   3.377   0.621  0.8261  0.7754 -0.0577
 8912SOL     OW27807   0.038   1.119   7.669 -0.5637 -0.3343  0.9424
 8912SOL    HW127808  -0.005   1.181   7.728  0.6774  0.2858  1.2468
 8912SOL    HW227809  -0.007   1.036   7.683 -1.6715  0.2857  1.1908
 8913SOL     OW27810   5.126   1.599   4.343 -0.1842 -0.0458 -0.4122
 8913SOL    HW127811   5.139   1.583   4.437  0.2166  1.5178 -0.1716
 8913SOL    HW227812   5.215   1.603   4.308 -0.3417 -1.3733 -1.0296
 8914SOL     OW27813   1.871   0.631   7.526 -0.6420 -0.1985 -0.5403
 8914SOL    HW127814   1.966   0.616   7.527 -0.1749  2.0586 -2.2605
 8914SOL    HW227815   1.845   0.612   7.436 -1.8291 -0.7864 -0.0834
 8915SOL     OW27816   2.246   6.361   1.359 -0.3246 -0.0047 -0.1422
 8915SOL    HW127817   2.163   6.331   1.395 -0.4382  0.2477 -0.1940
 8915SOL    HW227818   2.300   6.380   1.436 -0.0157 -0.9774 -0.1026
 8916SOL     OW27819   4.407   0.838   6.789  0.0330  0.4511 -0.3353
 8916SOL    HW127820   4.354   0.918   6.785 -1.8453 -0.6910  0.5499
 8916SOL    HW227821   4.395   0.806   6.878 -0.1555 -1.3918 -0.9852
 8917SOL     OW27822   6.337   2.737   5.998  0.4211  0.2399 -0.2427
 8917SOL    HW127823   6.318   2.644   5.993  0.3666  0.3257 -2.3301
 8917SOL    HW227824   6.252   2.779   6.005  0.4485  0.1610  0.7710
 8918SOL     OW27825   4.653   5.848   7.604  0.3549 -0.8876  0.6157
 8918SOL    HW127826   4.620   5.916   7.664  0.6953  0.4280 -0.6228
 8918SOL    HW227827   4.574   5.807   7.569  0.0235  0.6684 -0.5713
 8919SOL     OW27828   0.456   1.687   7.234  0.1020 -0.0538  0.1888
 8919SOL    HW127829   0.450   1.770   7.282 -1.2921 -0.5655  0.9696
 8919SOL    HW227830   0.480   1.623   7.301 -0.7948 -0.6001  0.0036
 8920SOL     OW27831   1.939   6.246   0.627  0.1635 -0.1265  0.3056
 8920SOL    HW127832   1.954   6.280   0.539 -0.5232 -0.2496  0.1290
 8920SOL    HW227833   1.860   6.192   0.618 -0.0592  0.0612  1.0466
 8921SOL     OW27834   7.714   1.222   3.011  0.1638  0.6363  0.8762
 8921SOL    HW127835   7.630   1.267   3.004 -0.5966 -0.7753  0.5967
 8921SOL    HW227836   7.704   1.165   3.087 -0.3534 -1.9814 -1.0458
 8922SOL     OW27837   6.063   1.108   7.954  0.2360  0.2406 -0.2638
 8922SOL    HW127838   6.096   1.181   7.902  0.2078  0.9057  0.6376
 8922SOL    HW227839   5.997   1.067   7.898  0.4187  0.7534 -0.8672
 8923SOL     OW27840   5.159   6.764   4.879 -1.0016  0.1307 -0.3176
 8923SOL    HW127841   5.071   6.783   4.843 -1.3486 -1.7877 -0.5587
 8923SOL    HW227842   5.194   6.696   4.822  0.6365  0.7808 -0.1449
 8924SOL     OW27843   0.585   7.456   2.033 -0.5304  0.4197 -0.4937
 8924SOL    HW127844   0.504   7.426   2.074  0.1182 -1.3263 -0.3997
 8924SOL    HW227845   0.585   7.551   2.046 -2.0601  0.3324  0.3906
 8925SOL     OW27846   7.350   7.992   6.690  0.1501  0.2626  0.1386
 8925SOL    HW127847   7.398   8.053   6.634 -0.6383  0.9890  0.2348
 8925SOL    HW227848   7.389   8.005   6.777 -0.3570  1.0161  0.2631
 8926SOL     OW27849   6.041   3.022   2.050 -0.0075  0.3089 -0.3722
 8926SOL    HW127850   6.063   2.980   1.967  0.0908  0.2868 -0.3359
 8926SOL    HW227851   6.092   2.973   2.115  1.4848  1.6075 -0.5258
 8927SOL     OW27852   0.899   4.684   2.073 -0.0234 -0.2480 -0.0295
 8927SOL    HW127853   0.967   4.618   2.082 -0.2590 -0.2960  1.5683
 8927SOL    HW227854   0.933   4.744   2.006  0.6694 -1.3666 -0.7101
 8928SOL     OW27855   1.152   7.683   7.461 -0.4833  0.2079  0.0216
 8928SOL    HW127856   1.194   7.704   7.378 -0.1193 -3.0978 -0.7631
 8928SOL    HW227857   1.224   7.657   7.518 -1.0826 -2.3106 -0.2762
 8929SOL     OW27858   2.968   0.360   7.402  0.2929  0.3246  0.6891
 8929SOL    HW127859   2.999   0.357   7.312 -0.0691  1.5820  0.5064
 8929SOL    HW227860   2.904   0.289   7.408  0.6709 -0.0746  0.1038
 8930SOL     OW27861   6.935   3.477   2.734 -0.6169  0.0901  0.2182
 8930SOL    HW127862   6.931   3.571   2.718  3.5837  0.5621  0.6245
 8930SOL    HW227863   6.961   3.469   2.826  1.5468 -1.2303 -0.4137
 8931SOL     OW27864   6.855   5.135   5.898 -0.3451  0.0131  0.4987
 8931SOL    HW127865   6.906   5.179   5.966  0.1020 -0.6526  0.6003
 8931SOL    HW227866   6.910   5.138   5.821 -0.7743  0.5990  0.2081
 8932SOL     OW27867   4.442   3.161   0.735 -0.4410  0.0713  0.8057
 8932SOL    HW127868   4.448   3.256   0.728 -0.5799  0.1681  1.8514
 8932SOL    HW227869   4.523   3.135   0.780 -0.8919 -0.1814  1.4935
 8933SOL     OW27870   0.198   1.646   3.814  0.6721 -0.1757 -0.3082
 8933SOL    HW127871   0.131   1.674   3.876 -0.5318 -0.4354 -1.4328
 8933SOL    HW227872   0.215   1.723   3.760 -0.8950 -0.8427 -1.8709
 8934SOL     OW27873   6.952   4.451   5.623 -0.2900 -0.0358  0.3225
 8934SOL    HW127874   6.916   4.369   5.656  1.7561 -1.0492  0.2157
 8934SOL    HW227875   7.033   4.463   5.673  0.2765  1.0550 -0.7889
 8935SOL     OW27876   6.621   2.297   3.533  0.3581 -0.3770 -0.4646
 8935SOL    HW127877   6.617   2.386   3.499 -0.1263 -0.2532 -0.1073
 8935SOL    HW227878   6.611   2.241   3.457  0.2599 -0.1195 -0.6417
 8936SOL     OW27879   3.516   0.579   3.806 -0.1314 -0.1359  0.0027
 8936SOL    HW127880   3.435   0.605   3.763 -0.0523 -0.0820 -0.1159
 8936SOL    HW227881   3.544   0.500   3.760 -0.2503 -0.3005  0.2111
 8937SOL     OW27882   4.976   1.362   7.411 -0.0578 -0.1399 -0.0380
 8937SOL    HW127883   5.048   1.420   7.434 -0.6372  0.5154  0.1882
 8937SOL    HW227884   5.003   1.319   7.330  0.4886  0.2694 -0.0749
 8938SOL     OW27885   2.889   5.140   4.203  0.0407 -0.0240 -0.1939
 8938SOL    HW127886   2.951   5.069   4.217  0.5012  0.5613  0.8733
 8938SOL    HW227887   2.920   5.183   4.124  1.5054  0.7356  0.7426
 8939SOL     OW27888   5.671   4.945   5.086 -0.1829  0.1488 -0.0359
 8939SOL    HW127889   5.654   4.855   5.058  1.1012  0.1150 -0.8004
 8939SOL    HW227890   5.640   4.999   5.013 -1.2202  0.3651  0.5429
 8940SOL     OW27891   3.508   7.835   6.645 -0.4354 -0.3681 -0.0810
 8940SOL    HW127892   3.416   7.861   6.640 -0.0926  0.8163 -0.9661
 8940SOL    HW227893   3.543   7.854   6.557  1.0488  0.9067  0.7191
 8941SOL     OW27894   2.913   0.729   0.958 -0.2850 -0.4583 -0.6165
 8941SOL    HW127895   2.962   0.794   1.010 -0.7956  1.0797 -1.9580
 8941SOL    HW227896   2.850   0.692   1.020  1.1912 -0.9934  0.6306
 8942SOL     OW27897   7.562   8.086   5.990 -0.5079 -0.0425 -0.1620
 8942SOL    HW127898   7.546   7.998   5.956 -0.3921 -0.3277  0.4923
 8942SOL    HW227899   7.609   8.131   5.920  2.8236 -1.6883  0.7741
 8943SOL     OW27900   0.449   6.144   1.689 -0.0479 -0.9982  0.5040
 8943SOL    HW127901   0.374   6.197   1.662 -0.6065 -1.6218  0.8103
 8943SOL    HW227902   0.461   6.080   1.619 -0.3247 -1.4271  0.8467
 8944SOL     OW27903   2.586   4.719   2.486 -0.2510  0.9617  0.1637
 8944SOL    HW127904   2.635   4.697   2.565  0.4652  1.8057 -0.0362
 8944SOL    HW227905   2.515   4.654   2.484  1.4704 -1.0176 -0.1555
 8945SOL     OW27906   6.049   4.310   1.438 -0.0751  0.0348 -0.6047
 8945SOL    HW127907   6.034   4.391   1.388 -0.2544 -0.1263 -0.8099
 8945SOL    HW227908   5.997   4.321   1.517  2.0717  1.3600  0.7224
 8946SOL     OW27909   5.122   5.803   2.970 -0.1586 -0.2193  0.2781
 8946SOL    HW127910   5.140   5.858   3.047  0.9128  0.4814 -0.4389
 8946SOL    HW227911   5.090   5.721   3.007 -0.5990  0.4384  1.4374
 8947SOL     OW27912   2.343   4.818   3.140  0.0483 -0.4735  0.0040
 8947SOL    HW127913   2.312   4.830   3.050  0.5161  1.7724  0.0837
 8947SOL    HW227914   2.407   4.747   3.134  0.5579  0.0790 -1.5673
 8948SOL     OW27915   1.454   7.114   5.596 -0.3158 -0.4276  0.6357
 8948SOL    HW127916   1.425   7.169   5.669 -0.0638  2.6349 -1.4057
 8948SOL    HW227917   1.373   7.090   5.551 -0.2811  1.4018 -0.5004
 8949SOL     OW27918   3.227   1.848   4.027  0.3120  0.1112  0.2877
 8949SOL    HW127919   3.150   1.905   4.025 -0.4443 -0.8250  1.2789
 8949SOL    HW227920   3.246   1.830   3.935 -2.3749 -1.8525  0.0005
 8950SOL     OW27921   2.569   1.795   0.408  0.0979 -0.2686  0.3186
 8950SOL    HW127922   2.643   1.853   0.392  0.2039 -0.3531  0.4896
 8950SOL    HW227923   2.558   1.796   0.504 -2.6844  2.9111  0.1554
 8951SOL     OW27924   6.454   7.570   3.014 -0.7797  0.9081  0.2988
 8951SOL    HW127925   6.436   7.518   2.936  0.4014  1.6569 -0.5276
 8951SOL    HW227926   6.420   7.657   2.993 -2.4693  0.6029  1.5431
 8952SOL     OW27927   0.713   0.666   6.314  0.4840 -0.0276 -0.6605
 8952SOL    HW127928   0.752   0.698   6.395  0.0039  2.0537 -1.1923
 8952SOL    HW227929   0.720   0.739   6.253 -1.5365 -0.6064 -1.6833
 8953SOL     OW27930   0.755   7.603   6.529 -0.1338  0.1458  0.1312
 8953SOL    HW127931   0.713   7.519   6.549  0.4941 -0.2186 -0.0536
 8953SOL    HW227932   0.756   7.607   6.434  0.9679 -0.2259  0.1166
 8954SOL     OW27933   1.474   1.278   5.630 -0.2809  0.8551 -0.1334
 8954SOL    HW127934   1.480   1.328   5.711 -0.1661  1.1749 -0.3386
 8954SOL    HW227935   1.529   1.201   5.645 -2.7957 -0.8373  1.3426
 8955SOL     OW27936   4.833   7.862   0.745  0.5769 -0.1277  0.3711
 8955SOL    HW127937   4.863   7.838   0.657 -1.7701 -0.3382 -0.4291
 8955SOL    HW227938   4.907   7.911   0.782  1.7756 -0.3476 -1.5571
 8956SOL     OW27939   2.098   4.972   2.228 -0.0895 -0.5120  0.2616
 8956SOL    HW127940   2.036   4.900   2.221 -0.7002 -0.0179  0.4812
 8956SOL    HW227941   2.166   4.940   2.288 -1.7999  0.0689  2.6623
 8957SOL     OW27942   7.221   6.247   2.370  0.3078  0.3115  0.1120
 8957SOL    HW127943   7.182   6.335   2.375  1.4274  0.9358 -1.3536
 8957SOL    HW227944   7.274   6.240   2.450  1.1977  1.4979 -0.3418
 8958SOL     OW27945   6.312   1.409   5.451 -0.0590  0.0901  0.2143
 8958SOL    HW127946   6.394   1.385   5.408  0.4029  0.6948  0.7352
 8958SOL    HW227947   6.282   1.328   5.494 -0.3803 -0.4456 -0.9810
 8959SOL     OW27948   5.093   3.256   5.836 -0.2197 -0.2938 -0.0832
 8959SOL    HW127949   5.129   3.209   5.911 -1.6234  0.7268  1.2705
 8959SOL    HW227950   5.105   3.349   5.856  0.2705  0.0107 -1.5935
 8960SOL     OW27951   1.961   2.958   7.659 -0.6921  0.0939 -0.1780
 8960SOL    HW127952   1.882   2.909   7.682 -0.7253  0.6361  0.9183
 8960SOL    HW227953   2.014   2.895   7.610 -0.8003 -1.0129  1.0525
 8961SOL     OW27954   3.364   6.295   7.664  0.3894 -0.0294 -0.2404
 8961SOL    HW127955   3.278   6.329   7.688 -0.5644 -2.0401 -0.6248
 8961SOL    HW227956   3.420   6.320   7.737 -1.0314 -0.5788  1.1067
 8962SOL     OW27957   6.708   7.740   5.438  0.0064  0.3515 -0.1354
 8962SOL    HW127958   6.738   7.800   5.370 -0.2163  0.0801 -0.4754
 8962SOL    HW227959   6.710   7.653   5.397 -0.2718  0.2036  0.1539
 8963SOL     OW27960   5.685   5.358   7.906 -0.3765 -0.0987 -0.2749
 8963SOL    HW127961   5.737   5.438   7.922  1.1503 -1.0463 -0.2970
 8963SOL    HW227962   5.595   5.385   7.922  0.2094  1.3588  0.8539
 8964SOL     OW27963   4.327   5.726   3.107 -0.1146  0.2105 -0.3971
 8964SOL    HW127964   4.361   5.715   3.018 -0.7098  1.5402 -0.8018
 8964SOL    HW227965   4.233   5.712   3.098  0.0290 -1.5268  0.3837
 8965SOL     OW27966   6.439   2.290   4.305 -0.8533  0.2626 -0.2261
 8965SOL    HW127967   6.395   2.330   4.230  1.3467 -1.2709 -2.5039
 8965SOL    HW227968   6.513   2.348   4.324 -1.1710  0.4346  0.5034
 8966SOL     OW27969   6.944   6.120   2.540 -0.0153 -0.0006  0.4606
 8966SOL    HW127970   6.877   6.129   2.607 -1.4223 -0.8119 -0.7754
 8966SOL    HW227971   7.026   6.144   2.584 -1.0368  0.5978  2.1231
 8967SOL     OW27972   0.956   1.293   1.216 -0.2218  0.3665  0.1007
 8967SOL    HW127973   1.007   1.364   1.179 -2.0976  2.3514  1.1236
 8967SOL    HW227974   0.870   1.331   1.233 -0.6952 -1.5563  2.6190
 8968SOL     OW27975   4.554   4.341   7.814  0.3876 -0.0466  0.1858
 8968SOL    HW127976   4.545   4.267   7.875  1.0873 -1.4052 -1.3027
 8968SOL    HW227977   4.625   4.316   7.755  0.5101  1.7447 -0.5030
 8969SOL     OW27978   0.652   7.865   5.187  0.1812 -0.4268  0.0189
 8969SOL    HW127979   0.741   7.829   5.193  0.5583  0.4671  0.0175
 8969SOL    HW227980   0.656   7.944   5.242 -0.7188 -0.5793  0.3105
 8970SOL     OW27981   1.416   4.172   3.743  0.2658 -0.4102  0.1283
 8970SOL    HW127982   1.362   4.164   3.822 -1.2210 -1.0002 -0.9087
 8970SOL    HW227983   1.357   4.205   3.676  1.7725  1.1531 -0.5035
 8971SOL     OW27984   0.889   1.908   1.669  0.1575 -0.1727 -0.0492
 8971SOL    HW127985   0.827   1.976   1.696 -1.8142 -1.5929 -0.7602
 8971SOL    HW227986   0.890   1.913   1.573  1.7751  0.3179 -0.0393
 8972SOL     OW27987   2.441   5.273   7.884  0.0102  0.1498 -0.3851
 8972SOL    HW127988   2.497   5.254   7.959 -1.4192 -0.9171  0.4487
 8972SOL    HW227989   2.499   5.266   7.808  0.8430 -1.6980  0.3782
 8973SOL     OW27990   0.662   5.239   0.857  0.5779 -0.3418  0.2516
 8973SOL    HW127991   0.626   5.161   0.898  3.1697 -2.7958 -1.7206
 8973SOL    HW227992   0.592   5.273   0.802 -1.2461 -0.0014  2.6624
 8974SOL     OW27993   5.070   1.313   0.199 -0.5877 -0.4290 -0.3588
 8974SOL    HW127994   5.119   1.248   0.148 -0.1030 -0.6366  0.3652
 8974SOL    HW227995   4.978   1.295   0.177 -0.5271 -1.9415  0.4919
 8975SOL     OW27996   0.601   0.863   3.551  0.1556 -0.1188 -0.2914
 8975SOL    HW127997   0.639   0.950   3.563  2.1008 -0.7744 -1.3867
 8975SOL    HW227998   0.611   0.821   3.636  0.5592  0.2260 -0.1635
 8976SOL     OW27999   8.068   2.936   7.969 -0.0739 -0.3262  0.2900
 8976SOL    HW128000   7.991   2.984   7.940 -0.6913 -0.7561  1.1953
 8976SOL    HW228001   8.038   2.882   8.042  0.1646 -3.4548 -1.7435
 8977SOL     OW28002   1.626   5.138   5.719 -0.3256 -0.2241 -0.2897
 8977SOL    HW128003   1.640   5.191   5.641 -0.4148  0.7938  0.3766
 8977SOL    HW228004   1.697   5.164   5.778 -2.0658  1.3643  1.2053
 8978SOL     OW28005   0.102   2.738   4.629 -0.0370 -0.1493  0.0935
 8978SOL    HW128006   0.100   2.804   4.559 -1.3977  0.6823  0.8711
 8978SOL    HW228007   0.159   2.776   4.696  0.9578 -0.7756 -0.3734
 8979SOL     OW28008   4.371   1.831   0.630  0.2253  0.4625  0.0733
 8979SOL    HW128009   4.388   1.774   0.705 -1.5048 -0.6492 -0.3144
 8979SOL    HW228010   4.391   1.777   0.554 -2.2820 -0.0300 -0.3218
 8980SOL     OW28011   4.725   5.975   5.534  0.5166  0.2292 -0.8492
 8980SOL    HW128012   4.679   6.036   5.591 -0.2046  1.2564 -2.4561
 8980SOL    HW228013   4.658   5.914   5.504  0.8352 -0.1654 -0.7640
 8981SOL     OW28014   5.700   1.275   4.415 -0.5629 -0.3507  0.0839
 8981SOL    HW128015   5.739   1.349   4.461 -1.9576  0.1367  0.5467
 8981SOL    HW228016   5.758   1.259   4.341 -1.0339  2.2568 -0.9639
 8982SOL     OW28017   4.669   2.811   7.683 -0.3222  0.4706 -0.3947
 8982SOL    HW128018   4.603   2.879   7.669 -0.2542  0.0683 -3.3782
 8982SOL    HW228019   4.714   2.804   7.599  2.4063 -0.4790  1.0135
 8983SOL     OW28020   5.380   3.807   1.588  0.1921 -0.7248  0.3592
 8983SOL    HW128021   5.324   3.811   1.510  0.6821 -0.4768  0.0156
 8983SOL    HW228022   5.375   3.716   1.616 -1.7661 -0.3614  1.3668
 8984SOL     OW28023   1.060   5.047   7.071 -0.2452  0.1989 -0.2085
 8984SOL    HW128024   1.017   4.967   7.040 -1.2479  0.4255  0.5322
 8984SOL    HW228025   1.044   5.048   7.165  0.2437  0.9792 -0.1274
 8985SOL     OW28026   3.159   3.865   5.587 -0.1608  0.2298  0.2975
 8985SOL    HW128027   3.074   3.839   5.623 -0.0481 -0.4143  0.1154
 8985SOL    HW228028   3.221   3.803   5.625  0.4391  1.4628  1.4207
 8986SOL     OW28029   3.172   5.507   3.350 -0.2618  0.0241 -0.1884
 8986SOL    HW128030   3.091   5.472   3.315 -0.2565 -1.5233  1.1980
 8986SOL    HW228031   3.241   5.455   3.309 -0.2085 -1.1557  1.3188
 8987SOL     OW28032   6.251   6.045   4.216  0.6159 -0.2989  0.0558
 8987SOL    HW128033   6.206   5.967   4.183  1.0948 -0.4216 -0.3222
 8987SOL    HW228034   6.191   6.117   4.196  1.2745 -0.2420 -1.9889
 8988SOL     OW28035   1.753   3.850   3.007 -0.4089  0.2761  0.0487
 8988SOL    HW128036   1.666   3.889   2.998  0.2719  2.0083  0.5311
 8988SOL    HW228037   1.752   3.808   3.093 -1.3406 -1.3722 -0.7142
 8989SOL     OW28038   5.085   0.929   0.801 -0.0876 -0.3811 -0.1599
 8989SOL    HW128039   5.033   1.003   0.768  0.5319 -0.3532 -1.1340
 8989SOL    HW228040   5.084   0.866   0.729 -0.2444 -1.1407  0.4992
 8990SOL     OW28041   1.855   1.007   4.077  0.1454  0.1376 -0.1234
 8990SOL    HW128042   1.778   0.998   4.021 -0.0579 -0.3337  0.2207
 8990SOL    HW228043   1.922   1.045   4.021 -0.1535 -0.0366 -0.6009
 8991SOL     OW28044   4.736   6.308   2.759  0.5435 -0.3134  0.6677
 8991SOL    HW128045   4.662   6.368   2.747  0.7233 -0.2957 -0.5040
 8991SOL    HW228046   4.814   6.363   2.747  0.7079 -0.8940 -1.1988
 8992SOL     OW28047   3.979   3.128   6.023 -0.6008 -0.1744  0.1505
 8992SOL    HW128048   4.019   3.151   5.939  1.8594 -3.0355  0.3200
 8992SOL    HW228049   3.954   3.036   6.013 -0.3546 -0.5651  2.4718
 8993SOL     OW28050   6.430   1.379   4.600  0.4912  0.0649 -0.2516
 8993SOL    HW128051   6.350   1.385   4.549  0.5856  0.8474 -0.3169
 8993SOL    HW228052   6.408   1.319   4.672 -1.2914  2.8428  1.7395
 8994SOL     OW28053   8.070   3.743   3.414 -0.3485  0.2823 -0.3010
 8994SOL    HW128054   8.051   3.657   3.450 -1.7250  1.1462  1.1582
 8994SOL    HW228055   7.998   3.761   3.353 -1.1091  1.1386  0.8108
 8995SOL     OW28056   4.946   4.915   1.426  0.3611  0.3215  0.5408
 8995SOL    HW128057   4.934   5.009   1.413 -0.9145  0.1428  0.3337
 8995SOL    HW228058   4.870   4.875   1.386  1.6619 -0.9298 -0.7857
 8996SOL     OW28059   7.248   2.487   7.375  0.4744 -0.0282  0.2182
 8996SOL    HW128060   7.221   2.446   7.293 -0.3452 -0.6080  0.7536
 8996SOL    HW228061   7.190   2.562   7.385  0.9414  0.3653  0.0000
 8997SOL     OW28062   1.250   5.926   7.057  0.0545  0.1755  0.2162
 8997SOL    HW128063   1.238   6.020   7.063  0.8354  0.3350 -0.6548
 8997SOL    HW228064   1.344   5.912   7.062 -0.0593 -0.5877  0.5708
 8998SOL     OW28065   5.128   3.168   4.383  0.0297 -0.1614 -0.6058
 8998SOL    HW128066   5.181   3.241   4.351 -0.2521  1.1104  1.6129
 8998SOL    HW228067   5.038   3.201   4.379 -0.2786 -1.0475 -1.1802
 8999SOL     OW28068   6.268   0.051   3.412 -0.2433  0.0549  0.0939
 8999SOL    HW128069   6.181   0.090   3.413  0.8227  2.6217  1.8100
 8999SOL    HW228070   6.293   0.051   3.320 -2.4472 -1.9069 -0.6135
 9000SOL     OW28071   3.970   1.516   7.042 -0.0736 -0.2444 -0.6464
 9000SOL    HW128072   3.905   1.494   7.109 -1.6875  0.0859 -2.0438
 9000SOL    HW228073   3.962   1.610   7.030 -1.8106 -0.6168 -3.2036
 9001SOL     OW28074   5.547   6.416   1.776  0.1409  0.1838  0.5969
 9001SOL    HW128075   5.494   6.440   1.700  1.8835 -0.2426 -0.8320
 9001SOL    HW228076   5.547   6.494   1.832 -0.8278  0.6567 -0.0470
 9002SOL     OW28077   1.051   4.433   0.308  0.2976  0.3173  0.1746
 9002SOL    HW128078   0.984   4.365   0.304  1.1116 -0.5509  0.8089
 9002SOL    HW228079   1.006   4.508   0.346 -0.2437 -0.3526  0.8909
 9003SOL     OW28080   5.358   2.596   3.302  0.2745 -0.7862 -0.3230
 9003SOL    HW128081   5.282   2.598   3.359 -0.0233 -0.9565 -0.7100
 9003SOL    HW228082   5.371   2.687   3.275 -0.0295 -0.8113 -0.5643
 9004SOL     OW28083   0.611   7.272   3.205 -0.2638  0.0850 -0.0139
 9004SOL    HW128084   0.601   7.325   3.126  1.4912  0.8693  0.2290
 9004SOL    HW228085   0.527   7.278   3.249 -0.5316  1.6260 -0.6491
 9005SOL     OW28086   0.668   7.156   3.839  0.2228 -0.2971 -0.1329
 9005SOL    HW128087   0.731   7.151   3.911  0.6388 -0.2483 -0.4953
 9005SOL    HW228088   0.614   7.233   3.860  0.2512 -0.3660  0.1987
 9006SOL     OW28089   4.928   1.831   5.928 -0.4026  0.2393 -0.1603
 9006SOL    HW128090   4.877   1.876   5.995  0.8048  2.1165 -0.4181
 9006SOL    HW228091   4.983   1.769   5.977  0.2173  1.3475  0.5906
 9007SOL     OW28092   2.524   7.350   0.027 -0.0654 -0.2892 -0.0139
 9007SOL    HW128093   2.532   7.445   0.035  1.4747 -0.1625 -2.2059
 9007SOL    HW228094   2.508   7.334  -0.066  0.4865 -2.2022  0.1666
 9008SOL     OW28095   4.136   1.817   3.322  0.0352  0.5189 -0.5272
 9008SOL    HW128096   4.148   1.746   3.385 -0.5033  0.8171 -0.0768
 9008SOL    HW228097   4.074   1.876   3.364  0.8325  1.5026 -0.6967
 9009SOL     OW28098   7.709   0.822   5.935  0.3838 -0.1497 -0.3953
 9009SOL    HW128099   7.788   0.858   5.894 -0.2436  0.3227 -1.2208
 9009SOL    HW228100   7.715   0.728   5.919  0.3114 -0.0125 -1.3227
 9010SOL     OW28101   2.975   7.146   7.254  0.3488 -0.1555 -0.7085
 9010SOL    HW128102   2.992   7.199   7.332 -0.6917 -1.5939  0.5344
 9010SOL    HW228103   2.887   7.171   7.226  0.8097  0.5387 -1.6253
 9011SOL     OW28104   6.942   5.513   2.265 -0.0376 -0.5210 -0.3158
 9011SOL    HW128105   6.901   5.471   2.190 -0.4715 -1.2279  0.2993
 9011SOL    HW228106   6.870   5.558   2.309 -0.0890 -1.3523  0.4916
 9012SOL     OW28107   2.772   6.372   1.246 -0.5094 -0.3988  0.0317
 9012SOL    HW128108   2.704   6.335   1.302 -0.7375  0.9722  0.7062
 9012SOL    HW228109   2.756   6.333   1.160 -2.8447  0.7134 -0.1052
 9013SOL     OW28110   7.192   4.360   0.492 -0.7300  0.0860  0.0117
 9013SOL    HW128111   7.135   4.284   0.505  0.7237 -1.2877 -1.2310
 9013SOL    HW228112   7.176   4.388   0.402 -0.0464  0.1986 -0.0821
 9014SOL     OW28113   4.263   6.873   3.935  0.1715 -0.0438 -0.0629
 9014SOL    HW128114   4.169   6.863   3.951  0.2846 -0.5773  0.2815
 9014SOL    HW228115   4.297   6.783   3.933  0.4133  0.0491 -1.8189
 9015SOL     OW28116   3.152   6.278   1.847  0.3653  0.1259 -0.0703
 9015SOL    HW128117   3.140   6.235   1.762 -2.4587 -0.2690  0.4152
 9015SOL    HW228118   3.176   6.369   1.825  1.0477 -0.3148 -1.2220
 9016SOL     OW28119   0.300   1.693   5.882  0.0477  0.0446  0.5390
 9016SOL    HW128120   0.341   1.776   5.857 -1.1763  0.7441  0.7895
 9016SOL    HW228121   0.364   1.627   5.856  0.1047  0.9108 -1.7308
 9017SOL     OW28122   1.794   3.032   6.578 -0.0885 -0.0673 -0.3027
 9017SOL    HW128123   1.764   3.034   6.487 -3.8422 -0.9130  0.7167
 9017SOL    HW228124   1.803   2.938   6.597 -2.6241 -0.1117  1.0119
 9018SOL     OW28125   6.442   5.432   4.397  0.3516 -0.0023 -0.6284
 9018SOL    HW128126   6.394   5.354   4.368 -2.0779  0.3308  2.0627
 9018SOL    HW228127   6.382   5.505   4.379  1.7685  1.0632 -1.2762
 9019SOL     OW28128   4.935   7.116   3.549 -0.1170 -0.3377 -0.1180
 9019SOL    HW128129   4.867   7.149   3.490 -0.5343 -0.4168  0.3160
 9019SOL    HW228130   4.888   7.063   3.613  0.4056 -0.7350 -0.0590
 9020SOL     OW28131   6.420   0.546   2.624 -0.3680 -0.4642  0.1076
 9020SOL    HW128132   6.369   0.624   2.602  1.1151  0.9197  1.3162
 9020SOL    HW228133   6.460   0.566   2.708  0.0180 -2.5848  0.4954
 9021SOL     OW28134   4.748   3.805   2.202 -0.4050  0.0926 -0.3683
 9021SOL    HW128135   4.691   3.737   2.238  1.2947 -1.2499 -0.0453
 9021SOL    HW228136   4.757   3.782   2.109 -0.3653  0.2828 -0.4124
 9022SOL     OW28137   6.550   5.527   1.527 -0.0866  0.7059  0.5985
 9022SOL    HW128138   6.505   5.451   1.563 -0.1747  0.2416 -0.4545
 9022SOL    HW228139   6.622   5.544   1.588 -1.3040  1.1045  1.9890
 9023SOL     OW28140   5.272   1.286   6.501  0.2955  0.1597 -0.5667
 9023SOL    HW128141   5.337   1.346   6.539 -0.7210  1.6838 -1.1525
 9023SOL    HW228142   5.197   1.293   6.559  0.1040 -0.4283 -0.7445
 9024SOL     OW28143   8.086   8.081   0.504  0.6401  0.0107  0.0774
 9024SOL    HW128144   8.121   8.170   0.514  1.9466 -0.4423 -0.4056
 9024SOL    HW228145   8.086   8.065   0.410  1.5139 -0.9303  0.2227
 9025SOL     OW28146   0.389   5.063   6.897 -0.1974 -0.7463 -0.4193
 9025SOL    HW128147   0.456   5.132   6.904  1.1857 -2.0371 -0.2717
 9025SOL    HW228148   0.417   5.010   6.823 -0.8373 -1.5390 -0.1079
 9026SOL     OW28149   2.871   7.602   7.498 -0.1176 -0.6448 -0.8606
 9026SOL    HW128150   2.784   7.639   7.510  0.0290 -0.1632 -1.2240
 9026SOL    HW228151   2.916   7.617   7.582  0.2058  0.7605 -1.2593
 9027SOL     OW28152   3.895   4.515   7.770 -0.1648 -0.4448  0.2727
 9027SOL    HW128153   3.828   4.572   7.808 -0.1173 -0.8021  0.9079
 9027SOL    HW228154   3.845   4.453   7.716 -0.2631 -0.1404  0.0113
 9028SOL     OW28155   7.174   4.066   2.561 -0.2663 -0.1481 -0.2592
 9028SOL    HW128156   7.258   4.107   2.581 -0.7197  0.8835 -0.4374
 9028SOL    HW228157   7.197   3.975   2.542  0.8278  0.1468 -0.4575
 9029SOL     OW28158   5.435   8.064   0.342  0.0583  0.1324  0.2926
 9029SOL    HW128159   5.524   8.029   0.353  0.1525  0.7637  1.7705
 9029SOL    HW228160   5.438   8.111   0.259  1.7369  1.8236  1.2201
 9030SOL     OW28161   0.875   1.175   1.537 -0.1718 -0.8422  0.2307
 9030SOL    HW128162   0.820   1.204   1.463  0.9758 -1.5186 -0.9356
 9030SOL    HW228163   0.822   1.193   1.614 -0.9430  1.0552 -0.6560
 9031SOL     OW28164   6.694   7.542   3.118  0.0116  0.0214 -0.5279
 9031SOL    HW128165   6.610   7.544   3.073  0.0659 -0.3551 -0.6469
 9031SOL    HW228166   6.687   7.609   3.185 -1.5301 -2.0742  1.5217
 9032SOL     OW28167   5.827   3.693   5.982 -0.0514  0.2149 -0.0136
 9032SOL    HW128168   5.900   3.707   6.042 -0.1040  1.6001 -0.2408
 9032SOL    HW228169   5.755   3.744   6.019 -1.4896 -2.4969  1.1557
 9033SOL     OW28170   5.453   2.452   2.907 -0.2880  0.3322 -0.2296
 9033SOL    HW128171   5.495   2.381   2.857  1.7825  0.5655  1.0403
 9033SOL    HW228172   5.500   2.531   2.880 -1.6600  1.0368 -0.6240
 9034SOL     OW28173   5.248   5.895   3.702  0.2892 -0.7095  0.1792
 9034SOL    HW128174   5.218   5.853   3.782 -0.1688 -1.4372 -0.3569
 9034SOL    HW228175   5.293   5.826   3.654  0.7156 -0.2334 -0.1118
 9035SOL     OW28176   4.760   7.745   5.780  0.2403  0.0921  0.2897
 9035SOL    HW128177   4.850   7.733   5.748 -0.7848 -0.2894 -2.8162
 9035SOL    HW228178   4.749   7.679   5.847  2.0974 -0.2411  0.3307
 9036SOL     OW28179   4.816   4.376   3.996  0.5242  0.0153  0.8696
 9036SOL    HW128180   4.823   4.406   4.086  1.9135  0.6651  0.5712
 9036SOL    HW228181   4.906   4.377   3.963  0.0024  0.1289 -0.6270
 9037SOL     OW28182   5.132   4.680   6.684 -0.5505  0.1112  0.4922
 9037SOL    HW128183   5.081   4.756   6.713  0.6330  1.1323  0.0067
 9037SOL    HW228184   5.153   4.700   6.593 -0.9966 -1.2519  0.0751
 9038SOL     OW28185   2.388   8.055   7.916  0.2836 -0.4856 -0.3199
 9038SOL    HW128186   2.435   7.978   7.948 -0.5076 -0.5124  0.8651
 9038SOL    HW228187   2.320   8.070   7.982  0.7754  1.5665 -0.2135
 9039SOL     OW28188   1.893   4.912   5.885  0.2003 -0.2379 -0.1162
 9039SOL    HW128189   1.861   5.002   5.883 -1.0832 -0.6852 -1.0446
 9039SOL    HW228190   1.949   4.905   5.808  0.7167 -0.0960  0.2433
 9040SOL     OW28191   1.109   3.580   1.377 -0.4309 -0.5103  0.5317
 9040SOL    HW128192   1.044   3.626   1.324  0.1182 -2.2510 -1.8110
 9040SOL    HW228193   1.091   3.488   1.363  1.6968 -1.0417  0.8858
 9041SOL     OW28194   3.423   7.326   7.212  0.5605 -0.4398 -0.7859
 9041SOL    HW128195   3.337   7.359   7.237  0.3669 -0.4682 -1.4067
 9041SOL    HW228196   3.484   7.373   7.270  0.2116  0.3489 -1.0367
 9042SOL     OW28197   4.451   7.498   2.537  0.2062 -0.1093 -0.3705
 9042SOL    HW128198   4.511   7.435   2.497  0.8242 -1.1202  1.9383
 9042SOL    HW228199   4.507   7.571   2.563  0.1067 -0.1965  0.0948
 9043SOL     OW28200   4.293   1.978   7.112 -0.6010  0.4612  0.2746
 9043SOL    HW128201   4.302   1.898   7.060  1.2176  0.5843  0.3230
 9043SOL    HW228202   4.239   1.952   7.186  1.1511 -1.1778  1.0662
 9044SOL     OW28203   7.812   1.156   0.876 -0.2850  0.3668 -0.0516
 9044SOL    HW128204   7.875   1.118   0.937 -0.3231 -0.6720 -0.6371
 9044SOL    HW228205   7.837   1.248   0.869  0.7930  0.1034  0.1886
 9045SOL     OW28206   2.747   1.636   5.296 -0.4715  0.5730 -0.5875
 9045SOL    HW128207   2.743   1.548   5.333 -2.5300  0.5712 -0.7413
 9045SOL    HW228208   2.739   1.694   5.372  1.9189  0.7290 -0.3511
 9046SOL     OW28209   0.912   1.894   4.842 -0.1187 -0.6346  0.1413
 9046SOL    HW128210   0.824   1.909   4.878 -0.4337 -0.2301 -0.7794
 9046SOL    HW228211   0.908   1.929   4.753  1.0160 -0.5182  0.1276
 9047SOL     OW28212   0.613   1.138   2.936  0.2681 -0.0046 -0.1465
 9047SOL    HW128213   0.587   1.167   2.848 -0.4721 -3.0510 -1.0594
 9047SOL    HW228214   0.699   1.098   2.923  0.9930  1.1261  0.9364
 9048SOL     OW28215   0.336   1.654   5.358  0.3260 -0.1428 -0.1134
 9048SOL    HW128216   0.287   1.652   5.275 -0.6987  1.9292  0.3612
 9048SOL    HW228217   0.315   1.739   5.396  3.4885  0.4237  0.6772
 9049SOL     OW28218   5.824   6.741   7.892  0.1862 -0.1319  0.2978
 9049SOL    HW128219   5.792   6.651   7.883  0.3056 -0.0630 -1.0205
 9049SOL    HW228220   5.917   6.731   7.914  0.4768 -0.3416 -0.9931
 9050SOL     OW28221   5.019   1.672   2.015 -0.5574  0.1179 -0.1613
 9050SOL    HW128222   5.035   1.663   2.109 -1.1455  1.1716  0.0528
 9050SOL    HW228223   5.019   1.766   2.000 -0.5689 -0.0385 -1.2062
 9051SOL     OW28224   3.949   6.738   1.492  0.2932  0.2734 -0.0262
 9051SOL    HW128225   3.955   6.791   1.412  0.9365  1.1489  0.5778
 9051SOL    HW228226   3.855   6.731   1.509  0.1658  0.4548 -0.6180
 9052SOL     OW28227   4.752   3.447   1.937  0.2042  0.1761 -0.1875
 9052SOL    HW128228   4.716   3.502   1.867 -0.4772 -0.6099 -0.4592
 9052SOL    HW228229   4.696   3.370   1.939  1.5679 -0.8488 -0.2728
 9053SOL     OW28230   5.473   6.735   4.984  0.3250  0.1354  0.2278
 9053SOL    HW128231   5.511   6.667   4.927 -1.8637 -0.8983 -0.1067
 9053SOL    HW228232   5.397   6.767   4.935 -1.1303 -0.1717  2.1881
 9054SOL     OW28233   1.092   6.243   3.810  0.5116  0.4398 -0.2803
 9054SOL    HW128234   1.158   6.290   3.760  0.2545  0.7734 -0.3098
 9054SOL    HW228235   1.043   6.193   3.744  0.9311 -0.0552 -0.2232
 9055SOL     OW28236   6.199   4.337   5.243  0.0625 -0.2451 -0.2999
 9055SOL    HW128237   6.104   4.342   5.243  0.0691 -0.0329 -0.9101
 9055SOL    HW228238   6.227   4.417   5.290 -0.0842 -1.6915  2.4876
 9056SOL     OW28239   2.904   5.573   4.377 -0.5294  0.1458  0.0182
 9056SOL    HW128240   2.964   5.574   4.302  0.6346  1.3186  0.9117
 9056SOL    HW228241   2.896   5.481   4.401  2.3236  0.0336  0.9015
 9057SOL     OW28242   1.815   6.439   2.136 -0.4307  0.3515  0.4900
 9057SOL    HW128243   1.867   6.451   2.056  0.3767 -1.5749  0.6741
 9057SOL    HW228244   1.749   6.373   2.112 -0.8291  0.5113  1.1234
 9058SOL     OW28245   7.850   4.954   4.106 -0.2541 -0.4645  0.4045
 9058SOL    HW128246   7.805   4.920   4.028  1.6629  0.6516 -1.2810
 9058SOL    HW228247   7.906   4.881   4.134 -0.6366 -0.7324  0.4707
 9059SOL     OW28248   5.118   0.291   1.558 -0.3103  0.0004  0.6340
 9059SOL    HW128249   5.123   0.196   1.568 -0.7359 -0.4200 -2.2170
 9059SOL    HW228250   5.030   0.314   1.586  0.0152 -0.2923  1.9958
 9060SOL     OW28251   7.173   1.710   3.722 -0.0994  0.0780 -0.3712
 9060SOL    HW128252   7.133   1.649   3.784  2.3058  0.1662  1.4163
 9060SOL    HW228253   7.132   1.794   3.742  1.9373  0.5391  2.6518
 9061SOL     OW28254   2.744   3.256   2.790  0.0895  0.2553  0.0088
 9061SOL    HW128255   2.738   3.178   2.844  1.9689 -1.1075 -1.6233
 9061SOL    HW228256   2.831   3.292   2.809  0.2056  0.5579 -1.0369
 9062SOL     OW28257   4.868   0.018   5.462  0.7011 -0.4751 -0.2507
 9062SOL    HW128258   4.774   0.007   5.449  0.7400 -2.5786  0.7934
 9062SOL    HW228259   4.876   0.088   5.527 -0.1311 -0.2853 -0.3422
 9063SOL     OW28260   3.268   8.104   3.850 -0.2316 -0.0387  0.3240
 9063SOL    HW128261   3.247   8.073   3.938  1.6456  3.2242  2.0819
 9063SOL    HW228262   3.317   8.031   3.811  1.6122 -0.4815  3.1628
 9064SOL     OW28263   0.379   5.744   1.942  0.1530 -0.1774  0.2034
 9064SOL    HW128264   0.414   5.822   1.900 -2.2822  0.5865 -0.6115
 9064SOL    HW228265   0.323   5.778   2.012 -2.5932 -0.9825 -1.4624
 9065SOL     OW28266   3.612   3.184   2.430  0.1839  0.6775 -0.4083
 9065SOL    HW128267   3.632   3.263   2.380 -0.2910  1.5524  0.7293
 9065SOL    HW228268   3.689   3.170   2.485  1.1057 -0.8255 -1.9813
 9066SOL     OW28269   1.958   0.074   4.468  0.8659  0.0615  0.2508
 9066SOL    HW128270   2.039   0.025   4.485  0.9453  0.2564  0.4371
 9066SOL    HW228271   1.896   0.007   4.439  1.1242 -0.0715 -0.0027
 9067SOL     OW28272   3.045   6.179   4.179  0.4143 -0.0833  0.5297
 9067SOL    HW128273   3.065   6.191   4.086  1.1924  1.7907  0.8766
 9067SOL    HW228274   2.950   6.173   4.183  0.4521 -3.1133 -0.6119
 9068SOL     OW28275   2.820   7.967   7.653  0.4238 -0.0711 -0.1659
 9068SOL    HW128276   2.883   7.936   7.718  1.1684  0.5062 -0.5880
 9068SOL    HW228277   2.751   8.009   7.704 -1.5725 -3.8552  0.5751
 9069SOL     OW28278   0.538   0.349   5.657  0.1203  0.3914  0.2257
 9069SOL    HW128279   0.521   0.308   5.573  1.9877 -0.9049  0.4347
 9069SOL    HW228280   0.572   0.279   5.712 -0.1318  1.4298  1.7651
 9070SOL     OW28281   2.668   6.213   0.686 -0.5046 -0.1651 -0.0850
 9070SOL    HW128282   2.694   6.297   0.724 -0.1127 -0.2243 -0.2142
 9070SOL    HW228283   2.751   6.169   0.667 -0.6894 -1.0434  1.0004
 9071SOL     OW28284   1.107   4.383   3.046  0.1467 -0.5097 -0.1042
 9071SOL    HW128285   1.090   4.376   2.952  0.9340 -0.3539 -0.2696
 9071SOL    HW228286   1.091   4.475   3.067 -0.6680 -0.6818  0.0546
 9072SOL     OW28287   7.480   3.664   7.550  0.1103 -0.1298  0.1600
 9072SOL    HW128288   7.574   3.651   7.546  0.1566 -0.0184  0.8920
 9072SOL    HW228289   7.468   3.747   7.596 -0.3366  0.0195 -0.2107
 9073SOL     OW28290   3.757   3.818   4.428 -0.4803 -0.0449  0.3366
 9073SOL    HW128291   3.836   3.828   4.482  0.5466  1.2048 -1.3322
 9073SOL    HW228292   3.765   3.883   4.359 -3.0893  0.2467  0.1894
 9074SOL     OW28293   7.180   5.677   5.716  0.1550 -0.1490  0.4010
 9074SOL    HW128294   7.173   5.606   5.653 -1.3340  0.4879 -0.1833
 9074SOL    HW228295   7.106   5.735   5.697  2.2526  2.5216 -0.3381
 9075SOL     OW28296   7.756   0.953   3.494  0.1114  0.5130  0.2065
 9075SOL    HW128297   7.764   0.927   3.586 -2.4045  0.8269  0.5972
 9075SOL    HW228298   7.662   0.950   3.476  0.5290  0.4621 -2.3858
 9076SOL     OW28299   1.356   0.717   3.613  0.6875  0.6190 -0.1925
 9076SOL    HW128300   1.302   0.694   3.538  0.2435  2.9422 -0.6750
 9076SOL    HW228301   1.366   0.812   3.607  1.1604  0.8076  2.3453
 9077SOL     OW28302   4.834   0.593   2.928  0.1594  0.3154 -0.1612
 9077SOL    HW128303   4.766   0.641   2.975 -1.2617 -0.2564 -1.5395
 9077SOL    HW228304   4.856   0.648   2.853 -0.3560 -0.4427 -0.8919
 9078SOL     OW28305   2.499   2.906   5.586  0.2081  0.0074  0.0768
 9078SOL    HW128306   2.456   2.820   5.586 -0.3504  0.2651 -0.9587
 9078SOL    HW228307   2.427   2.968   5.577  0.6124  0.5910  0.8008
 9079SOL     OW28308   1.127   5.732   2.871  0.1705  0.0251 -0.1083
 9079SOL    HW128309   1.036   5.705   2.863  0.3081 -0.0205 -2.1602
 9079SOL    HW228310   1.170   5.691   2.796  2.2171 -1.1966  1.6132
 9080SOL     OW28311   6.012   0.292   7.773  0.2781  0.1088  0.4504
 9080SOL    HW128312   5.922   0.309   7.746 -0.4737 -0.7114  2.2361
 9080SOL    HW228313   6.017   0.329   7.862  1.6220 -0.1212  0.4905
 9081SOL     OW28314   3.650   7.601   0.596  0.4952  0.6088 -0.6286
 9081SOL    HW128315   3.657   7.632   0.506  1.3481 -0.3166 -0.9105
 9081SOL    HW228316   3.601   7.519   0.589  1.6695 -0.1347 -0.4447
 9082SOL     OW28317   1.538   0.291   6.219  0.3834  0.4872  0.0452
 9082SOL    HW128318   1.486   0.276   6.298 -0.3348  0.7315 -0.3664
 9082SOL    HW228319   1.628   0.292   6.249  0.1955 -0.5758  0.6841
 9083SOL     OW28320   2.537   3.467   3.841 -0.1411  0.1766 -0.5104
 9083SOL    HW128321   2.557   3.394   3.899 -0.8757  0.0664 -0.3944
 9083SOL    HW228322   2.458   3.507   3.878 -1.0322 -0.3198 -1.8157
 9084SOL     OW28323   4.036   1.273   6.139 -0.2441  0.0735  0.5207
 9084SOL    HW128324   4.020   1.343   6.202  1.3069 -0.8372  1.9848
 9084SOL    HW228325   4.127   1.284   6.113  0.5514 -2.3165  2.0338
 9085SOL     OW28326   7.855   5.952   7.283 -0.3597 -0.3854 -0.0827
 9085SOL    HW128327   7.851   5.887   7.213  1.9943 -1.2198  0.4566
 9085SOL    HW228328   7.871   6.035   7.238 -1.0699 -0.5545 -0.6528
 9086SOL     OW28329   2.417   1.829   3.977 -0.2681  0.2447  0.6926
 9086SOL    HW128330   2.364   1.797   3.903 -1.1334  0.4270  1.2103
 9086SOL    HW228331   2.466   1.752   4.006  0.7457  0.3728 -0.6075
 9087SOL     OW28332   7.795   4.261   7.756  0.4975  0.0812 -0.0047
 9087SOL    HW128333   7.823   4.218   7.675  0.4150  3.4661 -2.0408
 9087SOL    HW228334   7.875   4.268   7.808  1.5218  1.2828 -1.6153
 9088SOL     OW28335   3.799   3.174   7.538  0.3067 -0.2878 -0.5937
 9088SOL    HW128336   3.846   3.255   7.553  2.1410 -1.4019 -0.0525
 9088SOL    HW228337   3.817   3.120   7.615  0.0431 -1.6303 -1.4234
 9089SOL     OW28338   0.371   8.068   3.025 -0.3280  0.5169  0.4917
 9089SOL    HW128339   0.442   8.062   3.089 -0.7632  0.1153  0.9509
 9089SOL    HW228340   0.294   8.034   3.071 -0.5924 -0.0457 -0.3304
 9090SOL     OW28341   0.933   2.610   4.816  0.0891 -0.0453 -0.5892
 9090SOL    HW128342   0.874   2.650   4.753 -0.3324 -0.1509 -0.2665
 9090SOL    HW228343   0.951   2.680   4.880 -2.7077 -1.0195  1.4437
 9091SOL     OW28344   8.118   5.115   1.117 -0.4017  0.4968  0.3825
 9091SOL    HW128345   8.034   5.159   1.124 -0.2034  1.1255 -0.9253
 9091SOL    HW228346   8.142   5.122   1.025  1.0361  0.2373  0.7046
 9092SOL     OW28347   4.279   6.908   1.460  0.6047 -0.3815 -0.2074
 9092SOL    HW128348   4.222   6.985   1.451  0.7875 -0.4008 -1.6074
 9092SOL    HW228349   4.364   6.936   1.426  1.0415 -0.8171  0.4949
 9093SOL     OW28350   2.447   2.628   4.089  0.0827 -0.0084 -0.0265
 9093SOL    HW128351   2.421   2.596   4.175 -0.1071  0.9171  0.2702
 9093SOL    HW228352   2.542   2.617   4.087  0.4546  2.3042  1.3298
 9094SOL     OW28353   1.070   3.340   7.783 -0.5096 -0.1411 -0.4087
 9094SOL    HW128354   1.001   3.399   7.754 -1.4441 -0.5853  0.8105
 9094SOL    HW228355   1.027   3.282   7.846  0.8293 -0.8516 -0.1086
 9095SOL     OW28356   2.255   0.463   2.831  0.3606 -0.0723  0.2392
 9095SOL    HW128357   2.316   0.404   2.786 -0.2665  0.6529 -1.6834
 9095SOL    HW228358   2.233   0.529   2.765 -0.2807  1.3436  1.7915
 9096SOL     OW28359   7.059   3.566   3.996  0.6822 -0.4335  0.8059
 9096SOL    HW128360   7.091   3.478   3.975 -0.0607 -0.6993  0.7254
 9096SOL    HW228361   7.058   3.568   4.092  1.1185 -0.3517  0.8097
 9097SOL     OW28362   1.693   7.467   4.469  0.4135  0.2409  0.5693
 9097SOL    HW128363   1.661   7.546   4.512 -0.4500  0.7896 -0.9892
 9097SOL    HW228364   1.624   7.403   4.483 -1.1217  1.1572 -2.0067
 9098SOL     OW28365   4.284   3.522   2.775 -0.7749 -0.1070  0.4507
 9098SOL    HW128366   4.336   3.471   2.837  1.1464  1.2310  0.0096
 9098SOL    HW228367   4.253   3.597   2.825 -0.8800 -0.0381  0.2841
 9099SOL     OW28368   1.047   1.890   2.250  0.0352 -0.2039  0.4208
 9099SOL    HW128369   0.955   1.917   2.252 -0.1151 -0.5832 -0.6604
 9099SOL    HW228370   1.093   1.959   2.299 -0.6073  0.9277 -0.5129
 9100SOL     OW28371   0.573   6.468   0.106  0.1401  0.4284 -0.2814
 9100SOL    HW128372   0.568   6.510   0.020 -1.1104  3.9776  1.3362
 9100SOL    HW228373   0.482   6.443   0.125  0.2425  0.5559  0.3857
 9101SOL     OW28374   2.189   2.423   2.366 -0.0748  0.3677  0.2529
 9101SOL    HW128375   2.149   2.361   2.426 -0.1292  0.3888  0.2381
 9101SOL    HW228376   2.123   2.491   2.353 -0.4178 -0.0996 -0.5425
 9102SOL     OW28377   0.013   3.861   6.735  0.4451 -0.1281  0.2043
 9102SOL    HW128378  -0.029   3.776   6.747 -0.0213  0.2930  1.7802
 9102SOL    HW228379   0.046   3.885   6.822  1.7467  0.7119 -0.4752
 9103SOL     OW28380   4.164   4.930   7.098  0.1490 -0.2729 -0.1946
 9103SOL    HW128381   4.207   4.904   7.180  0.6925  1.8460  0.2816
 9103SOL    HW228382   4.221   4.897   7.029  0.9115 -0.1761  0.3696
 9104SOL     OW28383   7.713   2.905   2.714 -0.3245 -0.9445  0.0176
 9104SOL    HW128384   7.759   2.983   2.745 -2.1481 -0.2473  1.1128
 9104SOL    HW228385   7.664   2.935   2.638 -0.1965 -1.2854 -0.1987
 9105SOL     OW28386   1.584   7.499   6.341  0.1087  0.3406  0.0098
 9105SOL    HW128387   1.647   7.544   6.397 -0.1928  0.3396  0.3559
 9105SOL    HW228388   1.499   7.535   6.367 -0.0707  0.0519 -0.1696
 9106SOL     OW28389   0.739   1.866   2.231  0.0623 -0.0755  0.2489
 9106SOL    HW128390   0.767   1.794   2.174  1.1322  0.5626 -0.0456
 9106SOL    HW228391   0.654   1.837   2.264  0.1941 -1.2125 -0.3331
 9107SOL     OW28392   2.183   1.828   6.446 -0.0121 -0.0133 -0.3441
 9107SOL    HW128393   2.214   1.911   6.482 -0.1598 -0.3951  0.7118
 9107SOL    HW228394   2.218   1.826   6.357  0.5678  0.8626 -0.1543
 9108SOL     OW28395   6.851   5.928   0.709 -0.2606  0.1493 -0.4754
 9108SOL    HW128396   6.759   5.948   0.725  0.2336  1.2662  1.3386
 9108SOL    HW228397   6.895   6.013   0.716  1.0515 -0.5413  0.0778
 9109SOL     OW28398   5.984   4.154   4.015  0.3466 -0.1090  0.4261
 9109SOL    HW128399   6.042   4.082   3.991  2.1562  1.3511  0.1824
 9109SOL    HW228400   6.003   4.170   4.108  0.5593  0.5490  0.2760
 9110SOL     OW28401   0.614   5.087   8.115  0.8269  0.2051 -0.1005
 9110SOL    HW128402   0.703   5.102   8.146  1.7843 -0.1121 -2.4970
 9110SOL    HW228403   0.560   5.089   8.195  3.1871 -1.5993  1.6860
 9111SOL     OW28404   7.201   3.796   2.528  0.3329  0.6331 -0.1560
 9111SOL    HW128405   7.293   3.773   2.542  0.0537 -0.6987 -0.3364
 9111SOL    HW228406   7.157   3.711   2.520 -0.8166  1.2652 -0.6704
 9112SOL     OW28407   7.729   6.417   3.114 -0.5209 -0.2510  0.5169
 9112SOL    HW128408   7.709   6.325   3.135 -0.2275 -0.4308  0.0338
 9112SOL    HW228409   7.820   6.415   3.086 -1.2000 -0.2173 -1.8493
 9113SOL     OW28410   0.163   3.027   5.763 -0.3263  0.4408  0.2538
 9113SOL    HW128411   0.188   2.939   5.792  0.3229  0.8710  1.0346
 9113SOL    HW228412   0.106   3.060   5.833  2.1840  1.9329  1.7115
 9114SOL     OW28413   2.962   1.429   2.427 -0.1993 -0.3127 -0.3426
 9114SOL    HW128414   2.981   1.511   2.473  1.2271 -0.1688 -1.1170
 9114SOL    HW228415   2.949   1.365   2.496  1.5926 -0.0311  0.3054
 9115SOL     OW28416   6.584   7.762   7.545  0.1394  0.2515  0.5604
 9115SOL    HW128417   6.612   7.717   7.625  0.5256 -0.6913 -0.0898
 9115SOL    HW228418   6.499   7.800   7.568 -0.3310 -1.0505  1.0491
 9116SOL     OW28419   0.865   3.472   8.151  0.2963  0.3687  0.3441
 9116SOL    HW128420   0.809   3.459   8.227 -0.5754  0.6390 -0.2274
 9116SOL    HW228421   0.916   3.551   8.171  2.7919 -1.5610  2.1852
 9117SOL     OW28422   6.279   2.326   3.358  0.1921 -0.1866 -0.3273
 9117SOL    HW128423   6.342   2.309   3.288  0.9634  3.0699 -0.5926
 9117SOL    HW228424   6.217   2.388   3.320 -0.7261 -0.1161  1.2083
 9118SOL     OW28425   1.755   2.638   4.656  0.5827  0.0579  0.0802
 9118SOL    HW128426   1.814   2.564   4.669  0.6042  0.0425 -0.1142
 9118SOL    HW228427   1.809   2.704   4.611  0.1089 -0.4043 -1.1847
 9119SOL     OW28428   3.868   0.501   5.245  0.0649 -0.0125 -0.3891
 9119SOL    HW128429   3.809   0.575   5.256  0.9369  0.6553 -0.0464
 9119SOL    HW228430   3.956   0.540   5.247  0.5478 -1.0732  0.0153
 9120SOL     OW28431   0.003   3.635   5.551 -0.2832 -0.6020  0.3617
 9120SOL    HW128432   0.085   3.586   5.555 -1.0611 -1.9847  0.0482
 9120SOL    HW228433  -0.036   3.625   5.637 -0.8457 -1.2719  0.0387
 9121SOL     OW28434   1.971   7.154   0.654  0.1508 -0.7040  0.1757
 9121SOL    HW128435   1.937   7.238   0.685 -1.0462 -0.4904 -1.5347
 9121SOL    HW228436   2.037   7.178   0.589 -0.3706 -1.0474 -0.5009
 9122SOL     OW28437   0.398   7.217   1.481  0.3905 -0.4159  0.1983
 9122SOL    HW128438   0.366   7.159   1.551 -0.4543 -0.4100 -0.1666
 9122SOL    HW228439   0.331   7.211   1.413  0.9395 -0.0047 -0.3879
 9123SOL     OW28440   6.728   5.833   2.927  0.4083 -0.3847  0.1479
 9123SOL    HW128441   6.717   5.922   2.894  0.7155  0.0016  1.0617
 9123SOL    HW228442   6.661   5.824   2.995 -2.4546 -2.2626 -2.5812
 9124SOL     OW28443   5.016   1.468   1.861 -0.3624  0.0868  0.0319
 9124SOL    HW128444   5.103   1.459   1.823 -0.8578 -0.3433 -1.0657
 9124SOL    HW228445   5.023   1.541   1.921  0.4754  0.7781 -0.8743
 9125SOL     OW28446   3.487   7.547   6.753  0.3706 -0.0121 -0.5565
 9125SOL    HW128447   3.514   7.592   6.833 -2.0623 -0.6650  0.7517
 9125SOL    HW228448   3.435   7.612   6.706 -0.0059 -0.2747 -0.5110
 9126SOL     OW28449   8.137   1.163   2.110 -0.1552 -0.0011 -0.1788
 9126SOL    HW128450   8.222   1.160   2.154 -0.8062  1.6625  1.3492
 9126SOL    HW228451   8.141   1.093   2.045  2.4864  0.2303 -0.3791
 9127SOL     OW28452   4.880   8.007   3.956 -0.3453  0.6264  0.4530
 9127SOL    HW128453   4.962   8.041   3.920  1.0476 -2.2189  0.6808
 9127SOL    HW228454   4.906   7.961   4.035 -2.1691 -0.3786  0.5213
 9128SOL     OW28455   5.615   2.522   7.437  0.1156 -0.1592 -0.3268
 9128SOL    HW128456   5.618   2.481   7.351 -1.6245 -0.3566 -0.3404
 9128SOL    HW228457   5.528   2.563   7.441 -0.4434 -1.4140  1.8730
 9129SOL     OW28458   0.240   5.174   3.353  0.3860  0.0980 -0.4395
 9129SOL    HW128459   0.178   5.196   3.283  2.3389 -1.2417 -2.7772
 9129SOL    HW228460   0.283   5.257   3.374  1.0181  0.2809 -2.2228
 9130SOL     OW28461   7.281   0.910   4.454  0.9823 -0.4736  0.1987
 9130SOL    HW128462   7.273   0.927   4.361  0.5848  0.0231  0.3223
 9130SOL    HW228463   7.351   0.970   4.483  1.1176 -0.6398  0.2191
 9131SOL     OW28464   4.106   5.867   5.398 -0.3352  0.5907  0.0889
 9131SOL    HW128465   4.060   5.806   5.456 -0.6270  0.4057 -0.3413
 9131SOL    HW228466   4.157   5.922   5.458 -0.5353  0.3151  0.5157
 9132SOL     OW28467   0.953   4.120   5.019  0.2472  0.6672 -0.2210
 9132SOL    HW128468   0.970   4.208   4.987 -0.3391  0.4155 -1.2896
 9132SOL    HW228469   0.985   4.120   5.109 -1.1154  2.4238  0.3194
 9133SOL     OW28470   3.348   0.843   1.369 -0.5953 -0.2239 -0.1058
 9133SOL    HW128471   3.397   0.875   1.294  1.2492  0.2776  1.2485
 9133SOL    HW228472   3.321   0.922   1.416 -0.4121 -0.5413  0.5520
 9134SOL     OW28473   7.543   3.611   0.706  0.1068  0.3375 -0.2352
 9134SOL    HW128474   7.536   3.515   0.712  1.5717  0.0402 -2.4130
 9134SOL    HW228475   7.590   3.636   0.786  0.6722 -0.8909 -0.1560
 9135SOL     OW28476   5.632   6.482   0.281 -0.7594 -0.3482  0.0561
 9135SOL    HW128477   5.594   6.436   0.207  2.0812 -0.3882 -1.4808
 9135SOL    HW228478   5.692   6.419   0.321 -0.1775  0.5735  0.6782
 9136SOL     OW28479   3.547   6.602   3.671  0.4327  0.5376  0.1541
 9136SOL    HW128480   3.636   6.588   3.641 -0.0408 -0.0932 -1.0048
 9136SOL    HW228481   3.494   6.605   3.591 -0.7088 -0.0871  0.8527
 9137SOL     OW28482   6.231   3.631   5.147 -0.3762  0.4871 -0.6116
 9137SOL    HW128483   6.277   3.683   5.213 -0.8761 -1.7646  1.6679
 9137SOL    HW228484   6.274   3.654   5.065  2.2468  1.3238  0.8755
 9138SOL     OW28485   7.150   5.495   3.484  0.8034  0.1697 -0.6581
 9138SOL    HW128486   7.114   5.496   3.573 -1.0360 -1.4399 -1.3049
 9138SOL    HW228487   7.079   5.527   3.428  1.4715 -0.0484 -1.6647
 9139SOL     OW28488   7.620   4.997   3.352  0.3025  0.0606 -0.3191
 9139SOL    HW128489   7.690   5.038   3.301 -1.2451 -0.5033 -3.0975
 9139SOL    HW228490   7.543   5.051   3.333 -1.1989 -2.4581 -1.9396
 9140SOL     OW28491   3.457   4.599   6.492 -0.6418 -0.3990  0.1095
 9140SOL    HW128492   3.464   4.505   6.475  2.6356  0.0622 -1.9179
 9140SOL    HW228493   3.446   4.639   6.405  0.2803  1.2059  0.6911
 9141SOL     OW28494   6.856   3.013   6.117  0.1219 -0.1367  0.5101
 9141SOL    HW128495   6.813   2.982   6.038  1.6441  0.6354 -0.6828
 9141SOL    HW228496   6.908   2.939   6.147 -2.4085 -1.2897  2.3300
 9142SOL     OW28497   4.766   0.564   7.066 -0.6010 -0.1149  0.1613
 9142SOL    HW128498   4.747   0.604   6.981  0.3464 -0.4739 -0.2433
 9142SOL    HW228499   4.682   0.559   7.110 -0.9670  0.9281 -0.3850
 9143SOL     OW28500   2.646   3.288   7.259 -0.6258  0.7570  0.1273
 9143SOL    HW128501   2.603   3.281   7.174  0.8080 -1.2870 -0.4896
 9143SOL    HW228502   2.610   3.216   7.310  0.8025  0.0555  0.1685
 9144SOL     OW28503   2.092   3.460   7.395 -0.6418 -0.0028 -0.1446
 9144SOL    HW128504   2.068   3.372   7.423 -1.0582 -0.1948 -1.0732
 9144SOL    HW228505   2.182   3.452   7.365 -1.1576 -0.4733 -1.6601
 9145SOL     OW28506   4.192   6.415   3.455 -0.4948  0.1680 -0.0749
 9145SOL    HW128507   4.256   6.345   3.472  1.1718  0.7750 -3.1422
 9145SOL    HW228508   4.108   6.377   3.482  0.1573 -3.5520 -2.5544
 9146SOL     OW28509   0.515   0.428   2.658 -0.7176  0.5626 -0.4502
 9146SOL    HW128510   0.492   0.494   2.722 -0.2118  0.7070 -0.4156
 9146SOL    HW228511   0.610   0.433   2.650 -0.4504 -1.2929  0.8080
 9147SOL     OW28512   1.006   1.041   0.348 -0.5798  0.1955 -0.1601
 9147SOL    HW128513   0.919   1.063   0.382 -1.1665  0.0567 -1.5052
 9147SOL    HW228514   1.027   0.956   0.388 -1.2821 -0.0065 -0.2114
 9148SOL     OW28515   0.128   0.173   1.306 -0.4004  0.4939 -0.6069
 9148SOL    HW128516   0.166   0.156   1.220 -0.2529 -1.4739 -0.2068
 9148SOL    HW228517   0.113   0.086   1.343  0.5744  1.2552  1.8061
 9149SOL     OW28518   2.546   0.349   5.607  0.5185  0.6416 -0.4134
 9149SOL    HW128519   2.639   0.371   5.596  0.4003  1.3189 -0.0677
 9149SOL    HW228520   2.500   0.411   5.550  0.3025 -0.0445 -1.0054
 9150SOL     OW28521   8.161   4.567   7.556 -0.3076  0.2658  0.3565
 9150SOL    HW128522   8.234   4.507   7.569  0.0896  0.8508  0.9033
 9150SOL    HW228523   8.130   4.587   7.645 -1.5690 -0.4911  0.1148
 9151SOL     OW28524   7.607   1.860   2.454  0.3769  0.0868  1.1760
 9151SOL    HW128525   7.558   1.841   2.534  0.6570 -0.4584  1.2251
 9151SOL    HW228526   7.696   1.831   2.474  0.0223 -2.0613 -0.0631
 9152SOL     OW28527   8.011   3.453   1.676  0.0650 -0.2435  0.0953
 9152SOL    HW128528   8.105   3.469   1.667  0.1944 -0.7867  0.3856
 9152SOL    HW228529   8.001   3.360   1.657 -0.3555 -0.2753  0.4497
 9153SOL     OW28530   3.441   3.872   3.228 -0.0029  0.2416 -0.0881
 9153SOL    HW128531   3.426   3.948   3.171  1.7343 -0.3054 -1.3771
 9153SOL    HW228532   3.378   3.882   3.299  1.1223  3.7373  0.6223
 9154SOL     OW28533   2.540   3.018   4.779  0.5074  0.0930 -0.6993
 9154SOL    HW128534   2.611   2.974   4.825  0.1181 -0.4834 -0.6462
 9154SOL    HW228535   2.466   3.016   4.840  0.4066  0.5806 -0.7997
 9155SOL     OW28536   1.457   3.154   6.469  0.6000  0.6380 -0.3210
 9155SOL    HW128537   1.412   3.170   6.552  2.7711  1.5347  0.7712
 9155SOL    HW228538   1.425   3.068   6.441 -1.1081  0.8658  0.7969
 9156SOL     OW28539   3.344   0.022   2.804  0.2815  0.0397  0.5298
 9156SOL    HW128540   3.314  -0.050   2.748 -0.3077 -0.4901  1.4968
 9156SOL    HW228541   3.333   0.100   2.749 -2.6648 -0.1366  0.6772
 9157SOL     OW28542   4.312   3.500   5.357  0.3238  0.0287  0.2740
 9157SOL    HW128543   4.325   3.567   5.290  2.3142 -0.6532 -0.0631
 9157SOL    HW228544   4.266   3.429   5.312 -1.1470  0.8114  0.4584
 9158SOL     OW28545   7.978   5.460   4.075  0.6532  0.8242 -0.4751
 9158SOL    HW128546   7.893   5.420   4.090  0.7597  0.3198 -1.1923
 9158SOL    HW228547   8.005   5.492   4.161  0.9990 -1.4899  0.3562
 9159SOL     OW28548   7.445   2.740   0.177 -0.3561 -0.3428  0.5111
 9159SOL    HW128549   7.431   2.834   0.170 -1.4925 -0.3750  1.8246
 9159SOL    HW228550   7.504   2.730   0.252  1.1106 -0.6127 -0.6348
 9160SOL     OW28551   4.898   6.578   5.196 -0.6754  0.8081  0.1748
 9160SOL    HW128552   4.941   6.561   5.279  1.0350 -0.3171 -0.8663
 9160SOL    HW228553   4.885   6.492   5.157  0.7285  1.3845 -1.7234
 9161SOL     OW28554   3.799   2.154   4.474  0.0530  0.2656 -0.1463
 9161SOL    HW128555   3.738   2.100   4.423  1.2738 -1.8448  0.5287
 9161SOL    HW228556   3.886   2.125   4.447  0.7393  0.7814  1.3839
 9162SOL     OW28557   4.332   4.884   6.670  0.1555  0.0006  0.2694
 9162SOL    HW128558   4.313   4.799   6.630  1.1272  0.4499 -1.2049
 9162SOL    HW228559   4.360   4.939   6.598  0.0308  1.4495  1.2859
 9163SOL     OW28560   7.488   7.340   5.194 -0.4980  0.1541 -0.5218
 9163SOL    HW128561   7.455   7.429   5.186 -0.9538  0.0175 -0.2187
 9163SOL    HW228562   7.533   7.323   5.111 -0.6074  0.5813 -0.6704
 9164SOL     OW28563   2.356   6.156   3.549 -0.0035  0.7754  0.3029
 9164SOL    HW128564   2.275   6.181   3.503 -0.9295 -0.8766  0.9299
 9164SOL    HW228565   2.426   6.172   3.486 -1.0874 -0.0646 -1.1649
 9165SOL     OW28566   5.404   2.738   4.995  0.0501  0.1896 -0.1128
 9165SOL    HW128567   5.331   2.736   4.933 -0.4035 -0.8436  0.4261
 9165SOL    HW228568   5.441   2.826   4.987  0.8102 -0.2805 -2.7796
 9166SOL     OW28569   4.983   0.467   0.822  0.4010  0.3524 -0.0292
 9166SOL    HW128570   5.023   0.392   0.777 -0.5129 -0.6158  0.7226
 9166SOL    HW228571   4.906   0.431   0.865 -1.7968  2.3085 -2.0782
 9167SOL     OW28572   2.407   7.432   3.575  0.3596  0.2286  0.1821
 9167SOL    HW128573   2.430   7.502   3.513 -4.0661 -0.4759 -2.7742
 9167SOL    HW228574   2.485   7.377   3.580  1.4970  1.1337 -3.7655
 9168SOL     OW28575   0.543   6.967   6.388 -0.0719  0.2284  0.1237
 9168SOL    HW128576   0.550   7.054   6.428 -1.1530  1.2992 -1.8429
 9168SOL    HW228577   0.453   6.940   6.406  0.1527 -0.3249  0.4233
 9169SOL     OW28578   0.642   3.066   6.191 -0.1886 -0.5611  0.6058
 9169SOL    HW128579   0.670   3.006   6.122  0.7224  1.3572 -0.8192
 9169SOL    HW228580   0.724   3.095   6.232 -0.5380  0.2703  0.7338
 9170SOL     OW28581   5.369   0.878   3.746 -0.2804  0.0297  0.2171
 9170SOL    HW128582   5.419   0.927   3.680  2.0464 -2.0712  0.2702
 9170SOL    HW228583   5.341   0.945   3.809  0.0938  1.6811 -1.2663
 9171SOL     OW28584   0.585   6.330   4.392  0.2130  0.0732  0.0378
 9171SOL    HW128585   0.652   6.262   4.385  1.7769  1.7018 -2.6560
 9171SOL    HW228586   0.589   6.359   4.483  2.6165 -0.4559  0.1661
 9172SOL     OW28587   5.769   5.732   5.313  0.4118 -0.6301  0.2103
 9172SOL    HW128588   5.797   5.823   5.324 -0.3672 -0.6419  3.2606
 9172SOL    HW228589   5.700   5.736   5.247  1.5903  0.6855 -0.9995
 9173SOL     OW28590   4.317   1.059   2.352 -0.5060  0.3028  0.0842
 9173SOL    HW128591   4.272   1.140   2.378 -2.8068 -0.5071 -1.0095
 9173SOL    HW228592   4.288   0.994   2.416 -1.2732 -0.3169 -0.8592
 9174SOL     OW28593   4.753   2.425   2.310  0.1412 -0.1828 -0.7181
 9174SOL    HW128594   4.819   2.470   2.257 -0.2281  0.4630 -0.6483
 9174SOL    HW228595   4.707   2.496   2.356  0.9037 -0.7420  1.0152
 9175SOL     OW28596   5.532   2.194   6.274 -0.7026 -0.4238  0.1366
 9175SOL    HW128597   5.494   2.271   6.232  0.5223  0.2084  0.1476
 9175SOL    HW228598   5.473   2.175   6.346 -1.5882 -0.1353 -0.4956
 9176SOL     OW28599   6.537   6.011   7.653  0.2510 -0.1501  0.5521
 9176SOL    HW128600   6.516   5.933   7.601  0.3412  0.3775 -0.2905
 9176SOL    HW228601   6.481   6.003   7.730 -1.0637 -0.1652 -0.3580
 9177SOL     OW28602   4.511   1.660   1.623 -0.0280 -0.1008  0.4928
 9177SOL    HW128603   4.573   1.626   1.688  1.0452 -0.8272 -0.8574
 9177SOL    HW228604   4.432   1.606   1.636  0.2839 -0.4581  0.9686
 9178SOL     OW28605   5.189   0.851   4.659  0.0691 -0.2515  0.2372
 9178SOL    HW128606   5.225   0.939   4.652 -0.1684 -0.0528  1.3342
 9178SOL    HW228607   5.099   0.859   4.628 -0.2731  0.1182  1.3075
 9179SOL     OW28608   1.520   5.826   6.107 -0.2024 -0.1297 -0.2615
 9179SOL    HW128609   1.467   5.749   6.129 -1.5501  0.6705 -0.6050
 9179SOL    HW228610   1.525   5.876   6.189  1.4016 -0.9554  0.1962
 9180SOL     OW28611   8.089   7.573   5.279  1.1564 -0.3960  0.0558
 9180SOL    HW128612   8.065   7.665   5.272 -1.5665 -1.0169  0.3722
 9180SOL    HW228613   8.154   7.560   5.210  0.1559  1.3093 -1.2739
 9181SOL     OW28614   0.903   3.108   0.554  0.3029 -0.2695 -0.5788
 9181SOL    HW128615   0.893   3.046   0.627  2.7599  0.5248  0.5253
 9181SOL    HW228616   0.960   3.063   0.492  0.3631  0.0737 -0.7740
 9182SOL     OW28617   2.109   0.873   2.088  0.2265 -0.1786 -0.3349
 9182SOL    HW128618   2.165   0.950   2.085  0.1791 -0.0731  1.0232
 9182SOL    HW228619   2.057   0.878   2.007  2.1549 -0.3076 -1.6380
 9183SOL     OW28620   4.913   2.926   4.852 -0.0680 -0.2663 -0.0328
 9183SOL    HW128621   4.891   2.957   4.940  2.6880 -1.0312  1.0122
 9183SOL    HW228622   4.878   2.837   4.850  0.6471 -0.5714  0.6431
 9184SOL     OW28623   0.373   0.177   2.208 -0.2644 -0.3824  0.0117
 9184SOL    HW128624   0.348   0.155   2.118 -0.6474 -0.7543  0.2060
 9184SOL    HW228625   0.324   0.257   2.227 -0.5723 -0.5799  0.0591
 9185SOL     OW28626   1.187   8.096   5.539  0.0374  0.2047 -0.2481
 9185SOL    HW128627   1.163   8.100   5.631  0.8401 -2.3468  0.1607
 9185SOL    HW228628   1.273   8.055   5.538  0.3606  0.8167 -2.1125
 9186SOL     OW28629   4.400   4.979   1.374  0.6156 -0.4933 -0.4783
 9186SOL    HW128630   4.347   4.928   1.314  0.8712 -0.3521 -0.8301
 9186SOL    HW228631   4.393   4.933   1.458 -2.6888  1.2582  0.3732
 9187SOL     OW28632   7.437   7.332   5.649  0.0208  0.1119 -0.0724
 9187SOL    HW128633   7.477   7.256   5.692  0.3178 -0.4368 -1.2817
 9187SOL    HW228634   7.353   7.343   5.692  1.7164  1.8368  3.1855
 9188SOL     OW28635   2.639   0.233   5.866  0.4182 -0.4018  0.0219
 9188SOL    HW128636   2.562   0.265   5.912  0.4463  0.6341 -0.6313
 9188SOL    HW228637   2.616   0.237   5.773  1.3845  0.2853 -0.2062
 9189SOL     OW28638   1.070   6.599   0.395 -0.3325 -0.5614 -0.4213
 9189SOL    HW128639   1.163   6.594   0.416  0.3319  2.0077 -2.2288
 9189SOL    HW228640   1.068   6.626   0.304 -2.8437  0.7392 -0.0561
 9190SOL     OW28641   6.726   1.230   6.672 -0.1889 -0.1157 -0.1142
 9190SOL    HW128642   6.819   1.212   6.665  0.2005  0.5071  2.3564
 9190SOL    HW228643   6.721   1.313   6.720 -2.0088 -0.5217  0.4826
 9191SOL     OW28644   6.404   3.352   7.589  0.0226 -0.2260  0.1930
 9191SOL    HW128645   6.439   3.441   7.582 -0.4267 -0.0249  0.4944
 9191SOL    HW228646   6.411   3.317   7.500 -2.0607  0.9668 -0.5056
 9192SOL     OW28647   1.403   4.854   2.197 -0.1481  0.0399 -0.4234
 9192SOL    HW128648   1.485   4.874   2.241 -0.3052 -0.3536  0.0530
 9192SOL    HW228649   1.351   4.807   2.263 -1.0375  0.9210 -0.4721
 9193SOL     OW28650   1.756   3.536   7.626 -0.2425 -0.2853 -0.2104
 9193SOL    HW128651   1.851   3.550   7.620 -0.3590  1.1701  1.0158
 9193SOL    HW228652   1.741   3.457   7.574  1.6458 -0.5696 -0.3988
 9194SOL     OW28653   5.789   1.711   6.813 -0.4769  0.5076 -0.2571
 9194SOL    HW128654   5.787   1.708   6.718 -2.7754 -0.2493 -0.2522
 9194SOL    HW228655   5.761   1.624   6.840  0.0300  0.7472  1.1113
 9195SOL     OW28656   0.304   2.432   2.064  0.1331  0.2398 -0.3119
 9195SOL    HW128657   0.300   2.360   2.127 -0.0866  1.6117  1.3232
 9195SOL    HW228658   0.287   2.511   2.116 -0.6960  1.3997 -2.2053
 9196SOL     OW28659   1.534   5.820   7.728 -0.0848  0.0657  0.0419
 9196SOL    HW128660   1.620   5.794   7.694  0.8338  1.0472  1.5061
 9196SOL    HW228661   1.472   5.784   7.664  1.4035 -0.4354 -1.2101
 9197SOL     OW28662   5.221   2.012   6.635  0.3419  0.0907 -0.1215
 9197SOL    HW128663   5.216   1.942   6.570  2.6914  0.3991 -0.7223
 9197SOL    HW228664   5.146   2.068   6.617  0.5316 -0.2542 -2.1150
 9198SOL     OW28665   0.057   1.039   4.613 -0.2434 -0.1088 -0.0194
 9198SOL    HW128666  -0.012   0.972   4.612 -1.1390  0.7269  1.9814
 9198SOL    HW228667   0.094   1.036   4.524 -2.2291 -1.2120 -0.8665
 9199SOL     OW28668   3.424   4.196   4.898  0.0190  0.0860  0.1349
 9199SOL    HW128669   3.366   4.184   4.974 -0.5512  1.3550 -0.0686
 9199SOL    HW228670   3.452   4.287   4.903 -1.2209  0.6616 -1.9554
 9200SOL     OW28671   5.846   4.736   3.368 -0.3068 -0.4833 -0.2494
 9200SOL    HW128672   5.872   4.822   3.333  0.4964 -1.1699 -1.4057
 9200SOL    HW228673   5.809   4.690   3.293 -2.1317 -0.6441  0.6875
 9201SOL     OW28674   0.967   3.462   0.739  0.4537  0.0481  0.2479
 9201SOL    HW128675   0.982   3.522   0.812  0.3287 -1.6708  1.7434
 9201SOL    HW228676   0.872   3.452   0.734  0.5221 -1.1526  0.9962
 9202SOL     OW28677   8.014   5.479   0.838 -0.4481 -0.6458 -0.5431
 9202SOL    HW128678   7.991   5.481   0.931 -1.3734 -0.9584 -0.7621
 9202SOL    HW228679   8.020   5.572   0.814 -1.0694 -0.5581 -0.3794
 9203SOL     OW28680   4.219   4.382   1.361  0.2257  0.2662 -0.4330
 9203SOL    HW128681   4.124   4.371   1.357  0.2563  0.2097 -1.1530
 9203SOL    HW228682   4.250   4.301   1.401  0.0841 -0.4363 -1.6700
 9204SOL     OW28683   1.672   1.846   1.930 -0.4444 -0.6121  0.4071
 9204SOL    HW128684   1.676   1.865   1.836  1.1239 -1.3987  0.2862
 9204SOL    HW228685   1.701   1.926   1.972  1.3261 -1.0427  0.0889
 9205SOL     OW28686   2.649   7.760   5.008  0.1535 -0.5498  0.8062
 9205SOL    HW128687   2.689   7.809   5.080 -0.5223  0.3650  0.5703
 9205SOL    HW228688   2.559   7.746   5.036 -0.4686  0.8593 -0.3377
 9206SOL     OW28689   4.964   3.430   5.623  0.4958  0.4956  0.9276
 9206SOL    HW128690   4.947   3.350   5.673  0.8418  0.2679  0.6786
 9206SOL    HW228691   4.945   3.500   5.685  0.7121  0.2175  1.3142
 9207SOL     OW28692   6.541   1.693   3.047 -0.3691 -0.0210  0.7622
 9207SOL    HW128693   6.546   1.613   2.996  0.9949 -0.8153  2.0599
 9207SOL    HW228694   6.449   1.700   3.072 -0.7021 -0.5848 -0.2341
 9208SOL     OW28695   7.840   2.059   7.843  0.8154  0.1295  0.3336
 9208SOL    HW128696   7.774   2.009   7.796  0.5166  1.6596 -0.9232
 9208SOL    HW228697   7.799   2.080   7.927 -0.6515  1.7237 -0.7227
 9209SOL     OW28698   3.521   0.868   5.426  0.1467 -0.3483  0.1935
 9209SOL    HW128699   3.447   0.867   5.487 -0.3744 -0.3046 -0.4258
 9209SOL    HW228700   3.483   0.900   5.343  0.8970 -0.1478 -0.0765
 9210SOL     OW28701   5.273   8.099   4.735  0.4166  0.4558 -0.1767
 9210SOL    HW128702   5.201   8.124   4.677  0.8800  2.1577 -0.0873
 9210SOL    HW228703   5.232   8.044   4.802 -0.4526 -0.0540 -1.0933
 9211SOL     OW28704   5.199   5.288   1.285 -0.2845 -0.6332 -0.1721
 9211SOL    HW128705   5.282   5.288   1.237 -1.1486  0.2504 -1.7484
 9211SOL    HW228706   5.133   5.268   1.219 -1.5946  1.1833  0.4888
 9212SOL     OW28707   2.917   4.979   0.409  0.0870 -0.2319 -0.4720
 9212SOL    HW128708   2.965   5.010   0.332  1.4171 -0.1235  0.3695
 9212SOL    HW228709   2.861   5.053   0.433 -0.9052 -0.5415 -1.7637
 9213SOL     OW28710   2.704   0.665   2.909  0.5322 -0.6637 -0.7380
 9213SOL    HW128711   2.696   0.643   3.002 -0.0196 -2.3993 -1.1488
 9213SOL    HW228712   2.628   0.720   2.891  1.6494  1.2909  0.2156
 9214SOL     OW28713   1.903   3.419   1.703  0.6881 -0.0673  0.5218
 9214SOL    HW128714   1.936   3.467   1.628  1.2585 -0.7132  0.3531
 9214SOL    HW228715   1.973   3.427   1.769 -0.3039  1.5333  1.4572
 9215SOL     OW28716   4.200   7.328   4.871  0.6177 -0.7336  0.9259
 9215SOL    HW128717   4.189   7.414   4.911  2.0167  0.1028 -0.3920
 9215SOL    HW228718   4.294   7.321   4.855  0.1845 -1.0830 -1.9546
 9216SOL     OW28719   0.425   2.075   0.733 -0.5682  0.4239  0.1766
 9216SOL    HW128720   0.420   2.128   0.812  0.1680  2.0650 -0.8362
 9216SOL    HW228721   0.358   2.007   0.746  1.1581 -0.8828  3.2578
 9217SOL     OW28722   4.979   1.189   5.425  0.2675  0.0498  0.3929
 9217SOL    HW128723   4.945   1.185   5.335 -0.5197  0.6683  0.6522
 9217SOL    HW228724   5.041   1.261   5.424  0.7164 -0.3319  0.2055
 9218SOL     OW28725   2.125   4.774   2.617  0.1791 -0.4475  0.4293
 9218SOL    HW128726   2.035   4.802   2.601 -0.0191 -1.2376  0.1130
 9218SOL    HW228727   2.170   4.788   2.534  0.0061 -1.3294  0.1832
 9219SOL     OW28728   1.838   1.774   4.954 -0.5264 -0.1073  0.1870
 9219SOL    HW128729   1.846   1.712   4.882 -1.2861  1.8593 -1.6701
 9219SOL    HW228730   1.928   1.791   4.981 -0.1180  0.4352 -1.4672
 9220SOL     OW28731   5.688   2.237   4.383 -0.4835 -0.0213 -0.1908
 9220SOL    HW128732   5.722   2.237   4.293  0.0968 -1.0794  0.0178
 9220SOL    HW228733   5.691   2.329   4.409 -0.9628  0.3551 -1.3539
 9221SOL     OW28734   1.397   1.218   1.548 -0.1056 -0.2065 -0.3552
 9221SOL    HW128735   1.317   1.166   1.545 -0.5233  0.3592  0.8149
 9221SOL    HW228736   1.466   1.156   1.522 -1.0017 -0.4517 -2.3207
 9222SOL     OW28737   7.866   4.784   3.878 -0.0074  0.2073  0.0154
 9222SOL    HW128738   7.851   4.760   3.786 -1.9878  0.6638  0.1746
 9222SOL    HW228739   7.830   4.710   3.928  0.2413  0.3655  0.4289
 9223SOL     OW28740   4.871   3.241   0.955 -0.0369  0.5617 -0.1190
 9223SOL    HW128741   4.855   3.161   0.905 -1.4235 -0.3431  1.6806
 9223SOL    HW228742   4.967   3.247   0.959  0.1159 -1.4012  0.2794
 9224SOL     OW28743   0.106   0.645   3.060  0.3952 -0.6461 -0.2004
 9224SOL    HW128744   0.189   0.690   3.072 -0.4617  1.0795 -0.4914
 9224SOL    HW228745   0.059   0.656   3.142  0.4735 -1.7151  0.0074
 9225SOL     OW28746   6.211   6.271   0.636 -0.8762 -0.1023 -0.4794
 9225SOL    HW128747   6.277   6.244   0.572 -0.8407 -0.9551 -0.1003
 9225SOL    HW228748   6.131   6.226   0.609 -0.4520 -1.8632  1.0307
 9226SOL     OW28749   3.644   7.568   4.164  0.1560  0.2937 -0.0482
 9226SOL    HW128750   3.642   7.486   4.116  1.5998  0.7381 -0.9221
 9226SOL    HW228751   3.627   7.544   4.255 -0.3220 -0.8378 -0.4242
 9227SOL     OW28752   0.384   4.807   0.453  0.3910 -0.5284  0.1384
 9227SOL    HW128753   0.312   4.785   0.394  0.6953  0.0986 -0.4778
 9227SOL    HW228754   0.347   4.796   0.541  0.0012 -1.6924 -0.1555
 9228SOL     OW28755   6.203   7.789   4.272  0.1345  0.0004  0.4566
 9228SOL    HW128756   6.107   7.795   4.276  0.2162  1.7763  0.2797
 9228SOL    HW228757   6.221   7.754   4.185 -0.3329  0.8836 -0.0120
 9229SOL     OW28758   4.072   6.387   2.883 -0.1568  0.0394 -0.2950
 9229SOL    HW128759   4.125   6.328   2.937  0.2940 -1.7169 -2.5325
 9229SOL    HW228760   4.105   6.474   2.904  0.7601 -0.6586  1.4051
 9230SOL     OW28761   6.293   2.990   5.124  0.4973  0.4961  0.2373
 9230SOL    HW128762   6.344   2.910   5.135 -1.0798 -0.3173  2.1440
 9230SOL    HW228763   6.359   3.060   5.121  1.9080 -0.8286 -1.7779
 9231SOL     OW28764   3.044   1.625   4.412 -0.6170 -0.0669 -0.0091
 9231SOL    HW128765   3.119   1.669   4.370 -0.5117  1.2828  1.4862
 9231SOL    HW228766   2.970   1.683   4.394 -1.2947 -1.2508 -1.2251
 9232SOL     OW28767   6.140   6.863   5.166 -0.0770  0.3797  0.0319
 9232SOL    HW128768   6.080   6.855   5.092 -0.7200  0.6325  0.5183
 9232SOL    HW228769   6.083   6.876   5.242  0.5454 -0.4900  0.6654
 9233SOL     OW28770   3.092   6.303   6.022 -0.9036 -0.5579  0.2063
 9233SOL    HW128771   3.072   6.215   5.989 -0.6508 -0.6634  0.3347
 9233SOL    HW228772   3.016   6.356   5.996 -1.0280 -0.7993  0.0745
 9234SOL     OW28773   2.302   3.212   2.763  0.6966 -0.0711  0.2485
 9234SOL    HW128774   2.364   3.280   2.738  0.5113  0.1126  0.2904
 9234SOL    HW228775   2.217   3.256   2.766  0.7809  0.0501  1.7404
 9235SOL     OW28776   7.284   5.422   0.337  0.1586  0.0796  0.2498
 9235SOL    HW128777   7.300   5.405   0.244 -1.6327 -1.1513  0.1295
 9235SOL    HW228778   7.279   5.517   0.343  3.1457  0.3871 -0.3539
 9236SOL     OW28779   2.313   4.997   1.740  0.1166  0.3003  0.2300
 9236SOL    HW128780   2.317   4.997   1.836  0.1486  3.3105  0.3174
 9236SOL    HW228781   2.347   5.082   1.714 -1.1273  0.1061 -2.4235
 9237SOL     OW28782   1.106   1.725   6.271  0.5782 -0.6723  0.3987
 9237SOL    HW128783   1.091   1.762   6.358  0.5338  1.1543 -0.3472
 9237SOL    HW228784   1.082   1.795   6.210  3.3402 -0.8166 -1.0318
 9238SOL     OW28785   4.302   5.748   5.661  0.1648  0.4915  1.0200
 9238SOL    HW128786   4.260   5.702   5.733 -0.4135  1.5856  1.4088
 9238SOL    HW228787   4.240   5.817   5.637  0.0525 -0.2300 -0.9654
 9239SOL     OW28788   6.182   6.586   5.023  0.0592 -0.2332 -0.1323
 9239SOL    HW128789   6.142   6.592   4.936 -0.4053 -1.2677  0.0038
 9239SOL    HW228790   6.260   6.532   5.011 -0.8019 -1.6210  0.3497
 9240SOL     OW28791   0.506   2.231   3.312  0.5638 -0.2730 -0.4013
 9240SOL    HW128792   0.499   2.181   3.393  0.3768  1.0132  0.3992
 9240SOL    HW228793   0.463   2.314   3.331  3.8846  1.6264 -0.5220
 9241SOL     OW28794   2.454   1.178   5.146 -0.4739  0.1266 -0.2621
 9241SOL    HW128795   2.478   1.152   5.235 -2.7979 -1.0296  0.1074
 9241SOL    HW228796   2.361   1.153   5.138 -0.2748 -0.0331 -3.0859
 9242SOL     OW28797   6.534   6.581   3.897  0.0901  0.0856 -0.5789
 9242SOL    HW128798   6.498   6.665   3.926 -2.2660 -0.8169 -0.6713
 9242SOL    HW228799   6.587   6.551   3.971 -2.1146 -0.0712  1.0293
 9243SOL     OW28800   3.387   0.902   8.000 -0.2198  0.3620 -0.3177
 9243SOL    HW128801   3.453   0.855   8.050  0.6349  1.2545 -0.5566
 9243SOL    HW228802   3.330   0.941   8.066 -0.6242 -0.5516 -0.1121
 9244SOL     OW28803   4.660   7.695   7.231  0.4811  0.1453  0.3051
 9244SOL    HW128804   4.709   7.640   7.292  1.2165  1.2504  0.7463
 9244SOL    HW228805   4.576   7.710   7.273  0.1595 -0.8668  0.0468
 9245SOL     OW28806   0.148   5.140   6.699  0.1370 -0.4995 -0.1844
 9245SOL    HW128807   0.156   5.067   6.760  3.8781  0.6420  0.9096
 9245SOL    HW228808   0.169   5.103   6.614  1.8435 -0.7863  0.3350
 9246SOL     OW28809   1.527   7.630   2.613 -0.3173  0.0151  0.7222
 9246SOL    HW128810   1.614   7.598   2.639  0.2570  0.3998 -0.5945
 9246SOL    HW228811   1.466   7.565   2.647  0.6030 -0.9293  0.6217
 9247SOL     OW28812   6.786   5.387   1.632 -0.0775 -0.4261 -0.1535
 9247SOL    HW128813   6.770   5.295   1.609  2.1334 -1.2650  1.3108
 9247SOL    HW228814   6.736   5.400   1.712  0.1788 -0.5967  0.0378
 9248SOL     OW28815   4.037   0.793   2.162  1.1046 -0.1331  0.1934
 9248SOL    HW128816   4.061   0.713   2.115 -0.3452  0.1452 -1.1294
 9248SOL    HW228817   4.085   0.863   2.118  0.9765 -0.0609  0.1668
 9249SOL     OW28818   7.095   5.346   0.565  0.3681 -0.1952 -0.6668
 9249SOL    HW128819   7.093   5.256   0.595 -0.7581  0.0172 -0.0660
 9249SOL    HW228820   7.186   5.362   0.543  0.5550 -1.5240 -0.9259
 9250SOL     OW28821   0.447   6.008   8.142 -0.1131 -0.5133 -0.2510
 9250SOL    HW128822   0.464   6.101   8.126  1.0286 -0.5229  0.7670
 9250SOL    HW228823   0.423   6.004   8.234 -1.2336 -1.1080 -0.5578
 9251SOL     OW28824   2.863   2.783   1.414  0.1780  0.1119 -0.1751
 9251SOL    HW128825   2.830   2.710   1.466  0.9793  0.5942  1.0476
 9251SOL    HW228826   2.957   2.786   1.434  0.3638  0.7518 -1.1079
 9252SOL     OW28827   3.758   4.585   0.994 -0.0469  0.6940  0.0574
 9252SOL    HW128828   3.728   4.603   1.084 -0.7469  1.2022 -0.2683
 9252SOL    HW228829   3.749   4.669   0.949 -0.6339  0.2083 -0.7535
 9253SOL     OW28830   1.355   7.748   4.360  0.1979  0.2404 -0.2610
 9253SOL    HW128831   1.292   7.753   4.432 -0.0736  1.4107 -0.5700
 9253SOL    HW228832   1.356   7.836   4.323  1.8820  0.1816 -0.3869
 9254SOL     OW28833   0.217   3.191   2.358 -0.1706  0.0104  0.7094
 9254SOL    HW128834   0.306   3.165   2.383 -0.3041 -1.1060  0.1168
 9254SOL    HW228835   0.229   3.268   2.304  0.3606  0.4570  1.4409
 9255SOL     OW28836   1.733   7.108   3.871 -0.7461 -0.1734  0.1543
 9255SOL    HW128837   1.795   7.159   3.818 -0.5741  0.8122  1.2721
 9255SOL    HW228838   1.750   7.018   3.846  0.3967  0.1563 -0.3638
 9256SOL     OW28839   6.628   1.285   7.125  0.3806  1.0551  0.3796
 9256SOL    HW128840   6.717   1.321   7.126  0.6260  0.4933 -0.4022
 9256SOL    HW228841   6.612   1.258   7.215  1.6053 -0.2645  0.2434
 9257SOL     OW28842   6.342   0.466   7.371  0.4592  0.2664  0.0770
 9257SOL    HW128843   6.261   0.473   7.422 -0.4542  1.4918 -1.4633
 9257SOL    HW228844   6.337   0.380   7.329 -1.4110  1.3527 -2.1212
 9258SOL     OW28845   5.616   1.196   1.073  0.4495 -1.2157 -0.5259
 9258SOL    HW128846   5.538   1.150   1.104 -0.0047 -0.4640 -0.5274
 9258SOL    HW228847   5.603   1.204   0.979  0.5408 -1.1187 -0.5305
 9259SOL     OW28848   2.782   5.140   3.591  0.2505 -0.3442  0.1255
 9259SOL    HW128849   2.829   5.097   3.663  0.6373  0.3976  0.3291
 9259SOL    HW228850   2.830   5.221   3.576 -0.7842  0.2924  0.1369
 9260SOL     OW28851   4.715   0.551   5.777 -0.0721  0.1343 -0.8226
 9260SOL    HW128852   4.701   0.483   5.711  1.5058  1.1070 -2.2541
 9260SOL    HW228853   4.676   0.630   5.739 -0.5101  0.3911  0.1207
 9261SOL     OW28854   0.807   3.314   7.245 -0.2377 -0.0125 -0.3050
 9261SOL    HW128855   0.727   3.314   7.193 -0.1264 -2.0187 -0.5925
 9261SOL    HW228856   0.876   3.292   7.183  0.0251 -1.5811  0.4790
 9262SOL     OW28857   3.586   1.958   5.489  0.4050 -0.1535  0.0547
 9262SOL    HW128858   3.563   1.878   5.443 -0.7150  0.0269  0.2684
 9262SOL    HW228859   3.515   2.018   5.469  1.2264  0.7960 -0.0950
 9263SOL     OW28860   3.941   2.178   2.935  0.3655  1.0691  0.4414
 9263SOL    HW128861   3.911   2.122   3.007 -0.5214  0.8748 -0.0557
 9263SOL    HW228862   3.862   2.227   2.909  0.5103  0.6809 -0.7898
 9264SOL     OW28863   0.067   5.810   7.353  0.0118 -0.7060 -0.1601
 9264SOL    HW128864   0.134   5.845   7.412 -0.1514 -2.4569  1.1153
 9264SOL    HW228865  -0.016   5.824   7.400 -0.1067 -2.2152  0.1082
 9265SOL     OW28866   0.397   7.352   4.643  0.4141  0.4316  0.1289
 9265SOL    HW128867   0.363   7.348   4.733  0.8223  2.2022  0.4083
 9265SOL    HW228868   0.452   7.431   4.642  0.7386  0.2194 -1.5715
 9266SOL     OW28869   7.412   0.615   3.399  0.3033 -0.4958 -0.1383
 9266SOL    HW128870   7.353   0.540   3.404 -0.5115  0.1774  0.3673
 9266SOL    HW228871   7.448   0.624   3.487 -1.4363  1.1638  0.4570
 9267SOL     OW28872   4.519   7.477   2.190  0.1464  0.4702 -0.3027
 9267SOL    HW128873   4.505   7.386   2.165 -0.6802 -0.3538  2.7135
 9267SOL    HW228874   4.578   7.473   2.264 -1.7615  2.1205  1.4562
 9268SOL     OW28875   8.141   7.781   1.681 -0.0052  0.3164  0.2177
 9268SOL    HW128876   8.197   7.735   1.743  0.2363  2.0491  1.3749
 9268SOL    HW228877   8.065   7.724   1.671  0.2391 -0.3232  1.6286
 9269SOL     OW28878   6.363   3.114   4.173 -0.1312  0.0365  0.0857
 9269SOL    HW128879   6.296   3.181   4.181  0.1963  0.4544 -0.6503
 9269SOL    HW228880   6.321   3.035   4.207 -0.6397  0.5215  0.6157
 9270SOL     OW28881   2.053   6.607   3.578  0.3447  0.6986 -0.3913
 9270SOL    HW128882   2.060   6.541   3.646  1.8749 -0.2979 -1.4577
 9270SOL    HW228883   1.960   6.606   3.554  0.3757 -1.4239 -0.6686
 9271SOL     OW28884   7.062   7.193   3.669 -0.3674 -0.6259 -0.0859
 9271SOL    HW128885   6.991   7.152   3.718  1.0024 -1.9871  0.8449
 9271SOL    HW228886   7.106   7.250   3.733 -0.4893  0.0612 -0.6015
 9272SOL     OW28887   6.219   4.814   6.961  1.1758  0.7971 -0.2416
 9272SOL    HW128888   6.232   4.725   6.928  0.7059  0.4282  0.5302
 9272SOL    HW228889   6.124   4.820   6.976  1.1276  1.6315 -0.8473
 9273SOL     OW28890   4.097   7.060   6.904  0.2327 -0.9262 -0.2040
 9273SOL    HW128891   4.045   7.017   6.835  1.4227 -0.3580 -1.5097
 9273SOL    HW228892   4.095   7.153   6.881 -1.6873 -0.2804  2.1669
 9274SOL     OW28893   6.791   4.749   5.136  0.8090 -0.6764 -0.1558
 9274SOL    HW128894   6.789   4.783   5.047 -1.8049 -2.1552 -0.7690
 9274SOL    HW228895   6.816   4.657   5.127 -0.4080 -1.1028  0.4471
 9275SOL     OW28896   5.728   4.951   4.157 -0.4024 -0.3854 -0.0190
 9275SOL    HW128897   5.738   5.024   4.218 -0.3181 -0.1834 -0.2744
 9275SOL    HW228898   5.772   4.980   4.077  1.5838 -1.5484  0.5572
 9276SOL     OW28899   7.237   7.665   3.249  0.1914  0.1116  0.1786
 9276SOL    HW128900   7.179   7.674   3.174  0.4194 -2.7971 -0.4726
 9276SOL    HW228901   7.178   7.653   3.324 -0.0607 -0.1514 -0.0585
 9277SOL     OW28902   6.860   5.800   0.215 -0.0731  0.2937 -0.5644
 9277SOL    HW128903   6.803   5.737   0.259 -0.0043 -0.8431 -2.0435
 9277SOL    HW228904   6.919   5.830   0.283 -0.3213 -1.0003  0.2501
 9278SOL     OW28905   1.629   3.413   4.117 -0.2504  1.1246 -0.1151
 9278SOL    HW128906   1.724   3.403   4.124 -0.4361 -0.2077  1.0178
 9278SOL    HW228907   1.596   3.324   4.108 -1.5011  1.3871  1.3954
 9279SOL     OW28908   0.373   6.284   8.051  0.0362  0.3918  0.0950
 9279SOL    HW128909   0.282   6.265   8.026 -0.5984  0.9701  1.8004
 9279SOL    HW228910   0.394   6.366   8.006 -0.4693  0.5277  0.1025
 9280SOL     OW28911   7.992   0.118   4.279 -0.6145 -0.0897  0.0166
 9280SOL    HW128912   7.972   0.177   4.352 -0.2775  0.5659 -0.4092
 9280SOL    HW228913   8.003   0.176   4.204 -1.2038 -0.7804 -0.6140
 9281SOL     OW28914   3.050   3.269   4.549 -0.4975 -0.0504  0.4178
 9281SOL    HW128915   2.977   3.330   4.551  0.1211  0.6925  1.4883
 9281SOL    HW228916   3.033   3.209   4.622 -0.4297 -0.3458  0.1927
 9282SOL     OW28917   4.372   1.193   5.069 -0.1401  0.4991 -0.5933
 9282SOL    HW128918   4.315   1.236   5.005 -0.7583  0.3722 -0.1319
 9282SOL    HW228919   4.330   1.110   5.087  1.2666 -0.5279 -1.7824
 9283SOL     OW28920   6.493   0.482   7.049 -0.2941  0.1790 -0.5853
 9283SOL    HW128921   6.405   0.461   7.018 -0.2534 -2.8184  0.8967
 9283SOL    HW228922   6.481   0.560   7.104 -2.0659 -0.2243 -0.3282
 9284SOL     OW28923   6.876   3.374   1.830 -0.1312  0.2525  0.3884
 9284SOL    HW128924   6.783   3.396   1.826 -0.0038  0.6237 -1.3755
 9284SOL    HW228925   6.885   3.297   1.774  0.3030 -1.1364  2.2707
 9285SOL     OW28926   7.016   6.979   4.745 -0.7307 -0.0080 -0.4788
 9285SOL    HW128927   6.977   6.996   4.831 -0.1474  1.5830 -0.5099
 9285SOL    HW228928   6.969   7.036   4.685 -3.1440 -3.1124 -1.8499
 9286SOL     OW28929   7.325   0.105   6.868  0.0744  0.0328 -0.9597
 9286SOL    HW128930   7.296   0.176   6.926  0.7838  0.3256 -0.9585
 9286SOL    HW228931   7.262   0.106   6.796  0.4987  1.1619 -1.3458
 9287SOL     OW28932   5.642   0.860   6.887  0.3678  0.1668  0.0174
 9287SOL    HW128933   5.583   0.838   6.815 -0.4325 -0.3157  0.8002
 9287SOL    HW228934   5.728   0.869   6.845  0.3743 -2.3575 -0.7082
 9288SOL     OW28935   3.538   5.621   7.235  0.0032  0.2407  0.3739
 9288SOL    HW128936   3.517   5.681   7.163 -0.5234  0.7715  0.9596
 9288SOL    HW228937   3.593   5.672   7.294 -0.5396  0.2002  0.9314
 9289SOL     OW28938   3.632   4.339   7.178 -0.2812 -0.3966 -0.1746
 9289SOL    HW128939   3.605   4.260   7.225  0.2822 -1.2428 -1.2256
 9289SOL    HW228940   3.687   4.386   7.240 -1.0321 -0.5732  0.6414
 9290SOL     OW28941   4.374   0.899   0.268  0.2498 -0.0207  0.4178
 9290SOL    HW128942   4.296   0.844   0.273  0.8779 -0.8213  1.9850
 9290SOL    HW228943   4.356   0.959   0.196 -1.9348  0.0014  0.9173
 9291SOL     OW28944   1.301   6.519   4.064  0.5720 -0.2998 -0.4343
 9291SOL    HW128945   1.250   6.463   4.122  1.8004 -1.1907 -0.1776
 9291SOL    HW228946   1.267   6.607   4.080 -0.6754 -0.8208 -0.0764
 9292SOL     OW28947   3.537   2.535   4.056  0.2277  0.6333  0.4441
 9292SOL    HW128948   3.445   2.514   4.043  0.7072 -0.2290 -2.1731
 9292SOL    HW228949   3.581   2.497   3.981  2.6446  1.7002  1.2127
 9293SOL     OW28950   4.580   2.900   4.039  0.0887 -0.5037  0.1841
 9293SOL    HW128951   4.533   2.834   4.091  0.4103  1.0246  2.5790
 9293SOL    HW228952   4.512   2.939   3.984 -0.9594 -0.1191  1.6841
 9294SOL     OW28953   1.949   6.722   0.666 -0.6460  0.2640 -0.3312
 9294SOL    HW128954   2.042   6.732   0.689 -0.5527 -1.1110 -0.0307
 9294SOL    HW228955   1.902   6.731   0.749 -0.5480 -1.6970 -0.0297
 9295SOL     OW28956   4.475   4.391   6.320 -0.2087 -0.1567 -0.0186
 9295SOL    HW128957   4.490   4.344   6.238  0.8419 -1.6293  0.9415
 9295SOL    HW228958   4.555   4.375   6.371  0.1559  2.6287  0.4511
 9296SOL     OW28959   5.917   6.492   5.069  0.3193  0.3305 -0.5938
 9296SOL    HW128960   5.872   6.576   5.071  1.2743  0.8712 -1.3072
 9296SOL    HW228961   6.010   6.514   5.075  0.5378 -0.7306  0.2472
 9297SOL     OW28962   3.301   7.332   2.171  1.1386  0.5818 -0.0333
 9297SOL    HW128963   3.235   7.401   2.170  0.3641 -0.1228  1.0758
 9297SOL    HW228964   3.300   7.298   2.081  0.0856  0.6711 -0.0730
 9298SOL     OW28965   2.768   6.828   7.769 -0.1253 -0.0201 -0.5304
 9298SOL    HW128966   2.822   6.876   7.707 -1.9554  0.5054 -1.7910
 9298SOL    HW228967   2.753   6.890   7.841  2.0658 -0.6602  0.5785
 9299SOL     OW28968   0.351   5.322   6.558 -0.3143 -0.9063  0.1480
 9299SOL    HW128969   0.285   5.255   6.575 -2.3806  0.9553  0.1072
 9299SOL    HW228970   0.333   5.390   6.624 -1.1646  1.4512 -2.3260
 9300SOL     OW28971   5.202   5.219   4.495  0.1490 -0.2126  0.1422
 9300SOL    HW128972   5.221   5.312   4.484  0.6158 -0.2102  0.9430
 9300SOL    HW228973   5.287   5.176   4.491  0.0860 -0.4604  1.1393
 9301SOL     OW28974   5.101   5.807   1.703  0.6704 -0.0975 -0.6484
 9301SOL    HW128975   5.120   5.899   1.721  0.6439 -0.2699  0.3158
 9301SOL    HW228976   5.185   5.769   1.677  0.8689 -0.0012 -0.1583
 9302SOL     OW28977   2.261   7.529   1.315 -0.2293  0.1321 -0.1303
 9302SOL    HW128978   2.279   7.523   1.221  0.3182  1.2463 -0.1084
 9302SOL    HW228979   2.279   7.620   1.338  1.1127 -0.4549  1.3622
 9303SOL     OW28980   5.618   3.982   0.982 -0.4067  0.2581 -0.2156
 9303SOL    HW128981   5.577   3.897   0.963  0.7004 -0.5068  0.6362
 9303SOL    HW228982   5.544   4.041   0.996 -1.2090 -0.5165 -0.9996
 9304SOL     OW28983   4.129   2.242   6.705 -0.2195 -0.1811  0.2728
 9304SOL    HW128984   4.150   2.205   6.619 -0.8462 -0.6520  0.3084
 9304SOL    HW228985   4.209   2.285   6.734  0.1359 -0.4173 -0.3490
 9305SOL     OW28986   4.500   7.628   1.074  0.3602  0.3648 -0.3068
 9305SOL    HW128987   4.592   7.603   1.082  0.2691  0.5777  2.0863
 9305SOL    HW228988   4.491   7.704   1.131 -1.8224 -1.1907  1.5604
 9306SOL     OW28989   2.404   5.787   6.092 -0.0485 -0.1425 -0.2599
 9306SOL    HW128990   2.437   5.734   6.019 -2.7763 -1.0723 -0.9444
 9306SOL    HW228991   2.363   5.862   6.051  0.4720  0.5848  0.5099
 9307SOL     OW28992   1.766   0.676   5.404  0.2449  0.2926  1.1013
 9307SOL    HW128993   1.728   0.722   5.329  1.9392  0.6970  0.4241
 9307SOL    HW228994   1.699   0.679   5.472 -0.7902  1.1811  0.0738
 9308SOL     OW28995   7.991   0.186   2.644 -0.7795 -0.1626  0.1788
 9308SOL    HW128996   8.045   0.236   2.582 -0.7904 -0.6422 -0.2215
 9308SOL    HW228997   7.949   0.253   2.698 -0.5648  0.2528 -0.1627
 9309SOL     OW28998   5.417   4.715   0.738  0.1194  0.2965 -0.5030
 9309SOL    HW128999   5.428   4.710   0.643  0.1168  0.6134 -0.5200
 9309SOL    HW229000   5.402   4.808   0.756 -1.3281  0.0573 -0.3470
 9310SOL     OW29001   5.568   1.819   4.901  0.0644  0.7665 -0.1416
 9310SOL    HW129002   5.501   1.826   4.968 -0.4545  0.7044 -0.6405
 9310SOL    HW229003   5.601   1.730   4.908 -0.6552  0.4600 -0.5843
 9311SOL     OW29004   4.070   1.270   2.384  0.3826 -0.1757 -0.0570
 9311SOL    HW129005   4.037   1.217   2.311  0.1016 -1.5151  1.0122
 9311SOL    HW229006   4.014   1.348   2.384  0.2588 -0.2495 -1.1439
 9312SOL     OW29007   7.123   2.997   7.683  0.1272  0.7392  0.2147
 9312SOL    HW129008   7.203   2.991   7.629 -1.5629  0.3969 -2.4453
 9312SOL    HW229009   7.134   2.928   7.748  0.6887 -1.5840 -2.1298
 9313SOL     OW29010   6.827   7.385   7.803 -0.3465 -0.2585  0.6313
 9313SOL    HW129011   6.850   7.478   7.797  0.0994 -0.4208 -0.7263
 9313SOL    HW229012   6.903   7.340   7.764  0.3480 -1.3402  3.0761
 9314SOL     OW29013   6.393   7.948   2.942 -0.1689  0.2881  0.4704
 9314SOL    HW129014   6.316   7.896   2.918  0.2627 -0.5212  0.7958
 9314SOL    HW229015   6.400   7.939   3.037  0.8417 -0.4154  0.3567
 9315SOL     OW29016   0.937   1.539   6.015 -0.1082  0.1797  0.3779
 9315SOL    HW129017   0.944   1.504   5.927  0.4503 -1.5925  1.0979
 9315SOL    HW229018   0.974   1.627   6.009  1.9973 -0.7271 -0.7091
 9316SOL     OW29019   4.383   0.528   2.979 -0.1419 -0.2716 -0.6221
 9316SOL    HW129020   4.306   0.509   3.032  0.9896 -0.0847  1.2064
 9316SOL    HW229021   4.423   0.443   2.962 -0.3498 -0.3071 -0.9426
 9317SOL     OW29022   7.958   1.688   8.159  0.4737  0.2194 -0.1430
 9317SOL    HW129023   8.034   1.631   8.147  1.5951  1.4266  0.9090
 9317SOL    HW229024   7.921   1.661   8.243 -0.2329 -0.2889 -0.5985
 9318SOL     OW29025   3.489   6.345   5.985  0.1752  0.3291 -0.1394
 9318SOL    HW129026   3.420   6.279   5.991  1.2916 -1.0875 -1.7903
 9318SOL    HW229027   3.549   6.325   6.056  0.4794 -0.4406 -0.5995
 9319SOL     OW29028   7.665   7.377   1.372  0.0402  0.1942 -0.3109
 9319SOL    HW129029   7.688   7.452   1.317 -0.9856  0.4472 -0.4204
 9319SOL    HW229030   7.701   7.399   1.458  2.4543 -0.6095 -1.0258
 9320SOL     OW29031   7.180   4.793   6.722  0.2040 -0.1494  0.2341
 9320SOL    HW129032   7.261   4.791   6.671  0.9673  0.2502  1.3793
 9320SOL    HW229033   7.186   4.875   6.772 -1.0907  0.0734  0.0536
 9321SOL     OW29034   3.295   5.529   6.576  0.0145  0.7686  0.2591
 9321SOL    HW129035   3.326   5.455   6.524 -1.5497 -0.2756  0.7380
 9321SOL    HW229036   3.226   5.568   6.523 -0.3591  0.8014  0.7645
 9322SOL     OW29037   6.801   0.908   2.388 -0.2186  0.1452 -0.5848
 9322SOL    HW129038   6.762   0.890   2.474  1.1725 -1.0228 -0.1665
 9322SOL    HW229039   6.755   0.986   2.358 -0.3235  0.9581  1.4914
 9323SOL     OW29040   7.666   7.659   4.488  0.2757 -0.0473  0.1304
 9323SOL    HW129041   7.628   7.663   4.575 -1.0002  0.4072 -0.4223
 9323SOL    HW229042   7.720   7.738   4.481 -1.0550  0.8743 -0.1078
 9324SOL     OW29043   0.732   3.899   0.691 -0.0166 -0.3462 -0.8408
 9324SOL    HW129044   0.688   3.814   0.702  2.5783 -1.8083 -0.9506
 9324SOL    HW229045   0.709   3.926   0.602 -0.1035 -1.4226 -1.1650
 9325SOL     OW29046   3.104   2.389   1.682  0.4658  0.5834 -0.1905
 9325SOL    HW129047   3.098   2.426   1.770  2.6560 -1.0675  0.7664
 9325SOL    HW229048   3.095   2.295   1.695  2.5837  0.1290 -1.4110
 9326SOL     OW29049   3.929   1.386   7.397 -0.2814 -0.8701 -0.1809
 9326SOL    HW129050   3.863   1.414   7.333 -0.2312 -0.7367 -0.1745
 9326SOL    HW229051   3.897   1.301   7.429  1.2879 -2.5159 -2.6990
 9327SOL     OW29052   8.146   1.464   1.224 -0.7082 -0.6115  0.8243
 9327SOL    HW129053   8.174   1.544   1.267 -2.0016 -1.1848  2.8904
 9327SOL    HW229054   8.059   1.446   1.260 -1.2472 -1.9628 -0.9839
 9328SOL     OW29055   0.715   0.894   7.437  0.0409 -0.1347 -0.8196
 9328SOL    HW129056   0.638   0.951   7.432  0.3470  0.3649 -0.0185
 9328SOL    HW229057   0.787   0.953   7.461  0.6051 -0.6594 -1.1836
 9329SOL     OW29058   7.928   3.730   7.258 -0.0812  0.2762 -0.1951
 9329SOL    HW129059   7.865   3.732   7.187  1.5139 -1.1382 -1.7542
 9329SOL    HW229060   7.952   3.638   7.267  0.9060  0.6246  1.1144
 9330SOL     OW29061   3.927   7.022   5.287 -0.0273  0.5869 -0.4269
 9330SOL    HW129062   3.862   7.041   5.219 -2.3152 -0.2721  1.3778
 9330SOL    HW229063   3.918   7.094   5.349  0.7622  0.4462 -0.1470
 9331SOL     OW29064   7.104   4.344   6.979 -0.2833  0.6533  0.0541
 9331SOL    HW129065   7.015   4.379   6.967 -0.3378  1.2811  1.8721
 9331SOL    HW229066   7.090   4.255   7.011 -0.2518  0.6781  0.1363
 9332SOL     OW29067   1.880   5.280   3.870 -0.4429  0.3898 -0.4040
 9332SOL    HW129068   1.974   5.288   3.888 -0.7462 -0.8599  1.9667
 9332SOL    HW229069   1.870   5.192   3.833 -0.8877 -0.2170  1.1054
 9333SOL     OW29070   2.527   6.023   5.673 -0.5793  0.1513 -0.7615
 9333SOL    HW129071   2.466   5.949   5.681  0.0090 -0.4263 -1.5205
 9333SOL    HW229072   2.604   5.986   5.631  0.8515  0.5546  1.3619
 9334SOL     OW29073   1.935   0.220   2.745 -0.1356 -0.0656  0.4230
 9334SOL    HW129074   1.882   0.204   2.824 -0.4658 -4.0468 -0.4053
 9334SOL    HW229075   2.024   0.196   2.771 -0.0416 -0.3225 -0.1381
 9335SOL     OW29076   6.966   1.518   0.761 -0.0082  0.0278 -0.0092
 9335SOL    HW129077   7.061   1.512   0.752 -0.0401 -0.7152  0.1104
 9335SOL    HW229078   6.934   1.530   0.671  0.0499 -2.1086 -0.3663
 9336SOL     OW29079   3.757   3.544   3.174 -0.8433 -0.4611  0.1905
 9336SOL    HW129080   3.737   3.554   3.267  0.6176  1.0957  0.3990
 9336SOL    HW229081   3.680   3.579   3.129 -1.8268 -1.8034  0.7788
 9337SOL     OW29082   7.985   3.224   4.356  0.1952  0.1483  0.4584
 9337SOL    HW129083   8.073   3.255   4.377  1.1026 -1.4823 -0.7371
 9337SOL    HW229084   7.977   3.140   4.401 -0.8306  0.3698  0.7170
 9338SOL     OW29085   3.258   4.217   7.306  0.0254  0.2495 -0.6158
 9338SOL    HW129086   3.323   4.190   7.241  0.7728 -0.5805  0.4407
 9338SOL    HW229087   3.274   4.160   7.381 -0.4948  1.4930  0.4831
 9339SOL     OW29088   1.798   6.170   6.067  0.4281 -0.3981 -0.4065
 9339SOL    HW129089   1.714   6.156   6.110  0.4718  2.1710  0.7305
 9339SOL    HW229090   1.863   6.144   6.132  0.4678  1.3710  0.3428
 9340SOL     OW29091   2.736   3.421   3.180 -0.0567  0.6300  0.2576
 9340SOL    HW129092   2.673   3.368   3.130  0.8755  1.0981 -1.4937
 9340SOL    HW229093   2.721   3.396   3.271 -1.0863 -1.0889 -0.3340
 9341SOL     OW29094   5.585   8.097   0.675 -0.5859 -0.8563 -0.5791
 9341SOL    HW129095   5.496   8.093   0.711 -0.5894  1.5781 -0.1946
 9341SOL    HW229096   5.638   8.134   0.746  0.6545 -1.7341 -1.0065
 9342SOL     OW29097   1.599   5.986   0.918  0.0454  0.3627  0.3183
 9342SOL    HW129098   1.659   6.060   0.922  1.4689 -0.7844  1.8965
 9342SOL    HW229099   1.582   5.965   1.010 -0.8957 -0.8256 -0.1032
 9343SOL     OW29100   2.205   5.358   6.246  0.8066 -0.3607  0.1003
 9343SOL    HW129101   2.209   5.340   6.340  0.6017  0.1067  0.2029
 9343SOL    HW229102   2.111   5.363   6.227  0.8297  1.4825  0.2668
 9344SOL     OW29103   4.630   7.474   2.888 -0.2002  0.3836  0.0694
 9344SOL    HW129104   4.649   7.535   2.817 -3.6496  0.3122 -1.0932
 9344SOL    HW229105   4.654   7.388   2.852 -1.6934  0.3775 -0.9995
 9345SOL     OW29106   1.069   0.645   4.782  0.1960 -0.5442 -0.0812
 9345SOL    HW129107   1.004   0.591   4.737 -2.2828  1.0848  1.3419
 9345SOL    HW229108   1.094   0.593   4.859 -1.9075  0.0827  1.0918
 9346SOL     OW29109   4.939   5.324   4.332  0.2990  0.5717 -0.4674
 9346SOL    HW129110   4.990   5.375   4.270  0.5935  1.3817  0.4152
 9346SOL    HW229111   4.962   5.360   4.418  1.6443 -1.9634  0.3550
 9347SOL     OW29112   0.081   1.322   3.988 -0.2525 -0.4800 -0.3234
 9347SOL    HW129113   0.009   1.338   3.926 -1.5256  1.7333  1.5572
 9347SOL    HW229114   0.061   1.237   4.027  0.1817 -1.5733 -2.3596
 9348SOL     OW29115   3.006   3.920   2.221  0.0838  0.4831  0.1923
 9348SOL    HW129116   3.071   3.985   2.251  1.7767  0.4536 -3.0263
 9348SOL    HW229117   2.943   3.972   2.171 -0.6805  0.0883  0.7349
 9349SOL     OW29118   1.320   1.462   3.261  0.7589  0.0848  0.6591
 9349SOL    HW129119   1.334   1.550   3.297  2.1770  0.1701 -0.0586
 9349SOL    HW229120   1.325   1.473   3.166  0.7175 -0.7394  0.5508
 9350SOL     OW29121   4.802   5.466   6.086 -0.0693  0.0159 -0.6611
 9350SOL    HW129122   4.787   5.520   6.164 -1.2955 -0.0366 -0.8386
 9350SOL    HW229123   4.749   5.508   6.018  0.8444 -0.0430 -1.4330
 9351SOL     OW29124   5.691   6.454   2.531  0.4277 -0.7213 -0.6236
 9351SOL    HW129125   5.625   6.431   2.465 -1.1450  0.3925  0.4756
 9351SOL    HW229126   5.671   6.396   2.605  2.3162 -2.1164 -1.1238
 9352SOL     OW29127   5.264   2.816   4.318 -0.3766  0.5188  0.2584
 9352SOL    HW129128   5.336   2.839   4.377  0.0479  1.5318 -0.6154
 9352SOL    HW229129   5.210   2.895   4.315 -0.7883  0.2265 -0.1356
 9353SOL     OW29130   4.521   3.938   6.637  0.5025 -0.1113  0.1283
 9353SOL    HW129131   4.584   3.886   6.686 -0.2451 -1.4326 -0.2604
 9353SOL    HW229132   4.463   3.874   6.597  0.8348  0.9385 -2.1817
 9354SOL     OW29133   2.045   6.959   6.396 -0.5489 -0.3856 -0.1368
 9354SOL    HW129134   2.037   7.050   6.369 -0.7595 -0.1969  0.5529
 9354SOL    HW229135   2.117   6.924   6.343 -1.0040 -0.0472 -0.9967
 9355SOL     OW29136   6.046   3.789   0.611  0.0711  0.3242 -0.4091
 9355SOL    HW129137   6.027   3.758   0.700 -2.0667  2.1592 -0.1340
 9355SOL    HW229138   5.965   3.832   0.583  1.5043  1.9600 -2.3137
 9356SOL     OW29139   5.622   4.460   2.656 -0.1827 -0.1185 -0.0920
 9356SOL    HW129140   5.681   4.472   2.582 -0.8405  0.4191 -0.5411
 9356SOL    HW229141   5.679   4.467   2.733  0.5127 -0.7494 -0.5415
 9357SOL     OW29142   7.443   1.430   4.249  1.0307  0.3204 -0.3517
 9357SOL    HW129143   7.530   1.411   4.216  0.7338  0.6891 -1.3800
 9357SOL    HW229144   7.403   1.484   4.181  0.6009  1.5980  0.8594
 9358SOL     OW29145   0.097   2.727   0.232  0.1199  0.0021 -0.2386
 9358SOL    HW129146   0.068   2.640   0.203  0.6351  0.0704 -0.9790
 9358SOL    HW229147   0.193   2.723   0.227  0.2817 -0.1469  1.9452
 9359SOL     OW29148   7.420   3.085   2.870 -0.1740  0.2313 -0.6093
 9359SOL    HW129149   7.360   3.057   2.800 -1.2238 -0.6821  0.6142
 9359SOL    HW229150   7.458   3.166   2.837 -0.7587 -0.0863 -2.1728
 9360SOL     OW29151   2.456   0.860   1.162  0.2856 -0.1722 -0.2352
 9360SOL    HW129152   2.463   0.822   1.250 -0.9240 -0.8320 -0.4083
 9360SOL    HW229153   2.545   0.886   1.140  0.6202 -0.0570  1.1640
 9361SOL     OW29154   7.105   3.526   7.007  0.3963  0.3192 -0.4439
 9361SOL    HW129155   7.168   3.454   7.002  0.8209  0.6977 -0.6602
 9361SOL    HW229156   7.160   3.605   7.006 -0.0194  0.6347  0.4736
 9362SOL     OW29157   5.031   3.562   4.525 -0.4237 -0.3363 -0.3989
 9362SOL    HW129158   4.971   3.502   4.479 -0.0457 -0.3830 -0.8366
 9362SOL    HW229159   4.983   3.644   4.531  0.1296  0.1858 -2.3780
 9363SOL     OW29160   5.176   7.581   5.689 -0.1084 -0.3812  0.7200
 9363SOL    HW129161   5.218   7.525   5.624 -0.4175 -0.5019  0.6220
 9363SOL    HW229162   5.115   7.635   5.638  0.5068  0.3515  0.7555
 9364SOL     OW29163   4.025   6.224   1.330 -0.1922 -0.1480 -0.3720
 9364SOL    HW129164   3.941   6.182   1.350  0.7976 -0.9361  2.5512
 9364SOL    HW229165   4.004   6.317   1.325 -1.1732 -0.2739  0.9381
 9365SOL     OW29166   5.995   3.876   3.185 -0.5479 -0.1366 -0.4527
 9365SOL    HW129167   6.054   3.884   3.260 -2.1937 -0.3710  0.9363
 9365SOL    HW229168   5.912   3.848   3.224 -1.7323  0.7140 -2.2668
 9366SOL     OW29169   2.296   2.213   7.445  0.0437  0.4484  0.2307
 9366SOL    HW129170   2.383   2.217   7.407 -0.5267 -1.2841 -1.4268
 9366SOL    HW229171   2.274   2.304   7.466  1.7413  1.0510 -0.4699
 9367SOL     OW29172   0.452   1.672   6.284  0.5754  0.2222  0.0417
 9367SOL    HW129173   0.481   1.702   6.370  0.2874 -1.4214  0.7568
 9367SOL    HW229174   0.533   1.640   6.242  0.1658 -3.2530  1.5716
 9368SOL     OW29175   4.745   3.666   1.449 -0.6318 -0.3728  0.0354
 9368SOL    HW129176   4.671   3.639   1.394 -1.4687 -0.7365  1.2856
 9368SOL    HW229177   4.785   3.739   1.402  0.1731 -2.1615 -2.2339
 9369SOL     OW29178   4.325   6.529   3.051 -0.3960 -0.1216 -0.3016
 9369SOL    HW129179   4.290   6.447   3.083 -0.7390  0.5816  1.2079
 9369SOL    HW229180   4.251   6.571   3.007 -0.1873 -0.6534 -1.1851
 9370SOL     OW29181   8.111   0.298   5.181 -0.9059 -1.0123 -0.4419
 9370SOL    HW129182   8.145   0.296   5.091  1.6073  2.5402  0.2321
 9370SOL    HW229183   8.089   0.389   5.197 -3.3529 -1.8835  1.9489
 9371SOL     OW29184   2.749   2.649   6.155  0.4503 -0.5001 -0.0023
 9371SOL    HW129185   2.693   2.576   6.181 -0.6814  0.4063  0.1973
 9371SOL    HW229186   2.838   2.616   6.164 -0.0354 -2.2187 -0.9967
 9372SOL     OW29187   5.320   2.486   0.014  0.5509 -0.0244  0.1380
 9372SOL    HW129188   5.337   2.529  -0.070 -0.8811 -0.4956 -0.4276
 9372SOL    HW229189   5.376   2.408   0.013 -0.8148 -1.0377 -1.2451
 9373SOL     OW29190   1.343   2.672   0.288  0.2770  0.3954  0.2326
 9373SOL    HW129191   1.314   2.727   0.360  0.0691  1.9960 -1.0393
 9373SOL    HW229192   1.298   2.588   0.303 -0.0116  0.7897  1.7589
 9374SOL     OW29193   5.476   0.685   7.332  0.2115  0.4462  0.1211
 9374SOL    HW129194   5.525   0.712   7.255 -0.0154  1.7777  0.4142
 9374SOL    HW229195   5.400   0.638   7.297  1.2452 -0.9293 -0.3604
 9375SOL     OW29196   3.423   3.839   2.193  0.3510  0.0932 -0.2651
 9375SOL    HW129197   3.356   3.792   2.242  0.6068  1.5016  1.5727
 9375SOL    HW229198   3.492   3.775   2.179 -0.4194 -0.7707 -0.1966
 9376SOL     OW29199   0.555   3.301   7.114  0.0008  1.0794 -0.0506
 9376SOL    HW129200   0.460   3.297   7.128 -0.1692 -2.0004 -1.3065
 9376SOL    HW229201   0.575   3.223   7.062  2.9741  2.7041 -1.5847
 9377SOL     OW29202   4.943   2.585   3.256  0.3639 -0.0788  0.0582
 9377SOL    HW129203   4.891   2.632   3.322 -1.0844 -1.6572  0.1222
 9377SOL    HW229204   4.959   2.650   3.187 -0.8726  0.7410  0.5015
 9378SOL     OW29205   0.583   2.732   4.774  0.5100  0.1302 -0.4082
 9378SOL    HW129206   0.587   2.771   4.861 -2.7690  1.9272 -0.9098
 9378SOL    HW229207   0.551   2.642   4.789 -2.1908  1.0955  0.2483
 9379SOL     OW29208   4.931   1.075   0.633  0.6342 -0.2725  0.0927
 9379SOL    HW129209   4.994   1.068   0.561 -0.3539 -1.7251 -0.6879
 9379SOL    HW229210   4.846   1.086   0.589  0.1503  0.0478  1.0824
 9380SOL     OW29211   7.786   6.796   1.813 -0.3754 -0.4636 -0.1612
 9380SOL    HW129212   7.726   6.867   1.791 -0.7472 -0.2079  1.4936
 9380SOL    HW229213   7.868   6.841   1.835 -0.6344 -0.4971  0.9666
 9381SOL     OW29214   2.106   7.864   5.673 -0.0301 -0.2382  0.2200
 9381SOL    HW129215   2.026   7.915   5.686  0.1017  0.0639 -0.1448
 9381SOL    HW229216   2.124   7.826   5.759 -0.2235  0.1945  0.4582
 9382SOL     OW29217   4.939   7.554   3.012  0.0702  0.7527  0.0677
 9382SOL    HW129218   5.028   7.536   2.983 -0.6621  1.5396 -3.1085
 9382SOL    HW229219   4.894   7.586   2.933 -2.3770  2.7778  2.0898
 9383SOL     OW29220   0.741   7.809   3.542 -0.2681 -0.3451 -0.2129
 9383SOL    HW129221   0.681   7.739   3.515 -1.1684 -0.1139  1.0791
 9383SOL    HW229222   0.827   7.779   3.514 -1.0379 -0.3370 -2.8144
 9384SOL     OW29223   0.038   3.682   7.454  0.1976  0.2060  0.3863
 9384SOL    HW129224   0.053   3.711   7.363 -0.0347  1.0796  0.6171
 9384SOL    HW229225   0.125   3.655   7.484 -0.0022 -1.7372 -0.6289
 9385SOL     OW29226   6.806   4.485   5.239 -0.4026  0.0261  0.3869
 9385SOL    HW129227   6.837   4.403   5.277 -0.0800 -0.8676 -1.6892
 9385SOL    HW229228   6.729   4.460   5.188 -1.7671  1.4495  1.6275
 9386SOL     OW29229   7.765   6.341   4.344  0.4843  0.8504 -0.4156
 9386SOL    HW129230   7.836   6.373   4.400  0.0466  0.0307  0.6446
 9386SOL    HW229231   7.796   6.357   4.255  2.2081  0.0870  0.0071
 9387SOL     OW29232   7.846   1.277   8.090  0.3438 -0.6166 -0.3266
 9387SOL    HW129233   7.764   1.255   8.134  0.5309 -2.5976 -0.8516
 9387SOL    HW229234   7.879   1.193   8.058  2.9270  0.0201  0.4504
 9388SOL     OW29235   4.233   3.301   5.987 -0.1933  0.1047  0.6245
 9388SOL    HW129236   4.241   3.376   5.928  1.4137 -1.0934 -0.8113
 9388SOL    HW229237   4.153   3.257   5.960  0.1762 -0.0548 -0.2369
 9389SOL     OW29238   0.233   6.703   3.379  0.8135  0.1030  0.5685
 9389SOL    HW129239   0.208   6.611   3.387 -0.6488  0.5640  1.6062
 9389SOL    HW229240   0.158   6.745   3.338  2.1675  0.5648 -1.6004
 9390SOL     OW29241   7.947   0.653   2.424  0.1813  0.3632  0.9379
 9390SOL    HW129242   7.878   0.614   2.478  0.6067  0.9931  1.9542
 9390SOL    HW229243   7.965   0.738   2.465  0.7926  0.6853  0.0363
 9391SOL     OW29244   0.871   2.584   2.064  0.3061 -0.3194 -0.1450
 9391SOL    HW129245   0.950   2.628   2.095  0.3508 -0.3453 -0.2225
 9391SOL    HW229246   0.847   2.630   1.984 -0.2493  0.2496  0.3332
 9392SOL     OW29247   7.030   3.885   5.377  0.0814 -0.3147 -0.4879
 9392SOL    HW129248   7.077   3.833   5.443 -0.3086  0.8539  0.7488
 9392SOL    HW229249   6.942   3.849   5.377 -0.9099  1.7791  2.1518
 9393SOL     OW29250   3.069   3.315   4.843 -0.4263 -0.0277  0.5137
 9393SOL    HW129251   3.055   3.404   4.810 -1.8148 -0.5184 -0.3322
 9393SOL    HW229252   3.131   3.325   4.915 -1.7551  1.8365  1.4849
 9394SOL     OW29253   3.299   0.569   1.134 -0.8398  0.4440 -0.1472
 9394SOL    HW129254   3.386   0.530   1.138 -1.0142  0.1497  1.3131
 9394SOL    HW229255   3.308   0.643   1.074  0.9280  1.6417  1.4852
 9395SOL     OW29256   1.986   0.749   3.920 -0.3872 -0.2059  0.5086
 9395SOL    HW129257   1.981   0.825   3.862  0.8945 -1.3389 -1.1771
 9395SOL    HW229258   1.956   0.676   3.867 -0.4302 -1.0856  1.6989
 9396SOL     OW29259   5.024   4.077   3.562  0.0195  0.8306 -0.4523
 9396SOL    HW129260   5.009   4.101   3.653  0.9316 -0.3292  0.0308
 9396SOL    HW229261   4.966   4.002   3.547  0.9542  0.0642 -0.3477
 9397SOL     OW29262   0.507   1.623   1.184 -0.3452 -0.0950 -0.1634
 9397SOL    HW129263   0.436   1.674   1.223 -0.3385 -0.3399  0.1743
 9397SOL    HW229264   0.476   1.603   1.095 -0.8119 -0.4147  0.0681
 9398SOL     OW29265   0.559   0.235   5.188 -0.1029 -0.2237  0.6723
 9398SOL    HW129266   0.553   0.323   5.152 -1.1592  0.8462  3.1964
 9398SOL    HW229267   0.646   0.204   5.161  0.7849  2.0482  0.6692
 9399SOL     OW29268   5.494   1.569   1.148  0.5805  0.1563 -0.0656
 9399SOL    HW129269   5.583   1.599   1.129  0.6139  0.5259  0.6272
 9399SOL    HW229270   5.454   1.557   1.062  1.5206 -0.7064 -0.4067
 9400SOL     OW29271   5.926   6.996   3.549 -0.3054  0.4330 -0.0904
 9400SOL    HW129272   5.888   7.003   3.461 -0.8720 -0.1526  0.1046
 9400SOL    HW229273   5.854   7.018   3.608 -0.9659 -2.6286  0.3798
 9401SOL     OW29274   4.966   6.528   7.290  0.0254  0.0582 -0.0279
 9401SOL    HW129275   5.051   6.484   7.294 -0.3047 -0.4966  1.0584
 9401SOL    HW229276   4.901   6.458   7.288 -0.4682  0.4864  0.6044
 9402SOL     OW29277   3.856   6.621   2.996  0.6304 -0.3401 -0.0012
 9402SOL    HW129278   3.836   6.546   3.052  0.0957 -0.5506 -0.4712
 9402SOL    HW229279   3.836   6.591   2.908  0.4121  0.3619 -0.1909
 9403SOL     OW29280   1.657   2.938   3.657 -0.4392  0.3721 -0.4972
 9403SOL    HW129281   1.594   2.875   3.691  0.6576 -1.0224 -0.9702
 9403SOL    HW229282   1.611   3.022   3.661 -2.3058 -0.5844 -0.8043
 9404SOL     OW29283   6.124   6.395   5.965  0.5021 -0.0051 -0.2790
 9404SOL    HW129284   6.134   6.356   6.052  0.1343  1.0799  0.2651
 9404SOL    HW229285   6.056   6.462   5.976  2.5386  2.2553 -0.6796
 9405SOL     OW29286   7.085   4.347   0.971 -0.2572  0.0219 -0.4966
 9405SOL    HW129287   7.036   4.272   1.006  1.1692 -1.1717 -0.9468
 9405SOL    HW229288   7.134   4.380   1.046 -1.1705  0.7577 -0.2125
 9406SOL     OW29289   2.580   2.414   5.518 -0.2505  0.8585 -0.3656
 9406SOL    HW129290   2.662   2.367   5.530 -0.9030 -0.7720 -1.8789
 9406SOL    HW229291   2.601   2.485   5.457 -0.0226  0.2745 -0.9689
 9407SOL     OW29292   3.632   6.288   3.305  0.6240 -0.0927  0.0495
 9407SOL    HW129293   3.630   6.304   3.399  0.0219 -0.5850  0.1317
 9407SOL    HW229294   3.542   6.303   3.276  0.7002 -0.4079 -0.3623
 9408SOL     OW29295   1.240   5.829   6.400  0.4117  0.0786 -0.1482
 9408SOL    HW129296   1.249   5.809   6.493 -1.0964 -0.0938 -0.0173
 9408SOL    HW229297   1.229   5.924   6.397  0.0593  0.0424 -0.1013
 9409SOL     OW29298   7.854   7.249   3.256  0.2407 -0.5754  0.0790
 9409SOL    HW129299   7.764   7.238   3.226  0.1083  1.0166 -0.2354
 9409SOL    HW229300   7.850   7.323   3.317  1.3109 -0.5151  0.0966
 9410SOL     OW29301   1.480   3.184   3.596 -0.3094  0.1757 -0.6699
 9410SOL    HW129302   1.387   3.173   3.575 -0.7701  2.5163 -0.0928
 9410SOL    HW229303   1.481   3.220   3.685  1.1757 -0.1186 -0.5423
 9411SOL     OW29304   6.360   1.405   3.743  0.7207 -0.0747  0.0789
 9411SOL    HW129305   6.449   1.371   3.737  0.4201 -1.0650  0.9799
 9411SOL    HW229306   6.370   1.489   3.788  1.0531 -0.9905  1.8159
 9412SOL     OW29307   3.333   0.150   3.243  0.5095 -0.4515  0.4302
 9412SOL    HW129308   3.399   0.132   3.311  1.6454  1.0902 -0.2156
 9412SOL    HW229309   3.380   0.198   3.175 -1.6229  2.2625  0.6971
 9413SOL     OW29310   1.451   0.814   4.157 -0.1917 -0.3978 -0.2153
 9413SOL    HW129311   1.467   0.727   4.120  1.2558 -0.9300  1.5310
 9413SOL    HW229312   1.474   0.806   4.249  1.9300  2.3026 -0.3838
 9414SOL     OW29313   2.610   8.067   6.826 -0.0777 -0.5234 -0.4903
 9414SOL    HW129314   2.561   8.149   6.835 -0.1758 -0.5025 -1.2245
 9414SOL    HW229315   2.631   8.043   6.917 -1.1441 -0.3487 -0.1779
 9415SOL     OW29316   4.806   3.162   7.368 -0.3730 -0.3869 -0.0085
 9415SOL    HW129317   4.847   3.100   7.307 -0.4886 -0.7811  0.3092
 9415SOL    HW229318   4.791   3.111   7.447 -0.1349  0.1483  0.3876
 9416SOL     OW29319   4.526   1.140   1.265 -0.2416  0.3836  0.0433
 9416SOL    HW129320   4.432   1.152   1.251  0.0441  1.6394 -1.0049
 9416SOL    HW229321   4.566   1.217   1.225  1.3278 -0.7319 -0.6162
 9417SOL     OW29322   1.538   1.822   2.198 -0.1599  0.4568 -0.4798
 9417SOL    HW129323   1.578   1.841   2.113  1.0275  0.4858  0.0661
 9417SOL    HW229324   1.590   1.749   2.233 -0.7895  0.2863  0.1217
 9418SOL     OW29325   7.297   3.711   0.769 -0.1608 -0.2457  0.2235
 9418SOL    HW129326   7.287   3.666   0.853  2.1373  0.2443  0.8207
 9418SOL    HW229327   7.373   3.669   0.727 -0.1236  0.7481 -0.7685
 9419SOL     OW29328   1.770   7.574   5.537  0.0760 -0.3475 -0.4019
 9419SOL    HW129329   1.786   7.582   5.631  0.3534  1.7451 -0.5635
 9419SOL    HW229330   1.821   7.498   5.510  0.4850 -0.6134  1.0460
 9420SOL     OW29331   5.583   6.703   2.565  0.3902 -0.3508  0.0245
 9420SOL    HW129332   5.555   6.718   2.475  0.3371  0.8192  0.2161
 9420SOL    HW229333   5.608   6.611   2.568 -0.5010 -0.6436 -0.9452
 9421SOL     OW29334   0.069   6.437   4.463 -0.3125  0.0102  0.7105
 9421SOL    HW129335   0.003   6.465   4.526 -0.3484 -1.7884  1.5201
 9421SOL    HW229336   0.143   6.496   4.477 -0.8340  0.4879  1.5014
 9422SOL     OW29337   1.057   5.951   3.867  0.5951  0.1363  0.1082
 9422SOL    HW129338   1.092   6.040   3.881  1.8423 -0.2796 -0.2631
 9422SOL    HW229339   1.116   5.895   3.917  1.9299 -0.8417 -2.4479
 9423SOL     OW29340   7.807   4.039   3.244  0.3863  0.0509  0.3058
 9423SOL    HW129341   7.850   4.106   3.298 -0.8221  0.1846  1.1530
 9423SOL    HW229342   7.840   4.055   3.156 -0.3977  2.2702  0.3419
 9424SOL     OW29343   6.492   4.717   7.573 -0.5551 -0.2763 -0.2087
 9424SOL    HW129344   6.556   4.656   7.609 -1.2789 -2.2462 -2.0723
 9424SOL    HW229345   6.524   4.736   7.485 -2.3054 -1.0405 -1.0637
 9425SOL     OW29346   6.444   4.688   6.524  0.5582 -0.0692 -0.1981
 9425SOL    HW129347   6.408   4.630   6.457 -0.2785  0.1858  0.0314
 9425SOL    HW229348   6.510   4.634   6.569  0.6998 -0.4297 -0.8237
 9426SOL     OW29349   0.239   5.905   7.554  0.0697  0.1904 -0.1980
 9426SOL    HW129350   0.243   5.880   7.646 -0.5729 -1.0524 -0.4849
 9426SOL    HW229351   0.330   5.904   7.525  0.1241 -1.5271 -0.0863
 9427SOL     OW29352   0.126   7.302   3.736  0.1897  0.4006 -0.1181
 9427SOL    HW129353   0.159   7.223   3.692  0.8812  1.4725 -1.6214
 9427SOL    HW229354   0.031   7.296   3.727  0.2555 -0.0703 -0.5847
 9428SOL     OW29355   4.650   5.875   4.940 -0.5849  0.0858  0.1420
 9428SOL    HW129356   4.675   5.810   5.006 -0.2032 -0.0773 -0.1560
 9428SOL    HW229357   4.582   5.832   4.888 -0.1799 -0.1663 -0.1910
 9429SOL     OW29358   1.469   6.244   2.997  0.0792  0.2801 -0.1910
 9429SOL    HW129359   1.456   6.304   2.923  3.2678  1.3670 -0.0230
 9429SOL    HW229360   1.500   6.163   2.957  1.5441  0.7811 -0.1493
 9430SOL     OW29361   1.669   3.906   3.541  0.0849  0.1065  0.1343
 9430SOL    HW129362   1.639   3.903   3.632 -0.1416  0.3843  0.0705
 9430SOL    HW229363   1.739   3.841   3.537 -1.0813 -1.2058  0.0868
 9431SOL     OW29364   5.754   6.073   0.974  0.0203  0.2980 -0.7734
 9431SOL    HW129365   5.831   6.026   1.008  0.3518  0.7933 -0.8296
 9431SOL    HW229366   5.779   6.165   0.978 -1.4145  0.6501  1.3429
 9432SOL     OW29367   1.169   3.891   0.523 -0.1107  0.2199 -0.3038
 9432SOL    HW129368   1.122   3.970   0.497 -1.4523 -0.4873 -0.0907
 9432SOL    HW229369   1.209   3.859   0.442  1.8827  1.9800 -0.1226
 9433SOL     OW29370   1.363   6.950   5.922  0.4554  0.2868 -0.3977
 9433SOL    HW129371   1.329   7.020   5.978 -0.1153  0.2836 -0.7250
 9433SOL    HW229372   1.285   6.914   5.880  0.9128  0.5045 -1.4503
 9434SOL     OW29373   4.609   3.254   7.161  0.0768 -0.0317 -0.4714
 9434SOL    HW129374   4.566   3.305   7.229 -1.5840 -0.4123 -1.1884
 9434SOL    HW229375   4.679   3.207   7.207 -0.3495  0.5120  0.7659
 9435SOL     OW29376   0.885   6.229   1.854 -0.3463  0.0972 -0.0715
 9435SOL    HW129377   0.877   6.147   1.902  0.2002 -0.2061 -0.4767
 9435SOL    HW229378   0.976   6.229   1.822 -0.7774  0.1557 -1.3381
 9436SOL     OW29379   2.294   6.456   5.107 -0.7319  0.1721 -0.0402
 9436SOL    HW129380   2.376   6.414   5.079  0.3467  2.0935  0.0755
 9436SOL    HW229381   2.236   6.448   5.032 -0.8156 -2.0359  0.1932
 9437SOL     OW29382   0.412   3.697   0.934  0.1166  0.0222  0.2650
 9437SOL    HW129383   0.449   3.731   1.016 -1.0943  0.4052  0.6718
 9437SOL    HW229384   0.320   3.724   0.936 -0.6956 -2.5114  0.1807
 9438SOL     OW29385   5.517   7.375   4.742  0.2878  0.1170  0.1132
 9438SOL    HW129386   5.578   7.404   4.810 -1.2107  1.8391  0.7991
 9438SOL    HW229387   5.574   7.337   4.674  2.0274  0.6677  1.1869
 9439SOL     OW29388   6.667   1.199   4.269  0.0146  0.4163 -0.8540
 9439SOL    HW129389   6.638   1.174   4.182 -0.5356 -2.0282 -0.0372
 9439SOL    HW229390   6.701   1.118   4.307 -0.9306  1.0993  1.6301
 9440SOL     OW29391   1.434   4.720   2.947 -0.3958  0.2282  0.3682
 9440SOL    HW129392   1.473   4.717   3.035  1.5914  0.0115 -0.4614
 9440SOL    HW229393   1.451   4.633   2.911 -0.4467  0.5836 -0.5218
 9441SOL     OW29394   7.742   0.164   4.652 -0.3837  0.0668 -0.0936
 9441SOL    HW129395   7.712   0.115   4.576 -0.8692 -1.1411  0.8428
 9441SOL    HW229396   7.822   0.207   4.623 -1.1966  0.6353 -1.6359
 9442SOL     OW29397   6.843   7.541   7.532 -0.4593 -0.5553  0.3298
 9442SOL    HW129398   6.903   7.605   7.571 -1.4689  1.0540 -0.6447
 9442SOL    HW229399   6.897   7.489   7.474  0.0472  0.8410 -0.4948
 9443SOL     OW29400   6.748   3.582   7.508 -0.0040 -0.1948  0.3189
 9443SOL    HW129401   6.654   3.599   7.509  0.0648  0.5435 -1.6113
 9443SOL    HW229402   6.787   3.660   7.547 -0.1040  0.4271 -0.8040
 9444SOL     OW29403   0.268   5.498   0.501  0.4146 -0.2986 -0.6789
 9444SOL    HW129404   0.226   5.580   0.476  1.6612  0.2125 -1.1515
 9444SOL    HW229405   0.272   5.447   0.420 -0.1415 -0.7521 -0.4353
 9445SOL     OW29406   3.773   6.549   5.383  0.4391  0.6603 -0.4721
 9445SOL    HW129407   3.823   6.495   5.322  0.9994 -0.1501  0.6612
 9445SOL    HW229408   3.744   6.487   5.450 -1.5707  1.2208 -0.7590
 9446SOL     OW29409   5.058   2.171   7.886 -0.0077 -0.3888 -0.1256
 9446SOL    HW129410   5.149   2.185   7.861 -0.0228 -2.1583 -1.3736
 9446SOL    HW229411   5.036   2.246   7.941  2.9297 -1.1264  2.2899
 9447SOL     OW29412   2.789   2.010   1.948  0.2270  0.6618  0.0768
 9447SOL    HW129413   2.787   2.056   2.032 -0.5888 -0.5155  0.7405
 9447SOL    HW229414   2.704   2.029   1.908 -0.9462 -1.6853  1.2205
 9448SOL     OW29415   5.249   4.522   0.963 -0.6625 -0.2853  0.2073
 9448SOL    HW129416   5.213   4.434   0.974 -0.8165  0.0422  3.2112
 9448SOL    HW229417   5.174   4.575   0.938 -1.4306 -0.4184  2.0404
 9449SOL     OW29418   3.166   2.498   8.014 -0.1475  0.4480 -0.5504
 9449SOL    HW129419   3.261   2.509   8.023  0.0222  1.2457 -2.8453
 9449SOL    HW229420   3.131   2.533   8.096  1.4582  1.9103 -0.4130
 9450SOL     OW29421   3.318   4.317   5.337  0.4248 -0.6880  0.0614
 9450SOL    HW129422   3.298   4.236   5.384  0.4701 -0.7020  0.0564
 9450SOL    HW229423   3.257   4.382   5.373 -0.3945 -0.9964 -0.7278
 9451SOL     OW29424   0.903   2.957   0.779 -0.0859  0.0042  0.4133
 9451SOL    HW129425   0.995   2.964   0.804  0.1875  1.2550 -0.8270
 9451SOL    HW229426   0.856   3.012   0.842  0.4295  1.9531 -0.8094
 9452SOL     OW29427   0.500   7.586   0.203  0.0112 -0.8894  0.6819
 9452SOL    HW129428   0.552   7.522   0.154  0.5942  0.5374 -0.6500
 9452SOL    HW229429   0.454   7.636   0.135 -0.7610 -0.1848  1.7055
 9453SOL     OW29430   4.060   3.109   5.067 -0.3006 -0.3477 -0.0476
 9453SOL    HW129431   4.001   3.178   5.096 -0.3794 -0.3414 -0.2185
 9453SOL    HW229432   4.057   3.043   5.136  1.8427  1.0130  1.4471
 9454SOL     OW29433   0.451   1.441   6.641  0.2525 -0.6581 -0.5923
 9454SOL    HW129434   0.494   1.509   6.589  0.2618 -0.9627 -0.9860
 9454SOL    HW229435   0.424   1.486   6.722  0.2590 -0.1912 -0.8461
 9455SOL     OW29436   6.265   4.350   0.272  0.1339 -0.3952 -0.5458
 9455SOL    HW129437   6.315   4.428   0.297  0.9452 -0.5066 -1.7725
 9455SOL    HW229438   6.277   4.342   0.178  1.3466 -2.8715 -0.2627
 9456SOL     OW29439   2.070   8.161   2.397 -0.4053  0.5278  0.0817
 9456SOL    HW129440   2.105   8.125   2.315  1.5023  0.7863  0.7393
 9456SOL    HW229441   2.123   8.239   2.414  0.2202 -0.2876  2.2641
 9457SOL     OW29442   1.684   3.150   6.315  0.0006 -0.5492 -0.4381
 9457SOL    HW129443   1.599   3.166   6.356  0.3703 -0.1834  0.1936
 9457SOL    HW229444   1.676   3.062   6.277  0.0810 -1.4626  1.5563
 9458SOL     OW29445   7.807   2.849   3.876  0.2846 -0.4976 -0.0958
 9458SOL    HW129446   7.730   2.826   3.824  0.6550 -1.3284 -0.2951
 9458SOL    HW229447   7.798   2.942   3.892 -1.5079 -0.8355  1.1039
 9459SOL     OW29448   3.316   7.226   6.691 -0.2546  1.3697 -0.3451
 9459SOL    HW129449   3.381   7.284   6.651  3.1884 -0.7002  1.6885
 9459SOL    HW229450   3.327   7.239   6.785 -0.6711 -1.1423  0.1310
 9460SOL     OW29451   0.422   0.217   0.491 -0.1269 -0.3338  0.3579
 9460SOL    HW129452   0.428   0.163   0.413  4.1011 -0.1072  0.3220
 9460SOL    HW229453   0.405   0.305   0.458  1.1451 -0.3202 -0.3231
 9461SOL     OW29454   3.911   1.990   3.133  0.7260  0.2912  0.5658
 9461SOL    HW129455   3.854   1.962   3.204  0.8720 -0.3724  0.4296
 9461SOL    HW229456   3.969   1.915   3.117  2.2598  1.2659  1.3130
 9462SOL     OW29457   6.859   3.632   6.886  0.8008 -0.3897 -0.5855
 9462SOL    HW129458   6.932   3.593   6.935  0.4550 -1.0275 -0.5629
 9462SOL    HW229459   6.831   3.562   6.827  0.1165 -0.1901 -0.4988
 9463SOL     OW29460   3.464   7.717   0.838  0.0197 -0.3864 -0.4019
 9463SOL    HW129461   3.555   7.731   0.864 -0.3897 -0.2132  1.0040
 9463SOL    HW229462   3.457   7.622   0.826 -0.0739 -0.6526  1.4249
 9464SOL     OW29463   4.034   3.684   6.752 -0.2916 -0.1425  0.3145
 9464SOL    HW129464   3.939   3.682   6.744 -0.4664  0.9400  1.6491
 9464SOL    HW229465   4.057   3.600   6.791 -0.3331 -1.6730 -2.7318
 9465SOL     OW29466   2.435   1.463   1.749 -0.1878 -0.2639  0.3882
 9465SOL    HW129467   2.505   1.494   1.691 -0.4852 -0.4589 -0.0772
 9465SOL    HW229468   2.365   1.527   1.739 -0.3136 -0.4004  0.3942
 9466SOL     OW29469   5.668   3.742   1.551  0.5727  0.2249  0.6604
 9466SOL    HW129470   5.581   3.765   1.585  0.8809  0.1401  1.5300
 9466SOL    HW229471   5.727   3.752   1.626  1.2429 -0.1633  0.2004
 9467SOL     OW29472   5.250   4.450   6.387 -0.8279  0.1976 -0.9149
 9467SOL    HW129473   5.291   4.365   6.403 -1.8311  0.0070  0.9613
 9467SOL    HW229474   5.322   4.507   6.359  0.2830 -0.6838  0.0606
 9468SOL     OW29475   1.640   1.045   0.672  0.3602 -0.8517  0.4639
 9468SOL    HW129476   1.556   1.084   0.650  0.9081  0.1783  0.1586
 9468SOL    HW229477   1.677   1.103   0.739  0.4700 -1.7545  1.2166
 9469SOL     OW29478   1.334   3.846   6.633  0.3687  0.1248  0.2789
 9469SOL    HW129479   1.316   3.916   6.571  0.1299  0.6792  0.9593
 9469SOL    HW229480   1.349   3.891   6.716 -0.3293 -0.6592  0.8445
 9470SOL     OW29481   4.514   4.057   1.183  0.0769  0.1826 -0.2280
 9470SOL    HW129482   4.492   3.968   1.157  0.3549  0.1106 -0.2118
 9470SOL    HW229483   4.527   4.052   1.278  2.7020 -0.3042 -0.5434
 9471SOL     OW29484   2.895   1.255   0.509 -0.1127 -0.1393 -0.6745
 9471SOL    HW129485   2.846   1.326   0.468  0.3515 -0.6473 -2.1586
 9471SOL    HW229486   2.881   1.267   0.603 -1.6832  0.7183 -0.9910
 9472SOL     OW29487   3.979   4.633   2.218 -0.0384  0.2845  0.5122
 9472SOL    HW129488   3.924   4.710   2.221  1.9039  1.7908 -0.3781
 9472SOL    HW229489   3.940   4.577   2.151 -0.1918  1.5385 -0.4599
 9473SOL     OW29490   1.080   0.246   7.570 -0.3561 -0.2948  0.1255
 9473SOL    HW129491   1.081   0.206   7.483  1.1858 -0.8800  0.3719
 9473SOL    HW229492   1.040   0.332   7.556  1.1685  0.2183 -1.4820
 9474SOL     OW29493   6.744   0.282   4.426 -0.2893  0.1563  0.1639
 9474SOL    HW129494   6.669   0.222   4.428 -0.5983  0.5444  0.3775
 9474SOL    HW229495   6.793   0.261   4.506 -0.0033 -0.3063 -0.1309
 9475SOL     OW29496   2.451   6.462   3.408 -0.3749 -0.0642 -0.0649
 9475SOL    HW129497   2.365   6.492   3.381 -0.3787  0.8216  0.8811
 9475SOL    HW229498   2.452   6.473   3.503  1.0178  0.5797 -0.1299
 9476SOL     OW29499   0.940   7.244   0.908  0.1797  0.7622  0.5973
 9476SOL    HW129500   0.871   7.287   0.959 -2.3354  0.0966 -1.9710
 9476SOL    HW229501   0.928   7.151   0.926  0.7315  0.6650  0.4727
 9477SOL     OW29502   4.888   8.088   7.242 -0.4995  0.3622 -0.4325
 9477SOL    HW129503   4.808   8.041   7.219  0.8512 -1.4100 -1.8756
 9477SOL    HW229504   4.923   8.119   7.158 -0.2293  2.1321  0.2909
 9478SOL     OW29505   2.300   7.126   1.371  0.1459  0.9755 -0.1626
 9478SOL    HW129506   2.309   7.145   1.465 -1.0832 -0.8142  0.3679
 9478SOL    HW229507   2.361   7.186   1.329  0.4674  2.0834  1.7530
 9479SOL     OW29508   5.127   3.931   7.186 -0.4726  0.1369 -0.5095
 9479SOL    HW129509   5.112   3.971   7.100 -3.0592  1.0432  0.2719
 9479SOL    HW229510   5.217   3.955   7.208 -0.2726  1.2243 -2.2967
 9480SOL     OW29511   6.813   6.741   3.450 -0.7142  0.4314 -0.7747
 9480SOL    HW129512   6.789   6.691   3.528  0.4944 -1.0371 -1.2754
 9480SOL    HW229513   6.845   6.674   3.388 -1.5684  1.5526 -2.5013
 9481SOL     OW29514   6.580   4.996   6.448  0.2078 -0.0443  0.0420
 9481SOL    HW129515   6.489   4.974   6.469  0.3672  0.5096  1.3782
 9481SOL    HW229516   6.615   4.916   6.409 -1.0172 -0.0668 -1.0966
 9482SOL     OW29517   2.339   5.229   7.425 -0.1825  0.0473 -0.3416
 9482SOL    HW129518   2.272   5.162   7.410  1.4946 -2.0389  0.8570
 9482SOL    HW229519   2.374   5.247   7.338  0.8670 -2.4200 -0.5167
 9483SOL     OW29520   7.061   7.310   7.677 -0.4915  0.5972  0.3927
 9483SOL    HW129521   7.032   7.281   7.591  2.0728 -1.1970  0.0347
 9483SOL    HW229522   7.139   7.363   7.659 -0.4882  1.0262  1.5834
 9484SOL     OW29523   2.688   7.799   5.877 -0.0826  0.0228 -0.6680
 9484SOL    HW129524   2.765   7.856   5.882 -0.1119  0.1731 -1.7010
 9484SOL    HW229525   2.691   7.763   5.788  0.5286 -2.4557  0.2861
 9485SOL     OW29526   6.980   5.138   6.150  0.9497 -0.1651 -0.3928
 9485SOL    HW129527   7.000   5.078   6.221  0.2748 -1.6436 -1.3959
 9485SOL    HW229528   7.063   5.181   6.130  0.9171  1.2127  2.0462
 9486SOL     OW29529   8.054   2.734   8.152 -0.3263  0.1964  0.2811
 9486SOL    HW129530   8.026   2.707   8.239 -1.5970 -1.4796 -0.5951
 9486SOL    HW229531   8.083   2.653   8.109 -2.2047  0.4740 -1.7130
 9487SOL     OW29532   7.690   2.918   0.351 -0.3883  0.0853  0.6355
 9487SOL    HW129533   7.699   2.982   0.281 -1.3171 -1.1769 -0.7251
 9487SOL    HW229534   7.728   2.838   0.315 -1.1405 -0.6672  1.4506
 9488SOL     OW29535   5.376   1.788   4.278 -0.4822 -0.1740  0.4247
 9488SOL    HW129536   5.426   1.781   4.359 -1.6855  0.0690  1.2179
 9488SOL    HW229537   5.374   1.882   4.259 -0.1738 -0.2339  0.0908
 9489SOL     OW29538   0.483   3.093   2.398  0.3320 -0.2927 -0.5281
 9489SOL    HW129539   0.504   3.092   2.304 -0.0287  0.1550 -0.6198
 9489SOL    HW229540   0.517   3.010   2.431  1.7047  0.1431 -0.7789
 9490SOL     OW29541   7.963   2.875   5.125  0.4460  0.4746  0.2184
 9490SOL    HW129542   7.921   2.789   5.117 -0.3959  0.9723 -0.9986
 9490SOL    HW229543   7.940   2.905   5.213 -0.5644  0.1027  0.0933
 9491SOL     OW29544   0.373   6.001   1.121 -0.5435 -0.0919  0.1590
 9491SOL    HW129545   0.341   5.966   1.037  1.6472 -0.3510 -0.6399
 9491SOL    HW229546   0.374   5.925   1.179  2.9652 -1.2768 -1.1997
 9492SOL     OW29547   8.111   3.154   7.358 -0.3970 -0.3994  0.2854
 9492SOL    HW129548   8.101   3.138   7.452 -0.5774  0.5972  0.4432
 9492SOL    HW229549   8.095   3.068   7.317  1.2361 -1.2237  1.2540
 9493SOL     OW29550   4.259   0.824   1.310  0.4053 -0.6025  0.1488
 9493SOL    HW129551   4.194   0.754   1.304 -0.5882  0.4023 -1.2132
 9493SOL    HW229552   4.332   0.784   1.358  1.0854 -3.4956 -2.9460
 9494SOL     OW29553   1.511   0.275   5.459 -0.3900 -0.3462 -0.1576
 9494SOL    HW129554   1.439   0.310   5.511 -0.4669  0.6858 -0.9296
 9494SOL    HW229555   1.574   0.346   5.454  0.3109 -0.9615 -0.1874
 9495SOL     OW29556   1.711   5.629   6.202 -0.7917 -0.1209 -0.2727
 9495SOL    HW129557   1.755   5.687   6.264  0.3455 -0.6770 -0.5256
 9495SOL    HW229558   1.677   5.688   6.134 -2.0486  0.4889  0.8509
 9496SOL     OW29559   2.019   4.464   3.842 -0.3513  0.1914 -0.1629
 9496SOL    HW129560   2.034   4.500   3.930 -1.0562 -0.4444  0.2211
 9496SOL    HW229561   1.997   4.372   3.857 -1.5395  0.3385 -0.9228
 9497SOL     OW29562   3.714   4.102   5.227  0.5888 -0.0713  0.1528
 9497SOL    HW129563   3.636   4.049   5.212 -1.9139  3.9486 -3.0824
 9497SOL    HW229564   3.779   4.064   5.167 -0.4238 -0.7254 -0.5716
 9498SOL     OW29565   2.309   7.844   2.159 -0.0668 -0.5634  0.5384
 9498SOL    HW129566   2.234   7.865   2.215  1.1776  0.8871  1.7181
 9498SOL    HW229567   2.290   7.755   2.128 -2.5491 -0.0322  0.3017
 9499SOL     OW29568   6.428   4.748   3.169 -0.0710 -0.1901  0.4806
 9499SOL    HW129569   6.458   4.776   3.255 -1.8644 -1.1257  1.4813
 9499SOL    HW229570   6.347   4.797   3.154  0.4048  0.2246 -0.8468
 9500SOL     OW29571   0.194   0.951   7.148  0.2283  0.5855 -0.4633
 9500SOL    HW129572   0.121   0.990   7.100 -0.4360 -0.5728 -0.4412
 9500SOL    HW229573   0.259   0.931   7.081 -1.4103 -2.6689 -1.2846
 9501SOL     OW29574   0.598   1.030   3.179  0.4878 -0.3852 -0.1118
 9501SOL    HW129575   0.510   1.055   3.206  0.7986 -0.4084  0.9938
 9501SOL    HW229576   0.609   1.070   3.093 -0.8225 -0.9276 -0.5612
 9502SOL     OW29577   2.721   1.407   6.197  0.4976 -0.1001 -0.8087
 9502SOL    HW129578   2.712   1.338   6.131  0.7097 -1.3106  0.3713
 9502SOL    HW229579   2.635   1.408   6.241  0.6839 -0.0213 -0.4458
 9503SOL     OW29580   1.734   6.695   2.376 -0.8940 -0.4605  0.6822
 9503SOL    HW129581   1.768   6.766   2.432 -1.0430  1.0716 -1.0824
 9503SOL    HW229582   1.812   6.660   2.334 -0.8211 -1.3953  1.5546
 9504SOL     OW29583   6.203   1.733   0.448 -0.1333  0.4723 -0.1007
 9504SOL    HW129584   6.120   1.687   0.440 -1.1766  2.2770 -0.1678
 9504SOL    HW229585   6.212   1.751   0.542 -0.3591  1.1814 -0.2050
 9505SOL     OW29586   6.471   2.133   2.135 -0.7846 -0.3462  0.4745
 9505SOL    HW129587   6.442   2.206   2.189 -0.6154 -1.7338  2.5308
 9505SOL    HW229588   6.393   2.077   2.126 -0.8241 -0.1282 -0.7940
 9506SOL     OW29589   5.839   6.773   5.066  0.1670  0.6894 -0.0492
 9506SOL    HW129590   5.836   6.822   4.984 -0.5321  0.1855 -0.3296
 9506SOL    HW229591   5.757   6.796   5.111 -0.7179 -1.0424 -0.6775
 9507SOL     OW29592   4.462   0.472   5.895 -0.5081  0.3396  0.4922
 9507SOL    HW129593   4.547   0.510   5.872 -0.3303  0.4597  1.3052
 9507SOL    HW229594   4.444   0.410   5.825  0.4954 -0.0581  0.5571
 9508SOL     OW29595   5.333   0.963   2.742 -0.0741 -0.4906  0.7137
 9508SOL    HW129596   5.340   1.036   2.804 -0.7437  0.6588 -0.5167
 9508SOL    HW229597   5.376   0.994   2.663 -0.3436 -1.4470  0.1821
 9509SOL     OW29598   1.900   5.883   5.077 -0.7790 -0.4621  0.5316
 9509SOL    HW129599   1.963   5.812   5.063 -0.8235 -0.5624  0.8357
 9509SOL    HW229600   1.953   5.962   5.073 -0.6601 -0.5372  0.6108
 9510SOL     OW29601   6.817   2.067   6.793  0.4950 -0.2036 -0.2723
 9510SOL    HW129602   6.855   2.118   6.864 -2.7438  1.2853  0.6083
 9510SOL    HW229603   6.850   1.978   6.806  0.7784  0.2203  2.5513
 9511SOL     OW29604   4.641   4.645   2.181 -0.7458  0.1584 -1.1015
 9511SOL    HW129605   4.629   4.723   2.128 -2.9186  1.9139  1.6386
 9511SOL    HW229606   4.557   4.598   2.174 -0.9375  0.2225  0.3369
 9512SOL     OW29607   7.554   3.100   0.845 -0.2680  0.1679  0.1848
 9512SOL    HW129608   7.614   3.063   0.781 -1.4042  0.2271 -0.9498
 9512SOL    HW229609   7.591   3.074   0.930  1.3541  0.2437 -0.4665
 9513SOL     OW29610   1.609   5.855   3.593  0.5690  0.5124  0.2516
 9513SOL    HW129611   1.607   5.782   3.531  1.8936  0.9654 -0.3502
 9513SOL    HW229612   1.569   5.819   3.673 -0.2694 -0.3713 -0.5308
 9514SOL     OW29613   4.177   5.365   1.149 -0.0592 -0.1771 -0.4691
 9514SOL    HW129614   4.195   5.286   1.200 -0.1653 -0.3374 -0.6797
 9514SOL    HW229615   4.198   5.340   1.059  1.6330  0.5631 -0.3222
 9515SOL     OW29616   2.408   6.120   6.148 -0.1443 -0.5492 -0.5611
 9515SOL    HW129617   2.372   6.098   6.234 -2.5361  0.7288 -1.1110
 9515SOL    HW229618   2.359   6.065   6.087 -1.1978  1.1663 -1.3482
 9516SOL     OW29619   1.333   4.349   5.739 -0.0434 -0.0183 -0.2786
 9516SOL    HW129620   1.372   4.275   5.693  2.0686  1.3631 -0.8885
 9516SOL    HW229621   1.359   4.337   5.830  0.0524 -0.1971 -0.3287
 9517SOL     OW29622   4.735   2.903   1.030 -0.0739 -0.2679  0.2866
 9517SOL    HW129623   4.767   2.822   1.068  0.9964 -0.7472 -1.5429
 9517SOL    HW229624   4.776   2.972   1.082 -2.9986 -0.7198  3.5671
 9518SOL     OW29625   6.690   8.077   1.555  0.1023  0.6551 -0.5392
 9518SOL    HW129626   6.713   8.126   1.634 -0.0395  1.1622 -0.8119
 9518SOL    HW229627   6.641   8.001   1.587 -0.4896  1.1840 -0.1930
 9519SOL     OW29628   4.887   4.184   1.490 -0.1108  0.1524  0.4027
 9519SOL    HW129629   4.850   4.270   1.513  0.5696  0.5420  0.0727
 9519SOL    HW229630   4.924   4.151   1.571 -2.6196 -1.0100  1.1618
 9520SOL     OW29631   0.362   6.976   1.097 -0.3609  0.3936  0.0814
 9520SOL    HW129632   0.351   7.061   1.053 -0.1736  1.3300  1.7669
 9520SOL    HW229633   0.277   6.934   1.090 -1.4857  2.1730  2.0929
 9521SOL     OW29634   3.652   1.428   6.784  0.0599 -0.0063 -0.0133
 9521SOL    HW129635   3.581   1.365   6.773  0.0719  0.2676 -2.0921
 9521SOL    HW229636   3.702   1.395   6.859 -1.2328 -1.1675  0.3889
 9522SOL     OW29637   7.665   2.664   7.797 -0.1682 -0.4763  0.2345
 9522SOL    HW129638   7.720   2.647   7.874  0.3551  1.0090  0.2231
 9522SOL    HW229639   7.715   2.627   7.724  0.1831 -0.3158  0.3908
 9523SOL     OW29640   2.625   6.806   2.980  0.4251 -0.3340  0.0545
 9523SOL    HW129641   2.646   6.717   2.952  0.1759 -0.0868 -0.9444
 9523SOL    HW229642   2.530   6.812   2.972  0.4841  0.1551 -0.2837
 9524SOL     OW29643   1.659   5.344   1.674  0.3712 -0.3771 -0.4972
 9524SOL    HW129644   1.652   5.261   1.627 -0.3206 -0.2856 -0.5757
 9524SOL    HW229645   1.630   5.324   1.763 -0.0630 -0.1729 -0.5860
 9525SOL     OW29646   1.613   0.814   1.576  0.0760  0.3597 -0.0981
 9525SOL    HW129647   1.611   0.789   1.484  1.6619  0.3243 -0.1611
 9525SOL    HW229648   1.531   0.860   1.591  0.1955  1.1926 -1.7709
 9526SOL     OW29649   8.123   1.646   4.819 -0.0972  0.4684 -0.0680
 9526SOL    HW129650   8.177   1.704   4.764  2.1919 -0.9097  0.6024
 9526SOL    HW229651   8.084   1.584   4.758 -0.5543  1.1719 -0.5069
 9527SOL     OW29652   1.291   1.934   7.068  0.4243 -0.0153 -0.3062
 9527SOL    HW129653   1.247   2.018   7.055  0.0787 -0.2657 -0.8352
 9527SOL    HW229654   1.340   1.920   6.986 -1.7008 -1.5867 -1.4156
 9528SOL     OW29655   4.987   4.574   1.645  0.4825  0.2375 -0.0991
 9528SOL    HW129656   5.018   4.635   1.579 -0.4253 -0.2273 -0.9799
 9528SOL    HW229657   4.995   4.622   1.728 -0.2581  1.5713 -0.7717
 9529SOL     OW29658   5.925   0.842   6.817  0.1456 -0.0210  0.4114
 9529SOL    HW129659   5.940   0.876   6.729 -0.5716  1.8043  0.9516
 9529SOL    HW229660   6.006   0.794   6.839  1.2597  1.4393 -0.3729
 9530SOL     OW29661   4.380   0.238   4.697  0.3779  0.6770  0.0063
 9530SOL    HW129662   4.374   0.314   4.640  1.0230  0.3250 -0.5453
 9530SOL    HW229663   4.312   0.252   4.763 -0.2060  1.2187 -0.6935
 9531SOL     OW29664   4.111   1.817   3.798 -0.2767  0.6469 -0.3720
 9531SOL    HW129665   4.021   1.804   3.829 -0.1734  0.7309 -0.0233
 9531SOL    HW229666   4.165   1.781   3.869  0.0270  2.9479  0.6325
 9532SOL     OW29667   3.028   3.426   6.774 -0.2974  0.0110  0.1047
 9532SOL    HW129668   2.962   3.406   6.840 -0.0713  0.1613  0.3768
 9532SOL    HW229669   3.059   3.340   6.743  1.8362 -0.1688  2.4177
 9533SOL     OW29670   5.806   7.756   2.250 -0.7815 -1.2243  0.3798
 9533SOL    HW129671   5.783   7.813   2.323 -0.5371 -1.0920  0.3531
 9533SOL    HW229672   5.728   7.702   2.237 -1.8003  0.4131 -0.8502
 9534SOL     OW29673   0.870   4.879   0.828 -0.6727 -0.5250  0.3869
 9534SOL    HW129674   0.880   4.958   0.881  0.3963 -0.5788  0.2909
 9534SOL    HW229675   0.924   4.896   0.751  0.4516 -1.7723  0.8658
 9535SOL     OW29676   5.230   8.078   3.478 -0.0789 -0.2782 -0.3454
 9535SOL    HW129677   5.273   8.103   3.560  3.0843 -2.2635 -1.2533
 9535SOL    HW229678   5.142   8.052   3.505  0.2232  0.9181  2.1114
 9536SOL     OW29679   0.375   3.023   6.486  0.0572 -0.1233  0.6431
 9536SOL    HW129680   0.353   3.115   6.502 -0.6969  0.1515 -1.5853
 9536SOL    HW229681   0.471   3.023   6.479  0.0048  0.7648 -0.5206
 9537SOL     OW29682   4.929   0.583   0.305 -0.1840  0.1933  0.1529
 9537SOL    HW129683   4.907   0.577   0.398  0.2169 -1.5033  0.1810
 9537SOL    HW229684   4.936   0.677   0.287 -1.3832  0.5813  1.5489
 9538SOL     OW29685   4.978   5.028   3.148  0.0699  0.8075 -0.6373
 9538SOL    HW129686   5.021   4.984   3.074  1.1053  0.8560 -0.0905
 9538SOL    HW229687   4.935   5.104   3.109 -0.8405 -0.0931 -1.4375
 9539SOL     OW29688   6.052   3.522   8.091  0.0326  0.6178  0.2228
 9539SOL    HW129689   6.139   3.517   8.132  0.8505 -1.3483 -1.5643
 9539SOL    HW229690   6.048   3.445   8.035 -2.4286  1.3167 -0.6721
 9540SOL     OW29691   0.894   6.545   1.053  0.0625  0.2747  0.5777
 9540SOL    HW129692   0.799   6.529   1.055  0.3225 -1.9072 -1.0297
 9540SOL    HW229693   0.933   6.458   1.051  2.0329  1.1213 -0.6962
 9541SOL     OW29694   0.540   5.555   6.391 -0.2990 -0.0432 -0.2014
 9541SOL    HW129695   0.477   5.575   6.461 -0.7010 -0.0935 -0.5482
 9541SOL    HW229696   0.503   5.480   6.346 -0.3364  0.3546 -0.8378
 9542SOL     OW29697   7.225   4.125   4.841 -0.7443 -0.1110 -0.0879
 9542SOL    HW129698   7.216   4.030   4.837 -0.6376 -0.0917 -0.8319
 9542SOL    HW229699   7.148   4.159   4.795 -0.6022  0.1608 -0.1283
 9543SOL     OW29700   3.019   1.888   2.003  0.5687  0.1289  0.2922
 9543SOL    HW129701   2.961   1.960   1.977  0.9109 -0.1012 -1.1981
 9543SOL    HW229702   3.035   1.903   2.097 -2.0359  0.0585  0.8205
 9544SOL     OW29703   3.886   0.029   5.571  0.6217  0.6224  0.0427
 9544SOL    HW129704   3.915   0.109   5.528 -0.3444  1.6254  1.1638
 9544SOL    HW229705   3.791   0.041   5.583  0.5079 -0.5588  0.4780
 9545SOL     OW29706   2.300   3.088   5.519  0.4324 -0.0198  0.0942
 9545SOL    HW129707   2.208   3.066   5.505  0.4307 -1.0728  1.5417
 9545SOL    HW229708   2.299   3.182   5.538 -0.8825 -0.5788  3.6221
 9546SOL     OW29709   6.890   0.497   1.949  0.5251 -0.3713 -0.4908
 9546SOL    HW129710   6.866   0.549   2.026  1.3217 -0.9243  0.1494
 9546SOL    HW229711   6.874   0.407   1.976  0.5769 -0.5537 -1.0676
 9547SOL     OW29712   1.058   0.833   1.188 -0.8066 -0.4152 -0.0829
 9547SOL    HW129713   1.027   0.900   1.249 -0.2083 -0.0281 -0.1972
 9547SOL    HW229714   1.057   0.752   1.239 -1.2322 -0.2682  0.1514
 9548SOL     OW29715   4.768   1.977   7.304 -0.2467 -0.2253 -0.1511
 9548SOL    HW129716   4.817   1.989   7.386 -0.5335  1.0613 -0.1420
 9548SOL    HW229717   4.676   1.977   7.330 -0.3845  1.0659 -0.5257
 9549SOL     OW29718   2.664   4.453   5.202  0.2989 -0.8504  0.7123
 9549SOL    HW129719   2.636   4.541   5.176  0.4536 -1.0043 -0.0218
 9549SOL    HW229720   2.725   4.426   5.133  0.6149 -1.3497  1.1759
 9550SOL     OW29721   7.016   1.038   4.798 -0.7908  0.0031 -0.1565
 9550SOL    HW129722   6.941   1.088   4.768 -0.7238 -0.0354 -0.3885
 9550SOL    HW229723   7.076   1.103   4.833 -0.6657  0.0909 -0.5370
 9551SOL     OW29724   2.130   5.145   5.698  0.5455  0.2638  0.2353
 9551SOL    HW129725   2.144   5.152   5.792  0.1649 -0.2861  0.3415
 9551SOL    HW229726   2.214   5.169   5.659  0.8983 -0.1285  0.7383
 9552SOL     OW29727   4.967   1.391   2.251  0.4753  0.4180  0.0683
 9552SOL    HW129728   4.907   1.360   2.183  1.9203  1.5664 -1.8631
 9552SOL    HW229729   5.014   1.313   2.279  1.4770  0.1949 -2.0166
 9553SOL     OW29730   5.983   5.928   5.600  0.1928 -0.0628 -0.0972
 9553SOL    HW129731   5.926   5.851   5.590  0.2807 -0.3483  1.3895
 9553SOL    HW229732   6.003   5.931   5.694  0.2180  1.7660 -0.1324
 9554SOL     OW29733   1.769   4.666   3.363 -0.1807 -0.1753  0.5674
 9554SOL    HW129734   1.728   4.644   3.446  0.7950 -0.7278  0.9291
 9554SOL    HW229735   1.780   4.582   3.319 -1.4122  0.1916 -0.4889
 9555SOL     OW29736   3.951   1.168   2.170 -0.6958  0.2555  0.0528
 9555SOL    HW129737   3.890   1.109   2.216 -1.3849  0.9831  0.0946
 9555SOL    HW229738   3.901   1.201   2.096  0.6425 -1.4888 -1.7264
 9556SOL     OW29739   2.421   6.347   1.589  0.7381  0.4128 -0.2843
 9556SOL    HW129740   2.451   6.421   1.642 -0.0916 -0.2828  1.2177
 9556SOL    HW229741   2.429   6.271   1.647  1.5808 -0.7090 -1.7976
 9557SOL     OW29742   6.208   2.071   2.167  0.0781 -0.2866  0.6680
 9557SOL    HW129743   6.161   2.064   2.084 -1.0810  1.6097  1.1193
 9557SOL    HW229744   6.140   2.077   2.233  0.9736  0.0735  1.5925
 9558SOL     OW29745   2.563   7.825   7.950 -0.2117  0.0856  0.3305
 9558SOL    HW129746   2.593   7.817   8.040 -0.4948 -0.7512  0.3589
 9558SOL    HW229747   2.605   7.752   7.904  0.2860  0.7551 -0.3236
 9559SOL     OW29748   4.804   0.811   4.046 -0.1129  0.1883  0.3852
 9559SOL    HW129749   4.825   0.812   4.139 -2.6435 -0.1800  1.0296
 9559SOL    HW229750   4.776   0.721   4.029 -0.5015  0.4659 -0.5009
 9560SOL     OW29751   4.780   0.653   6.557  0.4241 -0.1932 -0.0423
 9560SOL    HW129752   4.737   0.641   6.472  0.2835  0.7782 -0.1207
 9560SOL    HW229753   4.871   0.673   6.536  0.1316  1.2907 -0.0501
 9561SOL     OW29754   6.280   3.589   6.071  0.2139 -0.6304  0.1410
 9561SOL    HW129755   6.322   3.667   6.109 -1.2942  0.0045  0.5942
 9561SOL    HW229756   6.290   3.521   6.138  0.6582 -0.5364  0.1732
 9562SOL     OW29757   6.493   0.433   3.353  0.1090  0.3948  0.2256
 9562SOL    HW129758   6.529   0.518   3.380  1.1111 -0.1091  0.5333
 9562SOL    HW229759   6.503   0.377   3.431 -0.8596  0.0845  0.1349
 9563SOL     OW29760   3.499   3.363   7.730 -0.6559  0.0861 -0.2852
 9563SOL    HW129761   3.478   3.402   7.815  0.8842  0.1924  0.0656
 9563SOL    HW229762   3.560   3.292   7.749 -0.6534 -0.2045 -1.2696
 9564SOL     OW29763   7.776   7.518   6.861  0.1000  0.0912  0.1629
 9564SOL    HW129764   7.799   7.516   6.768  0.3929 -1.7457  0.2448
 9564SOL    HW229765   7.819   7.597   6.894 -0.1715  0.8807 -1.2863
 9565SOL     OW29766   7.043   3.567   1.825 -0.0430 -0.2180  0.0661
 9565SOL    HW129767   6.999   3.484   1.844 -0.1306 -0.2826 -0.3932
 9565SOL    HW229768   6.979   3.635   1.845 -0.2371 -0.2976 -0.2745
 9566SOL     OW29769   4.448   3.529   0.724  0.2898 -0.2012 -0.3304
 9566SOL    HW129770   4.368   3.507   0.772 -0.1354 -0.2746 -1.0638
 9566SOL    HW229771   4.499   3.581   0.786 -2.2957  3.9049 -1.2776
 9567SOL     OW29772   3.855   6.348   5.956  0.4046 -0.6837 -0.2317
 9567SOL    HW129773   3.841   6.309   5.869  0.9236  1.1307 -1.1759
 9567SOL    HW229774   3.859   6.442   5.940  0.8464 -0.3237  1.7350
 9568SOL     OW29775   6.157   2.768   7.035 -0.4357  0.5815  0.2607
 9568SOL    HW129776   6.139   2.831   7.106 -0.4184  0.3677  0.4569
 9568SOL    HW229777   6.196   2.820   6.966 -0.2900  0.7650  0.4785
 9569SOL     OW29778   0.617   0.736   7.663  0.5748  0.1484 -0.4703
 9569SOL    HW129779   0.523   0.717   7.666  0.1189  1.9270 -1.9473
 9569SOL    HW229780   0.631   0.773   7.576  2.2636  1.8111  0.4387
 9570SOL     OW29781   5.803   5.379   1.727 -0.1278 -0.4114  0.3757
 9570SOL    HW129782   5.729   5.429   1.760  0.3414  1.1898 -0.8477
 9570SOL    HW229783   5.877   5.406   1.781  1.1174  3.8300 -2.8483
 9571SOL     OW29784   4.607   7.671   6.238  0.2959 -0.0149  0.0029
 9571SOL    HW129785   4.630   7.758   6.205 -0.8651  1.2190  2.1854
 9571SOL    HW229786   4.648   7.667   6.324  0.0800 -1.5214  0.0482
 9572SOL     OW29787   5.144   0.930   1.955  0.2859  0.6699 -0.0697
 9572SOL    HW129788   5.190   1.002   1.913  2.4815 -0.2287  0.6459
 9572SOL    HW229789   5.160   0.855   1.898  0.7590  0.0832  0.8181
 9573SOL     OW29790   2.169   4.030   7.029 -0.8707 -0.6516  0.1228
 9573SOL    HW129791   2.081   4.019   6.994 -0.8035 -0.2268 -0.1976
 9573SOL    HW229792   2.175   4.124   7.050 -0.5737 -0.7189  0.3522
 9574SOL     OW29793   1.473   7.387   3.379  0.4670  0.4894 -0.4478
 9574SOL    HW129794   1.497   7.300   3.412  0.1733  1.1961  1.7858
 9574SOL    HW229795   1.542   7.409   3.317  1.9447 -0.3173  0.8242
 9575SOL     OW29796   0.107   6.897   7.105  0.1643 -0.1220 -0.8869
 9575SOL    HW129797   0.102   6.865   7.015 -1.0469 -3.4441  0.2054
 9575SOL    HW229798   0.187   6.857   7.140  0.9374  1.6080 -0.5904
 9576SOL     OW29799   0.993   1.726   2.828  0.1201  0.4578  0.2958
 9576SOL    HW129800   0.956   1.814   2.834  1.4326  1.2939 -2.3522
 9576SOL    HW229801   1.065   1.726   2.891 -0.9263  0.6768  1.5169
 9577SOL     OW29802   1.242   0.674   0.783 -0.0814 -0.7027 -0.2962
 9577SOL    HW129803   1.201   0.597   0.745  0.3258 -0.4228 -1.3351
 9577SOL    HW229804   1.265   0.729   0.708  2.0219 -0.7719  0.2158
 9578SOL     OW29805   4.188   6.141   3.872 -0.2678  0.3310  0.0349
 9578SOL    HW129806   4.231   6.136   3.787 -4.3679  3.1325 -2.6057
 9578SOL    HW229807   4.127   6.067   3.872 -0.3559  0.4006  0.5193
 9579SOL     OW29808   4.799   2.533   3.829 -0.2417 -0.0652 -0.1315
 9579SOL    HW129809   4.713   2.525   3.872  0.5528 -0.9263  1.3855
 9579SOL    HW229810   4.818   2.627   3.831 -1.0992  0.1192 -0.3730
 9580SOL     OW29811   2.918   7.882   3.896  0.2174 -0.4196 -0.5386
 9580SOL    HW129812   2.855   7.821   3.933  0.4952 -0.5783 -0.3267
 9580SOL    HW229813   2.888   7.968   3.927  0.8367 -0.6098  0.6264
 9581SOL     OW29814   2.813   0.425   4.779 -0.3331 -0.1945  0.0769
 9581SOL    HW129815   2.816   0.361   4.850 -2.4477  1.1366  1.4558
 9581SOL    HW229816   2.728   0.409   4.737 -1.3490  2.2300  1.0407
 9582SOL     OW29817   3.367   3.862   1.587 -0.1380 -0.2482 -0.4883
 9582SOL    HW129818   3.319   3.815   1.655  1.3001  0.5342  1.1551
 9582SOL    HW229819   3.428   3.798   1.551  1.5970  0.1676  1.5251
 9583SOL     OW29820   3.145   1.228   2.432  0.5928 -0.1117 -0.1871
 9583SOL    HW129821   3.219   1.285   2.455 -0.5905  0.7572  1.7805
 9583SOL    HW229822   3.072   1.289   2.419 -0.2889 -1.0746  0.1596
 9584SOL     OW29823   7.107   1.622   1.078  0.4026 -0.2818  0.3573
 9584SOL    HW129824   7.133   1.640   1.168 -2.2336  0.8759  0.9747
 9584SOL    HW229825   7.026   1.571   1.086  0.7600 -1.1823 -1.3779
 9585SOL     OW29826   1.777   1.451   4.343  0.0338 -0.0345  0.3253
 9585SOL    HW129827   1.721   1.517   4.302  1.1231 -0.5798 -2.2456
 9585SOL    HW229828   1.862   1.494   4.351  0.3652 -0.6314  0.0601
 9586SOL     OW29829   7.745   2.282   5.541 -0.5301 -0.4882 -0.4224
 9586SOL    HW129830   7.707   2.195   5.526 -2.1612 -0.1983  1.5329
 9586SOL    HW229831   7.798   2.299   5.463 -1.0565 -2.7505 -1.3604
 9587SOL     OW29832   0.499   5.791   7.535 -0.2268 -0.0062  0.6510
 9587SOL    HW129833   0.592   5.784   7.553 -0.3775 -0.2348  1.3741
 9587SOL    HW229834   0.460   5.717   7.582 -0.7123 -0.2202 -0.0713
 9588SOL     OW29835   0.115   1.360   6.861 -0.5142 -0.2848  0.1399
 9588SOL    HW129836   0.192   1.314   6.896  1.5665  1.9398 -1.1901
 9588SOL    HW229837   0.062   1.379   6.938  1.1405 -0.3669  1.3558
 9589SOL     OW29838   5.783   5.257   4.556 -0.5470 -0.1798 -0.4494
 9589SOL    HW129839   5.832   5.290   4.481 -0.9306 -1.6526 -1.4125
 9589SOL    HW229840   5.721   5.327   4.577  2.1389  1.8798  1.0584
 9590SOL     OW29841   4.915   3.442   2.765 -0.3537  0.3087 -0.3427
 9590SOL    HW129842   4.839   3.497   2.785 -0.3600 -0.0623  0.6949
 9590SOL    HW229843   4.878   3.366   2.721 -0.5148  0.3889 -0.3481
 9591SOL     OW29844   1.162   7.869   0.566  0.1124  0.7379 -0.7317
 9591SOL    HW129845   1.179   7.798   0.504 -1.1762  0.5680 -0.9319
 9591SOL    HW229846   1.110   7.932   0.516 -2.6141 -0.2856  0.6170
 9592SOL     OW29847   3.355   3.139   0.345 -0.2426 -0.6194 -0.6054
 9592SOL    HW129848   3.360   3.197   0.421  0.9186 -0.6684 -0.6288
 9592SOL    HW229849   3.281   3.172   0.295 -2.0174 -1.5101  1.2796
 9593SOL     OW29850   5.397   2.414   6.067  0.3500  0.1762 -0.5583
 9593SOL    HW129851   5.415   2.486   6.006 -0.1377 -0.7196 -1.8086
 9593SOL    HW229852   5.302   2.402   6.062  0.2886  0.1642  0.4873
 9594SOL     OW29853   0.275   0.828   0.813 -0.4833  0.0697 -0.1719
 9594SOL    HW129854   0.225   0.790   0.886 -1.9058 -0.2554 -1.2848
 9594SOL    HW229855   0.208   0.855   0.750  0.7054  0.8210 -1.1338
 9595SOL     OW29856   3.259   2.012   5.385  0.3611  1.1088  0.6286
 9595SOL    HW129857   3.197   1.942   5.405  1.3045  0.0990  0.1676
 9595SOL    HW229858   3.286   2.046   5.470 -0.4441  1.2179  0.8407
 9596SOL     OW29859   0.777   7.870   0.649  0.3489 -0.3736  0.3784
 9596SOL    HW129860   0.685   7.891   0.663  0.6302  0.6074  0.8528
 9596SOL    HW229861   0.822   7.954   0.652  1.3927 -0.9350  1.2357
 9597SOL     OW29862   0.429   6.010   5.250 -0.3265 -0.6008  0.3510
 9597SOL    HW129863   0.414   5.986   5.341 -0.6987 -0.2940  0.3729
 9597SOL    HW229864   0.400   6.101   5.244 -0.9135 -0.8162 -0.2295
 9598SOL     OW29865   3.898   3.925   3.112 -0.2176 -0.6700 -0.1383
 9598SOL    HW129866   3.851   3.969   3.040 -0.5365  0.1464  0.5497
 9598SOL    HW229867   3.923   3.840   3.076  0.4571  0.0776 -1.5396
 9599SOL     OW29868   8.022   7.802   6.300 -0.3979  0.1980  0.1502
 9599SOL    HW129869   8.017   7.725   6.356 -1.4925 -0.8363 -1.2867
 9599SOL    HW229870   8.107   7.795   6.257 -0.7589 -0.5981 -0.4641
 9600SOL     OW29871   2.891   3.015   7.405 -0.0425 -0.1065  0.5482
 9600SOL    HW129872   2.818   3.026   7.344 -0.4327 -0.5480  0.9277
 9600SOL    HW229873   2.969   3.010   7.349 -0.4537 -1.0591  0.0428
 9601SOL     OW29874   3.466   3.886   5.732 -0.3063 -0.0694  0.0256
 9601SOL    HW129875   3.419   3.847   5.805 -1.3959 -2.2742 -1.7504
 9601SOL    HW229876   3.443   3.979   5.735 -2.8838 -0.6646  0.6257
 9602SOL     OW29877   7.262   6.068   6.724  0.2232  0.0751  0.5212
 9602SOL    HW129878   7.348   6.109   6.734  0.0751  0.3885  0.5233
 9602SOL    HW229879   7.280   5.984   6.682  0.4961  0.3239  0.1262
 9603SOL     OW29880   4.511   0.075   3.395 -0.1757 -0.3659  0.1318
 9603SOL    HW129881   4.515  -0.020   3.403 -1.2556 -0.3225  1.7127
 9603SOL    HW229882   4.532   0.107   3.483  1.0956  0.9198 -0.5879
 9604SOL     OW29883   3.164   6.999   6.811  0.1743 -0.2309 -0.3456
 9604SOL    HW129884   3.174   7.004   6.906  0.0675  0.7844 -0.3731
 9604SOL    HW229885   3.230   7.059   6.776 -0.1799 -0.1371 -0.8803
 9605SOL     OW29886   2.833   1.133   1.225 -0.4541  0.4396 -0.4885
 9605SOL    HW129887   2.776   1.196   1.270  0.2148  0.3696  0.4891
 9605SOL    HW229888   2.909   1.125   1.282 -0.4674 -1.1617 -0.6506
 9606SOL     OW29889   3.681   7.134   7.472  0.0475 -0.1463 -0.3476
 9606SOL    HW129890   3.597   7.131   7.427 -0.1496 -1.7164  0.0715
 9606SOL    HW229891   3.745   7.103   7.407  0.0710 -0.3800 -0.2166
 9607SOL     OW29892   4.262   2.531   6.376 -0.0634  0.2580 -0.3935
 9607SOL    HW129893   4.286   2.623   6.367 -2.9709  1.0645 -0.8955
 9607SOL    HW229894   4.311   2.486   6.307  0.4953  1.6010 -0.8974
 9608SOL     OW29895   1.567   6.466   4.952 -0.2489 -0.2827 -0.3021
 9608SOL    HW129896   1.575   6.523   4.876  1.7700  0.5610  0.4530
 9608SOL    HW229897   1.491   6.499   5.000 -0.5223  0.2364 -1.0892
 9609SOL     OW29898   0.503   2.870   6.714 -0.5694  0.3826  0.4753
 9609SOL    HW129899   0.457   2.800   6.666  1.8493  1.0737 -3.3202
 9609SOL    HW229900   0.504   2.840   6.804 -2.5493 -2.8397 -0.3873
 9610SOL     OW29901   2.722   1.414   7.725 -0.0822  0.1821 -0.6526
 9610SOL    HW129902   2.704   1.321   7.715  0.6956  0.0390 -0.7701
 9610SOL    HW229903   2.789   1.419   7.793  0.7157  0.5550 -1.4349
 9611SOL     OW29904   2.720   1.086   7.405 -0.0155  0.8759 -0.7074
 9611SOL    HW129905   2.633   1.078   7.446  0.7961 -0.0303  0.9682
 9611SOL    HW229906   2.703   1.123   7.319 -1.9232  2.2760  0.1973
 9612SOL     OW29907   5.404   3.610   3.268 -0.7186 -0.0431  0.3194
 9612SOL    HW129908   5.377   3.625   3.177  0.0239  2.4562  0.4363
 9612SOL    HW229909   5.466   3.537   3.263  0.1597  0.7538 -1.3863
 9613SOL     OW29910   4.864   7.587   2.127  0.2784 -0.6727  0.0495
 9613SOL    HW129911   4.922   7.527   2.174  0.7949  0.7867  1.3661
 9613SOL    HW229912   4.911   7.609   2.047  2.2988  1.5183  1.6876
 9614SOL     OW29913   6.600   0.678   1.063  0.1157  0.4382  0.0251
 9614SOL    HW129914   6.628   0.713   0.978 -0.5933  1.4173  0.1840
 9614SOL    HW229915   6.505   0.672   1.055 -0.1223  2.0515  1.3029
 9615SOL     OW29916   2.133   0.843   7.750 -0.0299 -0.1812 -0.2964
 9615SOL    HW129917   2.073   0.816   7.819  2.0026  1.5668  2.3774
 9615SOL    HW229918   2.107   0.792   7.673 -2.6241 -2.0160  1.6411
 9616SOL     OW29919   0.724   5.985   2.609 -0.8759 -0.2552 -0.1363
 9616SOL    HW129920   0.705   5.932   2.687  0.2850  0.5872  0.7672
 9616SOL    HW229921   0.687   6.071   2.629  0.6446  0.3739  0.1351
 9617SOL     OW29922   4.191   1.007   4.686 -0.0065 -0.1992  0.8044
 9617SOL    HW129923   4.258   0.967   4.742 -0.1861 -1.0391  0.4448
 9617SOL    HW229924   4.173   0.940   4.620  1.0860  1.1988 -1.0198
 9618SOL     OW29925   7.729   6.797   7.227 -0.1039  0.4687 -0.1128
 9618SOL    HW129926   7.823   6.815   7.225 -0.5390  3.2098 -2.8911
 9618SOL    HW229927   7.694   6.860   7.290 -0.1180 -0.9173  1.3394
 9619SOL     OW29928   1.696   5.478   0.782 -0.0973  0.2442  0.0487
 9619SOL    HW129929   1.603   5.474   0.762 -0.6527  0.1115  2.2948
 9619SOL    HW229930   1.734   5.405   0.734 -1.0861  0.4797 -1.1360
 9620SOL     OW29931   6.315   2.061   4.975  0.5750  0.0596 -0.6449
 9620SOL    HW129932   6.232   2.109   4.977  0.4581 -0.1456  0.5767
 9620SOL    HW229933   6.316   2.014   5.059  0.4699 -2.4053 -1.9371
 9621SOL     OW29934   3.975   2.509   3.928  0.0363 -0.4932  0.3781
 9621SOL    HW129935   3.886   2.526   3.898 -0.4051 -1.5685  1.0140
 9621SOL    HW229936   4.031   2.557   3.867 -0.9294 -0.6604 -0.6774
 9622SOL     OW29937   0.260   2.926   4.780  0.4609 -0.2537  0.2439
 9622SOL    HW129938   0.283   3.003   4.831 -1.0265 -0.2629  0.9909
 9622SOL    HW229939   0.299   2.941   4.694 -0.7570  1.9085 -0.0072
 9623SOL     OW29940   3.852   4.444   3.958 -0.4772  0.4814  0.1530
 9623SOL    HW129941   3.886   4.530   3.982  1.2214 -0.4362  1.2216
 9623SOL    HW229942   3.898   4.383   4.016 -0.2813 -1.3204 -1.7888
 9624SOL     OW29943   0.418   5.025   5.082  0.5899 -0.3012 -0.7085
 9624SOL    HW129944   0.385   5.017   4.992  0.2463  1.9123 -0.8419
 9624SOL    HW229945   0.356   5.084   5.125  0.4257 -1.7581  1.1961
 9625SOL     OW29946   4.637   4.875   3.752 -0.0634 -0.2529  0.0764
 9625SOL    HW129947   4.644   4.964   3.788 -1.8211 -0.5662  1.2692
 9625SOL    HW229948   4.625   4.819   3.828  2.1751 -1.7265 -0.5565
 9626SOL     OW29949   3.315   6.335   4.191 -0.2786 -0.1196 -0.4760
 9626SOL    HW129950   3.328   6.256   4.139 -0.9618  0.5099 -1.6547
 9626SOL    HW229951   3.299   6.303   4.280  1.3710 -1.2010 -0.5344
 9627SOL     OW29952   6.504   7.102   0.788  0.1477 -0.0161  0.0117
 9627SOL    HW129953   6.453   7.067   0.862  0.5216 -1.3635 -0.3311
 9627SOL    HW229954   6.568   7.161   0.828  0.5681 -0.9939  0.8193
 9628SOL     OW29955   0.557   4.603   2.011  0.3780 -0.0992  0.2349
 9628SOL    HW129956   0.573   4.673   2.075  0.4740 -0.2382  0.3627
 9628SOL    HW229957   0.609   4.530   2.042  1.2620  0.1656 -0.5923
 9629SOL     OW29958   0.756   5.818   5.926  0.1900 -0.1068  0.2595
 9629SOL    HW129959   0.767   5.768   6.007  0.8912  1.8101  1.3989
 9629SOL    HW229960   0.673   5.785   5.890 -1.4824  0.6623  3.0429
 9630SOL     OW29961   7.790   3.435   1.830  0.0936 -0.1890  0.1829
 9630SOL    HW129962   7.805   3.455   1.923 -1.9034 -0.1302  0.5337
 9630SOL    HW229963   7.878   3.436   1.791  1.0172 -0.5355  2.1237
 9631SOL     OW29964   5.130   6.670   1.801  0.3400  0.1542  0.3391
 9631SOL    HW129965   5.125   6.597   1.739  0.8918 -0.8466  1.4375
 9631SOL    HW229966   5.210   6.717   1.776  1.0377 -0.7551  0.8146
 9632SOL     OW29967   4.884   4.351   6.760 -1.0092  0.0792 -0.4438
 9632SOL    HW129968   4.865   4.276   6.816 -2.1482  1.3061  0.8734
 9632SOL    HW229969   4.928   4.313   6.684  2.8460 -1.4158  2.2600
 9633SOL     OW29970   7.518   6.458   8.115  0.3461 -0.4188 -0.3675
 9633SOL    HW129971   7.515   6.388   8.180  0.5402  0.5450  0.7037
 9633SOL    HW229972   7.546   6.535   8.163 -2.0435  0.9580 -1.0078
 9634SOL     OW29973   0.932   8.052   2.493 -0.2255  0.2707 -0.1775
 9634SOL    HW129974   0.902   7.964   2.471 -1.8244  1.2667 -2.2472
 9634SOL    HW229975   0.893   8.108   2.427  2.2547  2.3426 -0.0284
 9635SOL     OW29976   7.922   0.334   2.224  0.1483 -0.1603 -0.1117
 9635SOL    HW129977   7.888   0.306   2.139  0.4952 -0.9515 -0.0058
 9635SOL    HW229978   7.844   0.363   2.272  0.0145  0.8071 -0.8701
 9636SOL     OW29979   4.401   4.102   2.507  0.5279 -0.4526  0.4197
 9636SOL    HW129980   4.380   4.155   2.584  0.7191  2.1200 -1.1867
 9636SOL    HW229981   4.470   4.151   2.462  1.3161 -2.5301 -0.7449
 9637SOL     OW29982   7.569   2.778   5.187 -0.4676  0.1868 -0.3560
 9637SOL    HW129983   7.551   2.749   5.276  0.5894  0.9325  0.1217
 9637SOL    HW229984   7.598   2.869   5.197 -0.6320  0.3752 -1.4900
 9638SOL     OW29985   3.023   5.626   1.085 -0.1990  0.2091 -0.4037
 9638SOL    HW129986   3.014   5.615   0.990 -1.4120 -1.1863 -0.1631
 9638SOL    HW229987   2.946   5.677   1.111 -0.7664 -0.8324  0.0225
 9639SOL     OW29988   6.785   7.284   3.166 -0.3011 -0.4772 -0.1711
 9639SOL    HW129989   6.754   7.375   3.166 -0.5270 -0.5269 -1.8708
 9639SOL    HW229990   6.880   7.291   3.159 -0.3518 -0.3612 -0.8160
 9640SOL     OW29991   1.368   0.819   6.111 -0.4807  0.7485 -0.2953
 9640SOL    HW129992   1.312   0.878   6.060 -0.2269  0.6334 -0.7091
 9640SOL    HW229993   1.367   0.737   6.062  0.3961  0.8754 -0.5268
 9641SOL     OW29994   2.635   2.807   1.831 -0.0961 -0.3751 -0.0932
 9641SOL    HW129995   2.593   2.876   1.882  0.3126  0.0125 -0.2715
 9641SOL    HW229996   2.693   2.854   1.771  2.2306 -0.9263  1.5541
 9642SOL     OW29997   5.714   5.328   2.208 -0.0713  0.0283  0.1193
 9642SOL    HW129998   5.668   5.408   2.182 -1.8367 -0.4215  1.5938
 9642SOL    HW229999   5.644   5.264   2.220  1.0869 -1.0774  1.2455
 9643SOL     OW30000   6.404   7.157   3.817 -0.5633  0.2828 -1.0138
 9643SOL    HW130001   6.442   7.132   3.733 -1.1074 -0.6703 -1.0008
 9643SOL    HW230002   6.423   7.250   3.826 -0.9887  0.5320 -2.4578
 9644SOL     OW30003   3.238   2.260   2.827  0.3334  0.3198 -0.8183
 9644SOL    HW130004   3.266   2.255   2.736  0.2317  1.1680 -0.9020
 9644SOL    HW230005   3.265   2.347   2.856  0.9328 -0.1731  0.1521
 9645SOL     OW30006   7.870   3.430   3.984  0.1070  0.3168  0.1587
 9645SOL    HW130007   7.954   3.393   4.012  0.5808  0.7312 -0.6718
 9645SOL    HW230008   7.845   3.376   3.908  0.3623  1.1134 -0.5065
 9646SOL     OW30009   2.831   0.219   3.749  0.4092  0.2505  0.1981
 9646SOL    HW130010   2.739   0.243   3.758  0.6197  0.8732  0.8093
 9646SOL    HW230011   2.840   0.138   3.800  0.4316  0.8129  1.1063
 9647SOL     OW30012   0.206   7.757   2.240  0.1591 -0.2066 -0.8128
 9647SOL    HW130013   0.221   7.697   2.314  0.2429 -2.5707 -2.6178
 9647SOL    HW230014   0.294   7.788   2.217  0.2631 -0.3737 -0.6503
 9648SOL     OW30015   2.439   5.743   4.862  0.3169  0.4066  0.0666
 9648SOL    HW130016   2.397   5.781   4.939 -0.4387  1.2202 -0.7377
 9648SOL    HW230017   2.451   5.650   4.885 -1.1293  0.3446  0.6511
 9649SOL     OW30018   3.863   0.894   7.798  0.0292  0.0896  0.5692
 9649SOL    HW130019   3.942   0.849   7.828 -0.2335 -0.6082  0.2468
 9649SOL    HW230020   3.791   0.837   7.826 -0.3128  0.3003  0.1387
 9650SOL     OW30021   2.435   6.806   0.244 -0.8985 -0.0423  0.0725
 9650SOL    HW130022   2.464   6.896   0.257  0.0244 -0.2733 -0.3133
 9650SOL    HW230023   2.386   6.808   0.162 -0.5591  0.0380 -0.1286
 9651SOL     OW30024   5.582   2.600   6.247  0.2565  0.1852  0.4314
 9651SOL    HW130025   5.659   2.604   6.191 -0.2801 -0.1654 -0.3369
 9651SOL    HW230026   5.526   2.533   6.208 -0.3626  0.3060  1.0823
 9652SOL     OW30027   6.908   5.545   0.503  1.0961 -0.7457 -0.2037
 9652SOL    HW130028   6.897   5.595   0.584  1.5722  0.1371 -0.6624
 9652SOL    HW230029   6.968   5.474   0.526  0.1721 -1.2955  0.5310
 9653SOL     OW30030   7.246   5.666   6.001 -0.4367 -0.4822  0.1339
 9653SOL    HW130031   7.205   5.748   6.028  3.4886  1.8224 -0.0874
 9653SOL    HW230032   7.225   5.657   5.909 -0.6052  0.5427  0.0634
 9654SOL     OW30033   7.755   1.451   7.302 -0.8218  0.1719 -0.7065
 9654SOL    HW130034   7.840   1.467   7.343 -0.1386  1.9388 -2.6306
 9654SOL    HW230035   7.704   1.405   7.369  2.0862 -2.3326  0.0110
 9655SOL     OW30036   1.596   2.743   5.375 -0.1547 -0.2170  0.1433
 9655SOL    HW130037   1.644   2.764   5.294  0.0016  0.8910  0.5140
 9655SOL    HW230038   1.631   2.803   5.440 -0.1753 -1.2085  1.0914
 9656SOL     OW30039   4.686   7.206   8.124  0.5937  0.5337  0.2315
 9656SOL    HW130040   4.781   7.220   8.123  0.6959 -0.1093 -0.7207
 9656SOL    HW230041   4.652   7.276   8.179  1.6650  0.4820  0.9962
 9657SOL     OW30042   1.652   4.091   1.677 -0.2844  0.2779 -0.2841
 9657SOL    HW130043   1.642   4.109   1.584  1.4326  0.6062 -0.4304
 9657SOL    HW230044   1.718   4.022   1.681  0.3212  0.8910  0.7207
 9658SOL     OW30045   7.955   6.682   3.507 -0.7769  0.4149 -0.0542
 9658SOL    HW130046   8.040   6.639   3.513 -1.4644 -1.0473 -0.3204
 9658SOL    HW230047   7.947   6.730   3.590  0.8238  1.6436 -0.5637
 9659SOL     OW30048   7.725   1.454   2.208  0.0168  0.0444 -0.3299
 9659SOL    HW130049   7.652   1.405   2.246 -0.6852 -0.3746 -2.1090
 9659SOL    HW230050   7.772   1.389   2.156 -0.0756  0.9145 -1.5477
 9660SOL     OW30051   1.883   3.052   0.487 -0.2309  0.2357 -0.7442
 9660SOL    HW130052   1.899   3.048   0.392 -2.7741  0.2266 -1.2408
 9660SOL    HW230053   1.965   3.023   0.526 -0.0152 -2.7078 -3.0192
 9661SOL     OW30054   6.857   2.978   5.818 -0.0345  0.3688  0.3955
 9661SOL    HW130055   6.883   2.913   5.752  1.0564  0.8845  0.2879
 9661SOL    HW230056   6.860   2.929   5.901  0.4246  0.1809  0.2742
 9662SOL     OW30057   7.644   5.187   1.898 -0.2502 -0.1989 -0.1908
 9662SOL    HW130058   7.654   5.265   1.953  1.4155 -1.4423  1.4138
 9662SOL    HW230059   7.730   5.145   1.900 -1.2139 -2.3358 -0.5397
 9663SOL     OW30060   1.109   6.349   0.574 -0.4738 -0.0799  0.0956
 9663SOL    HW130061   1.184   6.375   0.522  2.5500 -2.8684  2.6325
 9663SOL    HW230062   1.111   6.407   0.650 -1.0435 -0.0442  0.0892
 9664SOL     OW30063   6.804   1.115   0.524 -0.5672  0.2305 -0.3660
 9664SOL    HW130064   6.815   1.034   0.475 -0.5195  0.2034 -0.3101
 9664SOL    HW230065   6.877   1.116   0.586 -0.3068  0.5333 -0.6712
 9665SOL     OW30066   3.123   5.138   6.234  0.4664 -0.1566 -0.0513
 9665SOL    HW130067   3.052   5.171   6.289  0.3091 -0.4455 -0.0785
 9665SOL    HW230068   3.152   5.214   6.183  0.4036  0.0395  0.2060
 9666SOL     OW30069   1.698   1.816   1.154 -0.2205 -0.0443 -0.0123
 9666SOL    HW130070   1.685   1.897   1.204  1.1848  0.4395 -0.3824
 9666SOL    HW230071   1.610   1.786   1.135 -0.7791  1.1491  0.5415
 9667SOL     OW30072   3.087   2.576   0.090 -0.2484  0.1038 -0.9981
 9667SOL    HW130073   3.019   2.509   0.099  0.5983 -0.8359 -1.3597
 9667SOL    HW230074   3.131   2.577   0.175 -0.3877  0.3487 -0.9282
 9668SOL     OW30075   5.512   8.131   2.331  0.5189 -0.1742 -0.3018
 9668SOL    HW130076   5.455   8.151   2.256  0.8537 -0.1399 -0.5502
 9668SOL    HW230077   5.545   8.043   2.314 -0.5224 -0.7410  0.5217
 9669SOL     OW30078   0.747   1.482   8.129 -0.4508 -0.4568  0.2034
 9669SOL    HW130079   0.715   1.479   8.038  0.6500  0.1631 -0.2301
 9669SOL    HW230080   0.776   1.393   8.147 -1.1904 -0.7179  0.1515
 9670SOL     OW30081   0.974   6.592   6.288 -0.6365 -0.4585  0.2032
 9670SOL    HW130082   0.969   6.658   6.358  0.4567 -1.6622  1.4892
 9670SOL    HW230083   0.940   6.637   6.211 -3.2432  0.5086  1.7732
 9671SOL     OW30084   6.614   1.406   3.128 -0.1758  0.5503 -0.3908
 9671SOL    HW130085   6.631   1.499   3.146 -0.1345  0.3135  0.8446
 9671SOL    HW230086   6.628   1.398   3.033  1.6856  1.4094 -0.2412
 9672SOL     OW30087   4.871   5.596   7.223 -0.0253 -0.0629  1.0010
 9672SOL    HW130088   4.930   5.528   7.191 -0.7622  0.0922 -0.7830
 9672SOL    HW230089   4.914   5.679   7.201 -0.7747  0.0487 -0.1618
 9673SOL     OW30090   2.694   3.251   7.658 -1.3841 -0.2283 -0.2246
 9673SOL    HW130091   2.730   3.333   7.692 -2.0522  0.0061 -0.0678
 9673SOL    HW230092   2.764   3.215   7.604  0.1263 -1.1333  2.1606
 9674SOL     OW30093   4.184   5.243   0.901 -0.2193  0.2116  0.4935
 9674SOL    HW130094   4.231   5.166   0.869 -0.1997  0.3339  0.2218
 9674SOL    HW230095   4.208   5.313   0.840  0.5642  0.6811  1.3274
 9675SOL     OW30096   7.619   5.822   2.079 -0.1775  0.2857  0.1658
 9675SOL    HW130097   7.625   5.777   2.163 -0.2417 -1.7004 -0.8271
 9675SOL    HW230098   7.695   5.880   2.077  1.3367 -1.5941  0.5318
 9676SOL     OW30099   2.213   6.741   4.901 -0.1044 -0.2030  0.4016
 9676SOL    HW130100   2.145   6.789   4.854  0.5348 -0.6316 -1.0376
 9676SOL    HW230101   2.165   6.685   4.962 -0.9078  1.2313  1.1158
 9677SOL     OW30102   6.782   8.126   0.245  0.1476  0.4257  0.3904
 9677SOL    HW130103   6.868   8.130   0.204  0.2889 -1.8752  0.3527
 9677SOL    HW230104   6.800   8.139   0.339  0.3586  1.1905  0.2525
 9678SOL     OW30105   2.332   3.652   1.444 -0.5811 -0.1619  0.1564
 9678SOL    HW130106   2.315   3.595   1.369 -1.5561  0.1738  0.1097
 9678SOL    HW230107   2.283   3.732   1.426 -0.6217  0.0250  1.0300
 9679SOL     OW30108   0.312   7.566   2.439  0.3555  0.0489 -0.0692
 9679SOL    HW130109   0.311   7.576   2.534  1.5352 -2.3298  0.2769
 9679SOL    HW230110   0.302   7.471   2.425 -2.1834  0.5276 -2.4241
 9680SOL     OW30111   5.193   1.202   5.192  0.3076 -0.6981  0.3909
 9680SOL    HW130112   5.220   1.245   5.110  1.5243 -0.3163  0.9661
 9680SOL    HW230113   5.249   1.125   5.198  1.9368  0.5230  1.9965
 9681SOL     OW30114   3.986   6.511   6.308  0.5267  0.4171 -0.4632
 9681SOL    HW130115   4.040   6.587   6.328 -1.3318  1.8149 -0.5064
 9681SOL    HW230116   4.030   6.470   6.233  1.6952  1.2876 -0.2986
 9682SOL     OW30117   1.630   6.823   2.715 -0.0939 -0.0784  0.6386
 9682SOL    HW130118   1.621   6.737   2.674  3.4265 -0.3353  0.0563
 9682SOL    HW230119   1.593   6.884   2.652  0.4184 -0.9319 -0.5315
 9683SOL     OW30120   5.085   2.085   7.296 -0.5444 -0.4760 -0.3233
 9683SOL    HW130121   5.041   2.170   7.290  0.7121  0.1541 -0.9667
 9683SOL    HW230122   5.087   2.053   7.205 -0.7459 -1.0709 -0.1249
 9684SOL     OW30123   0.206   5.139   5.202  0.5981 -0.2120  1.0055
 9684SOL    HW130124   0.213   5.223   5.156  0.0201 -0.9571 -0.5093
 9684SOL    HW230125   0.118   5.108   5.182  0.3455 -0.6094  2.6092
 9685SOL     OW30126   7.872   1.511   1.711  0.6789 -0.4712  0.1360
 9685SOL    HW130127   7.837   1.431   1.751  2.8744 -0.7578  1.6665
 9685SOL    HW230128   7.966   1.494   1.704  0.8670  1.0958 -1.7024
 9686SOL     OW30129   6.968   3.876   6.948 -0.2451  0.0201  0.0601
 9686SOL    HW130130   6.995   3.856   7.038 -1.0522  1.6758  0.7082
 9686SOL    HW230131   6.923   3.796   6.919  1.0484 -0.9714  0.6755
 9687SOL     OW30132   4.200   7.752   6.979 -0.5550  0.7522 -0.2812
 9687SOL    HW130133   4.206   7.688   7.050 -1.2497  0.2093 -0.6904
 9687SOL    HW230134   4.247   7.828   7.011  3.5012 -1.1373 -1.1609
 9688SOL     OW30135   1.216   3.526   1.657  0.0268 -0.1357  0.4307
 9688SOL    HW130136   1.186   3.605   1.702  0.0537  0.3292 -0.3477
 9688SOL    HW230137   1.185   3.536   1.567  1.0673 -0.4300  0.0147
 9689SOL     OW30138   2.269   6.513   6.149  0.2808 -0.2763  0.5850
 9689SOL    HW130139   2.200   6.452   6.176  0.5710 -0.1724  1.6062
 9689SOL    HW230140   2.278   6.498   6.055  0.4012 -1.8822  0.8190
 9690SOL     OW30141   3.531   4.639   5.123 -1.2773  0.0339  0.0259
 9690SOL    HW130142   3.507   4.625   5.032 -0.3881 -2.0862  0.0587
 9690SOL    HW230143   3.555   4.552   5.155 -0.2347  0.9459  1.8895
 9691SOL     OW30144   5.348   2.224   1.596 -0.3697 -0.2240 -0.7569
 9691SOL    HW130145   5.286   2.278   1.645 -0.0178  0.2516 -0.8319
 9691SOL    HW230146   5.412   2.286   1.561  0.6891 -0.8066  0.0930
 9692SOL     OW30147   3.941   0.041   8.144  0.1578  0.4460  0.2043
 9692SOL    HW130148   3.900   0.034   8.230  0.5239 -0.7902  0.2964
 9692SOL    HW230149   4.035   0.037   8.163  0.2840  1.4392 -0.1583
 9693SOL     OW30150   4.552   5.038   4.459  0.0394  0.2876 -0.2230
 9693SOL    HW130151   4.534   5.019   4.551 -2.2407 -1.3826 -0.9180
 9693SOL    HW230152   4.582   4.954   4.423 -0.6129  0.5060 -1.3205
 9694SOL     OW30153   4.954   5.945   0.794  1.0936  0.3387  0.0343
 9694SOL    HW130154   4.973   5.852   0.807  0.4201  0.3431  1.1224
 9694SOL    HW230155   4.986   5.964   0.706  0.9445 -0.9997 -0.3220
 9695SOL     OW30156   4.710   4.085   4.588  0.2528  0.1995  0.2846
 9695SOL    HW130157   4.781   4.149   4.598  1.1743 -0.9431  1.3316
 9695SOL    HW230158   4.755   4.003   4.565 -0.9251 -0.0634 -1.2575
 9696SOL     OW30159   4.420   4.631   5.678 -0.2393  0.0210  0.5219
 9696SOL    HW130160   4.406   4.537   5.666  0.5227 -0.0910  0.5121
 9696SOL    HW230161   4.509   4.639   5.711 -0.8805  0.6100  2.2709
 9697SOL     OW30162   0.391   7.050   0.679 -0.0679  0.6874  0.1459
 9697SOL    HW130163   0.379   7.079   0.769  1.3927  1.4203  0.1314
 9697SOL    HW230164   0.437   7.122   0.636  0.2479 -0.1042 -0.8861
 9698SOL     OW30165   0.429   6.300   4.654  0.2746 -0.4765 -0.1917
 9698SOL    HW130166   0.483   6.270   4.727 -0.0783  1.0771  0.7484
 9698SOL    HW230167   0.452   6.392   4.643 -1.0615 -0.1878 -0.7853
 9699SOL     OW30168   7.448   6.501   3.223 -0.1000  0.2815  0.7176
 9699SOL    HW130169   7.498   6.473   3.299  1.4580  1.0695  0.0319
 9699SOL    HW230170   7.510   6.494   3.150 -1.5610 -0.5092 -0.5090
 9700SOL     OW30171   1.557   7.805   7.094  0.2484  0.1056  0.6433
 9700SOL    HW130172   1.550   7.876   7.031 -1.1059  1.1135  1.8571
 9700SOL    HW230173   1.556   7.848   7.180  1.1371 -1.2738  1.3773
 9701SOL     OW30174   7.381   6.365   2.789 -0.5976  0.1515  0.5924
 9701SOL    HW130175   7.310   6.415   2.831 -1.0375 -0.4360  0.5552
 9701SOL    HW230176   7.414   6.424   2.721 -1.0272  0.4468  0.6352
 9702SOL     OW30177   6.907   0.360   4.811 -0.2037 -0.3248 -0.3231
 9702SOL    HW130178   6.955   0.306   4.748  1.0005 -0.9701  1.0966
 9702SOL    HW230179   6.959   0.440   4.819 -2.3693  1.5333 -2.9957
 9703SOL     OW30180   2.884   3.433   0.761  0.1632  0.2073 -0.1411
 9703SOL    HW130181   2.843   3.348   0.746  1.5870 -0.3206 -1.2137
 9703SOL    HW230182   2.915   3.428   0.852 -1.6890  0.4603  0.5521
 9704SOL     OW30183   0.500   1.751   1.479 -0.1608  0.2104 -0.4494
 9704SOL    HW130184   0.531   1.835   1.444  0.7588  0.8469  1.6866
 9704SOL    HW230185   0.410   1.743   1.448  0.6977  0.4288 -3.2688
 9705SOL     OW30186   5.216   5.582   6.551  0.3850  0.3859  0.2149
 9705SOL    HW130187   5.248   5.528   6.623 -2.6165  0.8204  2.0304
 9705SOL    HW230188   5.254   5.669   6.567 -1.8003  1.0234  2.6041
 9706SOL     OW30189   5.792   5.431   0.959  0.0147  0.2301 -0.3658
 9706SOL    HW130190   5.865   5.384   1.000 -0.2204  0.9821  0.9703
 9706SOL    HW230191   5.754   5.368   0.898  0.0398 -1.1505  0.9881
 9707SOL     OW30192   7.024   7.872   7.297  0.2310  0.0864 -0.1712
 9707SOL    HW130193   7.039   7.961   7.265 -1.3115  0.3228 -0.3092
 9707SOL    HW230194   7.098   7.822   7.263  1.1618  1.3171 -0.0314
 9708SOL     OW30195   1.546   6.968   7.765 -0.6312 -0.3419  0.2839
 9708SOL    HW130196   1.552   6.985   7.859  0.5076 -0.4572  0.2478
 9708SOL    HW230197   1.581   7.047   7.724 -0.9636 -0.3610 -0.0352
 9709SOL     OW30198   6.511   6.290   1.297 -0.2800  0.3897  0.3244
 9709SOL    HW130199   6.417   6.308   1.307 -0.4112 -0.8598  1.6710
 9709SOL    HW230200   6.516   6.224   1.228 -0.0964  2.4815 -1.8251
 9710SOL     OW30201   4.250   5.226   5.812  0.4680  0.0964  0.1032
 9710SOL    HW130202   4.201   5.294   5.766 -1.5781 -1.1705  0.2421
 9710SOL    HW230203   4.211   5.144   5.781  1.1710 -0.9134  1.7613
 9711SOL     OW30204   2.285   6.145   6.846  0.5646 -0.3822 -0.5583
 9711SOL    HW130205   2.264   6.054   6.867  0.4046 -0.3789 -0.7032
 9711SOL    HW230206   2.232   6.165   6.769  0.9649 -0.3188 -0.8214
 9712SOL     OW30207   3.365   6.176   2.263 -1.0118 -0.0275  0.0279
 9712SOL    HW130208   3.293   6.233   2.237 -0.9729  0.0625  0.1170
 9712SOL    HW230209   3.423   6.175   2.187 -2.2726 -2.0173 -0.9817
 9713SOL     OW30210   6.038   5.449   0.391 -0.8125  0.2093  0.3821
 9713SOL    HW130211   6.113   5.459   0.448 -0.5524  0.5845 -0.0237
 9713SOL    HW230212   6.075   5.424   0.306 -1.1721 -0.0215  0.2884
 9714SOL     OW30213   7.510   6.914   4.618 -0.0348 -0.3096 -0.4640
 9714SOL    HW130214   7.423   6.900   4.656  1.1724 -0.4077  2.5751
 9714SOL    HW230215   7.543   6.825   4.602 -0.9044 -0.2692 -2.9152
 9715SOL     OW30216   1.429   3.721   4.238  1.0386  0.1607  0.3283
 9715SOL    HW130217   1.402   3.785   4.304  1.4918  1.1073 -0.3872
 9715SOL    HW230218   1.480   3.657   4.287  1.5041  0.9380  0.8888
 9716SOL     OW30219   2.753   1.845   2.480  0.1128  0.0221 -0.6134
 9716SOL    HW130220   2.727   1.839   2.388  1.1375  0.3590 -0.9394
 9716SOL    HW230221   2.818   1.776   2.491  0.6197  0.5326 -0.3677
 9717SOL     OW30222   3.347   0.861   6.856 -0.2000 -0.0342 -1.0672
 9717SOL    HW130223   3.398   0.846   6.776  1.9153 -1.0408  0.3914
 9717SOL    HW230224   3.410   0.898   6.918 -2.1412  2.2149 -0.2780
 9718SOL     OW30225   0.184   3.097   8.153  0.1729  0.1773  0.0195
 9718SOL    HW130226   0.131   3.161   8.105 -2.1206  0.4464  2.6739
 9718SOL    HW230227   0.268   3.141   8.166 -0.6879  1.8913  0.1326
 9719SOL     OW30228   2.911   7.683   5.345 -0.2910  0.0672 -0.1568
 9719SOL    HW130229   2.930   7.630   5.268 -0.7694  1.0809 -0.9911
 9719SOL    HW230230   2.978   7.752   5.343  0.1676 -0.3253  0.7745
 9720SOL     OW30231   7.441   7.426   2.391 -0.0166 -0.4420  0.2345
 9720SOL    HW130232   7.515   7.456   2.338 -0.1647 -0.7715 -0.1614
 9720SOL    HW230233   7.459   7.461   2.478  0.7375 -0.7279  0.2012
 9721SOL     OW30234   5.695   7.160   0.508 -0.1330  0.7280 -0.9140
 9721SOL    HW130235   5.692   7.077   0.556  0.8855  0.3593 -1.4500
 9721SOL    HW230236   5.739   7.138   0.426  0.3970  1.8433 -0.9506
 9722SOL     OW30237   1.752   7.347   1.728 -0.2424 -0.4225 -0.3915
 9722SOL    HW130238   1.672   7.317   1.685 -0.2163 -0.4862 -0.3966
 9722SOL    HW230239   1.819   7.342   1.660 -0.8552  2.7852 -1.3874
 9723SOL     OW30240   1.595   4.596   0.562 -0.2374  0.0936 -0.0128
 9723SOL    HW130241   1.607   4.678   0.514  1.3647  0.2056  0.5158
 9723SOL    HW230242   1.650   4.605   0.640  1.3602 -2.0949 -0.7679
 9724SOL     OW30243   3.966   3.999   5.295 -0.4673  0.1546 -0.2202
 9724SOL    HW130244   3.957   4.006   5.199  1.3912 -0.2753 -0.4694
 9724SOL    HW230245   3.972   3.905   5.312 -1.8223  0.1669  0.4680
 9725SOL     OW30246   1.470   3.380   6.967 -0.2116 -0.4127 -0.1510
 9725SOL    HW130247   1.540   3.323   6.997  0.7809  0.6678 -0.3504
 9725SOL    HW230248   1.505   3.469   6.976 -1.2196  0.1079 -1.0991
 9726SOL     OW30249   3.229   3.944   3.384 -0.1866 -0.0408  0.6263
 9726SOL    HW130250   3.234   4.034   3.353  1.8748 -0.0293  0.8975
 9726SOL    HW230251   3.239   3.951   3.479  0.9053 -0.5928  0.5665
 9727SOL     OW30252   5.969   2.188   2.645  0.6768  0.6310 -0.1986
 9727SOL    HW130253   5.969   2.283   2.659 -0.4340  0.6686 -0.3978
 9727SOL    HW230254   5.914   2.153   2.714 -0.9695  0.3893 -1.5669
 9728SOL     OW30255   4.590   0.021   5.375 -0.2684  0.0451 -0.4894
 9728SOL    HW130256   4.564  -0.045   5.311 -0.8154  0.7880 -1.0510
 9728SOL    HW230257   4.524   0.014   5.445 -0.2329 -0.1059 -0.4703
 9729SOL     OW30258   2.526   1.337   1.493  0.1026 -0.6199 -0.5285
 9729SOL    HW130259   2.612   1.329   1.534  0.2096 -0.3677 -0.6998
 9729SOL    HW230260   2.500   1.247   1.475  1.2171 -0.6509 -2.2620
 9730SOL     OW30261   3.603   6.709   5.612  0.6488 -0.3162  0.5229
 9730SOL    HW130262   3.593   6.635   5.672 -0.0928 -1.0744 -0.4945
 9730SOL    HW230263   3.634   6.781   5.667  0.5607 -1.1478  1.6950
 9731SOL     OW30264   1.353   4.562   3.568  0.1179 -0.2624  0.5462
 9731SOL    HW130265   1.291   4.507   3.617 -0.3706  1.0024  1.3914
 9731SOL    HW230266   1.303   4.642   3.548  1.0027  0.1353 -0.1341
 9732SOL     OW30267   1.264   0.536   7.431 -0.4058  0.1087 -0.2259
 9732SOL    HW130268   1.341   0.561   7.379 -0.3716 -0.6282 -0.5432
 9732SOL    HW230269   1.296   0.532   7.521  0.1453 -1.0281 -0.4588
 9733SOL     OW30270   4.994   6.439   0.618  0.1501  0.2121  1.0177
 9733SOL    HW130271   5.028   6.480   0.539  0.4029  0.4219  1.2319
 9733SOL    HW230272   4.901   6.460   0.618  0.0220 -0.3500  0.4351
 9734SOL     OW30273   1.095   7.001   0.723 -0.3504  0.5763  1.2256
 9734SOL    HW130274   1.022   7.014   0.783 -1.3547  1.2152 -0.0969
 9734SOL    HW230275   1.060   6.947   0.652  0.9794 -0.6747  1.4686
 9735SOL     OW30276   6.267   5.132   6.247 -0.0388 -0.2225 -0.1768
 9735SOL    HW130277   6.213   5.192   6.195  1.6166  2.4818  0.9641
 9735SOL    HW230278   6.346   5.119   6.194 -0.1620 -0.9650 -0.1812
 9736SOL     OW30279   7.832   6.531   6.603  0.2056 -0.2255  0.3082
 9736SOL    HW130280   7.807   6.623   6.609  0.2381 -0.2261  0.4802
 9736SOL    HW230281   7.803   6.493   6.687 -0.6061 -0.5701 -0.1110
 9737SOL     OW30282   6.104   0.661   4.000  0.3817 -0.2132  0.2112
 9737SOL    HW130283   6.111   0.575   4.043 -0.7772 -0.0865  0.7045
 9737SOL    HW230284   6.173   0.661   3.934 -1.6941 -2.9268 -2.2148
 9738SOL     OW30285   5.245   0.834   5.804  0.0247  0.5245 -0.3973
 9738SOL    HW130286   5.276   0.852   5.892 -0.7485 -0.0713  0.0085
 9738SOL    HW230287   5.150   0.822   5.813 -0.0603  0.3976 -1.2958
 9739SOL     OW30288   5.306   3.806   0.227  0.2208 -0.0931  0.2355
 9739SOL    HW130289   5.225   3.846   0.195  0.5636  0.6330  0.2401
 9739SOL    HW230290   5.360   3.881   0.254  1.0880 -0.5453 -0.2206
 9740SOL     OW30291   0.105   6.160   7.546  0.3475  0.4197 -0.0820
 9740SOL    HW130292   0.156   6.206   7.614 -2.0137  1.2725  1.2528
 9740SOL    HW230293   0.108   6.068   7.572  0.9435  0.4967  0.1415
 9741SOL     OW30294   3.018   6.752   5.593 -0.0061 -0.1550  0.0997
 9741SOL    HW130295   3.007   6.808   5.516 -1.0437 -1.4445 -0.7262
 9741SOL    HW230296   2.986   6.805   5.666  0.2467  0.7980 -0.4663
 9742SOL     OW30297   2.431   6.517   4.219 -0.2817  0.2056  0.4556
 9742SOL    HW130298   2.373   6.567   4.162 -0.8268 -0.0697  0.7621
 9742SOL    HW230299   2.375   6.450   4.259  0.3673 -0.4664  0.2817
 9743SOL     OW30300   0.519   1.543   2.028 -0.1137 -0.0938  0.2088
 9743SOL    HW130301   0.552   1.629   2.003 -1.1693 -0.0720 -1.2156
 9743SOL    HW230302   0.593   1.484   2.016 -0.0442  0.2458 -1.1746
 9744SOL     OW30303   4.037   6.747   0.894 -0.6828  0.0330  0.1323
 9744SOL    HW130304   3.963   6.806   0.897 -0.3686  0.6465 -2.1278
 9744SOL    HW230305   4.107   6.793   0.940 -1.5223 -0.3631  1.8853
 9745SOL     OW30306   8.067   3.868   0.592  0.3110  0.3248 -0.2893
 9745SOL    HW130307   7.996   3.822   0.547 -0.7608  1.8422 -0.2275
 9745SOL    HW230308   8.109   3.921   0.524 -1.1386  2.4150  0.3411
 9746SOL     OW30309   4.577   2.523   6.380  0.0265  0.4258 -0.1744
 9746SOL    HW130310   4.657   2.495   6.335 -0.4235  2.7496 -2.6341
 9746SOL    HW230311   4.533   2.441   6.404  2.3237 -0.8982 -0.2105
 9747SOL     OW30312   5.361   7.861   3.329  0.4432 -0.9018  0.2014
 9747SOL    HW130313   5.342   7.945   3.372  0.5114 -0.6266 -0.2994
 9747SOL    HW230314   5.456   7.857   3.327  0.4597 -0.2902 -1.1026
 9748SOL     OW30315   7.290   5.212   5.537  0.3796 -0.3213 -0.0994
 9748SOL    HW130316   7.295   5.280   5.470 -1.1006 -1.5578 -1.5433
 9748SOL    HW230317   7.263   5.259   5.616  3.5532  1.3933  0.1285
 9749SOL     OW30318   2.127   6.486   6.523 -0.1034 -0.3937 -0.1082
 9749SOL    HW130319   2.052   6.543   6.539 -0.1514 -0.8135  1.3308
 9749SOL    HW230320   2.166   6.519   6.442 -2.3316 -0.7341 -1.3815
 9750SOL     OW30321   2.223   6.430   4.494  0.5673  0.1839  0.2542
 9750SOL    HW130322   2.299   6.377   4.518  0.6940 -0.1834 -0.8944
 9750SOL    HW230323   2.184   6.383   4.420 -0.8952  0.2654  0.9409
 9751SOL     OW30324   3.519   6.815   6.555 -0.2666 -0.2624  0.1214
 9751SOL    HW130325   3.590   6.786   6.498  0.7148  0.8778  0.7260
 9751SOL    HW230326   3.452   6.746   6.546 -0.3863  0.0767 -2.7568
 9752SOL     OW30327   0.684   0.250   3.334  0.2232  0.0228  0.4361
 9752SOL    HW130328   0.629   0.226   3.409 -0.2249 -2.0043 -0.4848
 9752SOL    HW230329   0.751   0.181   3.330  0.1275 -0.0149 -1.1198
 9753SOL     OW30330   1.337   7.633   0.150  0.2299 -0.1880 -0.1252
 9753SOL    HW130331   1.399   7.695   0.112 -1.0079  2.1419  1.4443
 9753SOL    HW230332   1.263   7.633   0.089  1.1025 -1.9028 -1.2680
 9754SOL     OW30333   5.106   0.947   6.161  0.5778  0.0528 -0.1855
 9754SOL    HW130334   5.179   1.008   6.168  0.2254  0.5871 -1.0937
 9754SOL    HW230335   5.144   0.869   6.120  0.3596  0.8396 -1.9438
 9755SOL     OW30336   6.390   6.544   6.041  0.0134 -0.5121 -0.0526
 9755SOL    HW130337   6.322   6.577   5.982  0.5559 -1.1815 -1.0757
 9755SOL    HW230338   6.465   6.601   6.025 -0.7843  1.4525  2.4247
 9756SOL     OW30339   2.057   2.704   4.849 -0.2146  0.1424  0.0343
 9756SOL    HW130340   1.997   2.657   4.908  0.9709 -0.5152  0.7571
 9756SOL    HW230341   2.010   2.783   4.825 -1.4477 -0.4361  0.4364
 9757SOL     OW30342   4.737   0.173   2.758 -0.4799  0.3090 -0.5360
 9757SOL    HW130343   4.804   0.239   2.743  0.1781 -0.2587 -0.1030
 9757SOL    HW230344   4.785   0.091   2.772 -1.2638 -0.1666 -0.5281
 9758SOL     OW30345   2.982   2.432   3.644 -0.5548  0.5844 -0.1241
 9758SOL    HW130346   2.948   2.348   3.615  0.1306  0.0669  0.5475
 9758SOL    HW230347   2.937   2.496   3.590  0.6317 -0.3239 -2.2987
 9759SOL     OW30348   2.830   4.855   7.786  0.3032  0.2181  0.1073
 9759SOL    HW130349   2.780   4.791   7.838 -0.0708  1.1972  0.9817
 9759SOL    HW230350   2.816   4.938   7.831 -0.3476  1.1850 -1.7692
 9760SOL     OW30351   0.087   7.521   0.885 -0.0974  0.0816 -0.2164
 9760SOL    HW130352   0.139   7.459   0.835 -0.7181  0.0112 -0.7922
 9760SOL    HW230353   0.012   7.470   0.915  0.3427  0.0825  0.9264
 9761SOL     OW30354   0.544   4.193   1.872 -0.3265 -0.4811  0.6088
 9761SOL    HW130355   0.601   4.206   1.797  0.5087  1.8168  1.5531
 9761SOL    HW230356   0.567   4.106   1.905 -0.7933 -1.5908 -1.7597
 9762SOL     OW30357   2.275   1.172   6.653 -0.0373  0.1316 -0.3243
 9762SOL    HW130358   2.243   1.088   6.685 -1.1965  0.5028 -0.4511
 9762SOL    HW230359   2.370   1.167   6.663 -0.0830 -1.2038 -0.3782
 9763SOL     OW30360   1.722   7.739   0.672 -0.2563  0.1933  0.6074
 9763SOL    HW130361   1.652   7.803   0.680 -0.8489 -0.6849  3.4476
 9763SOL    HW230362   1.803   7.790   0.681 -0.6385  0.7948  0.6415
 9764SOL     OW30363   3.906   4.411   2.072 -0.2870  0.0629 -0.7343
 9764SOL    HW130364   3.822   4.394   2.113 -0.1283 -0.7005 -0.7050
 9764SOL    HW230365   3.888   4.407   1.978 -0.4120  0.5630 -0.7304
 9765SOL     OW30366   3.622   3.085   0.564 -0.4978 -0.3290  0.6062
 9765SOL    HW130367   3.529   3.066   0.574 -0.9354  1.1547 -0.1748
 9765SOL    HW230368   3.651   3.029   0.492 -0.3723 -1.9290  1.8544
 9766SOL     OW30369   1.159   1.016   3.190 -0.8278 -0.1884 -0.2937
 9766SOL    HW130370   1.163   1.102   3.147  0.0261  0.6838  1.4124
 9766SOL    HW230371   1.123   0.957   3.123 -0.6957  1.3223 -1.7648
 9767SOL     OW30372   7.341   7.930   3.632  0.3856 -0.8968  0.9298
 9767SOL    HW130373   7.379   7.979   3.706  0.1430  1.7776 -0.5883
 9767SOL    HW230374   7.315   7.998   3.570 -1.1076 -2.9726 -0.8380
 9768SOL     OW30375   4.672   1.905   6.018  0.4680  0.6451  0.0131
 9768SOL    HW130376   4.596   1.893   5.961  1.4815 -1.0900 -1.0600
 9768SOL    HW230377   4.708   1.990   5.993  0.1371  0.4947 -0.9965
 9769SOL     OW30378   2.605   7.616   0.024 -0.0877  0.1863  0.1138
 9769SOL    HW130379   2.604   7.669   0.104 -1.1786 -0.7418  0.7422
 9769SOL    HW230380   2.516   7.619  -0.008 -0.1059 -1.0400  0.0202
 9770SOL     OW30381   0.321   2.232   4.677 -1.1481 -0.8579 -0.1605
 9770SOL    HW130382   0.380   2.307   4.671 -2.1950 -0.0536 -0.7795
 9770SOL    HW230383   0.347   2.188   4.758 -1.5794  1.1083  1.1182
 9771SOL     OW30384   7.900   1.554   3.592  0.1823  0.2019  0.4104
 9771SOL    HW130385   7.917   1.584   3.681 -1.0610  0.4172  0.5905
 9771SOL    HW230386   7.896   1.635   3.540  1.4241  0.0507  0.0465
 9772SOL     OW30387   1.130   0.104   2.883  0.3964 -0.0880 -0.4909
 9772SOL    HW130388   1.092   0.192   2.888  3.5883  1.4861 -1.0101
 9772SOL    HW230389   1.150   0.082   2.974  0.8093  0.3552 -0.4677
 9773SOL     OW30390   1.322   3.882   5.856  0.1257 -0.1328  0.1145
 9773SOL    HW130391   1.343   3.934   5.933  2.3662 -0.2959 -0.3188
 9773SOL    HW230392   1.230   3.859   5.867 -0.6437  2.8903  0.9108
 9774SOL     OW30393   6.608   1.567   5.866 -0.3444 -0.0469  0.0246
 9774SOL    HW130394   6.685   1.604   5.909  0.0831  0.1750 -0.8996
 9774SOL    HW230395   6.573   1.639   5.813 -1.4597 -0.0120  0.7718
 9775SOL     OW30396   4.667   3.593   2.832 -0.3162 -0.2934 -0.0459
 9775SOL    HW130397   4.716   3.673   2.854 -0.7126  0.4443 -1.7111
 9775SOL    HW230398   4.601   3.587   2.901  0.6586 -0.0553  0.9581
 9776SOL     OW30399   3.660   3.605   5.567 -0.2004  0.5041 -0.4821
 9776SOL    HW130400   3.690   3.546   5.636 -0.8205 -0.2099 -0.8197
 9776SOL    HW230401   3.676   3.693   5.602  0.7357  0.1437  0.0153
 9777SOL     OW30402   8.153   0.014   3.442  0.0863 -0.1602 -0.6741
 9777SOL    HW130403   8.062   0.036   3.466  0.2160  0.0622 -0.3735
 9777SOL    HW230404   8.201   0.020   3.525 -0.2110 -3.5015 -0.1050
 9778SOL     OW30405   5.814   4.652   3.965  0.4396 -0.5747  0.7634
 9778SOL    HW130406   5.902   4.635   3.930  0.2437 -0.8902  0.4017
 9778SOL    HW230407   5.817   4.742   3.995 -0.3038  0.9655 -3.1175
 9779SOL     OW30408   6.694   4.073   7.660 -0.4153 -0.6922  0.5789
 9779SOL    HW130409   6.603   4.094   7.637  0.1608  1.0070 -0.3285
 9779SOL    HW230410   6.724   4.014   7.590  0.0435  1.1417 -0.8742
 9780SOL     OW30411   1.350   6.555   5.087 -0.7974 -0.1491  0.1240
 9780SOL    HW130412   1.306   6.480   5.128 -0.5346  0.5046  1.6488
 9780SOL    HW230413   1.348   6.624   5.153  0.7860  0.5374 -0.4933
 9781SOL     OW30414   7.913   5.885   5.087  0.4272  0.6085  0.1935
 9781SOL    HW130415   7.969   5.893   5.009  1.7364 -0.3734  0.9908
 9781SOL    HW230416   7.969   5.842   5.152 -1.5400 -1.2189  0.7673
 9782SOL     OW30417   3.450   0.319   6.694  0.0809  0.3730  0.4022
 9782SOL    HW130418   3.501   0.290   6.769  1.2234 -2.1976 -1.2555
 9782SOL    HW230419   3.465   0.414   6.690  0.8811  0.3958  2.7180
 9783SOL     OW30420   4.303   7.755   2.491 -0.2723  0.0601 -0.1490
 9783SOL    HW130421   4.361   7.760   2.566 -1.3891  0.1008  0.7503
 9783SOL    HW230422   4.316   7.667   2.455  1.6559  0.6887 -1.1032
 9784SOL     OW30423   0.214   5.739   7.812 -0.2738  0.3575 -0.5253
 9784SOL    HW130424   0.147   5.798   7.847  0.7166  1.3956 -0.3235
 9784SOL    HW230425   0.171   5.695   7.738 -2.5412 -2.1455  2.0318
 9785SOL     OW30426   1.291   2.467   5.083  0.0010  0.1907  0.3268
 9785SOL    HW130427   1.304   2.373   5.089 -0.7699  0.0924  0.6269
 9785SOL    HW230428   1.210   2.477   5.033  1.7001  0.8000 -2.4788
 9786SOL     OW30429   4.788   4.036   6.066  0.0553 -0.5188  0.6764
 9786SOL    HW130430   4.797   4.127   6.093 -1.7259 -0.5766  1.6448
 9786SOL    HW230431   4.877   3.999   6.073  1.4165  1.7484 -2.4138
 9787SOL     OW30432   2.791   0.676   2.468  0.1816  0.1964  0.2682
 9787SOL    HW130433   2.806   0.755   2.417  1.0534 -1.1179 -1.6507
 9787SOL    HW230434   2.850   0.683   2.543  1.2141  0.7882 -0.5815
 9788SOL     OW30435   6.240   3.932   6.323 -0.0193 -0.9386 -0.0809
 9788SOL    HW130436   6.308   3.992   6.356  0.3397 -1.1812 -0.3625
 9788SOL    HW230437   6.220   3.875   6.397  0.6819 -1.3926 -0.2243
 9789SOL     OW30438   0.659   1.523   1.471 -0.0166  0.2214  0.1404
 9789SOL    HW130439   0.597   1.596   1.473  1.1164  1.2396  2.1262
 9789SOL    HW230440   0.741   1.563   1.441  0.7325 -0.0628  1.6587
 9790SOL     OW30441   5.298   3.920   5.727 -0.6267  0.1040  0.2743
 9790SOL    HW130442   5.320   3.934   5.818  5.0759 -0.8453 -0.6154
 9790SOL    HW230443   5.280   4.007   5.692  0.3406  0.8708  1.6298
 9791SOL     OW30444   0.927   4.911   4.079 -0.8300  0.0414 -0.6586
 9791SOL    HW130445   0.958   4.845   4.141 -2.0339 -0.4708 -0.5671
 9791SOL    HW230446   0.996   4.917   4.013  1.4845  2.0853  1.7326
 9792SOL     OW30447   2.588   0.655   4.520 -0.4538  0.0017 -0.0074
 9792SOL    HW130448   2.622   0.742   4.497 -1.6844  0.2375 -1.0505
 9792SOL    HW230449   2.603   0.602   4.441  1.5622 -1.1796  1.0848
 9793SOL     OW30450   5.036   1.179   1.823 -0.0921  0.1043  0.1596
 9793SOL    HW130451   5.130   1.160   1.823 -0.1923 -0.4135  1.0361
 9793SOL    HW230452   5.029   1.264   1.867 -0.0746 -0.1224  0.6114
 9794SOL     OW30453   4.802   3.700   5.972  0.4694 -0.4039  0.6590
 9794SOL    HW130454   4.862   3.738   6.035  0.4674  0.3024  0.2484
 9794SOL    HW230455   4.783   3.612   6.006 -0.4790  0.3720  2.2966
 9795SOL     OW30456   1.041   0.784   4.170  0.0825  0.0991  0.4419
 9795SOL    HW130457   1.086   0.861   4.135 -1.7660  0.8818 -0.3205
 9795SOL    HW230458   0.985   0.754   4.098 -0.7841 -0.7097  1.4277
 9796SOL     OW30459   1.867   0.061   4.042 -0.3829  0.0957 -0.1297
 9796SOL    HW130460   1.910   0.133   4.089  0.0006 -0.5664  0.5711
 9796SOL    HW230461   1.856   0.093   3.953  0.1797  0.8588  0.0628
 9797SOL     OW30462   6.039   6.816   6.577 -0.0041  0.4320  0.1473
 9797SOL    HW130463   6.014   6.894   6.528 -2.2235 -0.5309 -0.3854
 9797SOL    HW230464   6.127   6.794   6.545 -0.6867  0.8219 -2.1744
 9798SOL     OW30465   1.207   3.002   7.263  0.4506 -0.2940 -0.5010
 9798SOL    HW130466   1.133   3.050   7.301 -0.2875 -1.9790  0.2789
 9798SOL    HW230467   1.257   3.069   7.215  1.2088  1.9371  3.0079
 9799SOL     OW30468   8.027   5.984   7.485 -0.1390 -0.1191 -0.2448
 9799SOL    HW130469   8.057   6.072   7.458 -0.9753  0.5930  1.0419
 9799SOL    HW230470   7.938   5.978   7.451  0.2752 -0.9119 -1.2280
 9800SOL     OW30471   7.416   1.729   0.757 -0.3545  0.2175  0.1454
 9800SOL    HW130472   7.334   1.772   0.733 -0.0743  0.4684 -0.3607
 9800SOL    HW230473   7.402   1.702   0.848 -1.0892  0.0470 -0.0038
 9801SOL     OW30474   6.718   6.435   1.427  0.4915 -0.1327 -0.1837
 9801SOL    HW130475   6.662   6.379   1.373  0.2212  0.8339 -0.9279
 9801SOL    HW230476   6.788   6.377   1.458 -0.1392 -1.0209 -0.4006
 9802SOL     OW30477   0.228   3.731   1.679  0.1631  0.4776  0.0689
 9802SOL    HW130478   0.276   3.756   1.600  2.6750 -2.0826  0.6294
 9802SOL    HW230479   0.149   3.786   1.677  1.3199  2.2984 -2.8509
 9803SOL     OW30480   3.967   2.593   4.255 -0.0413  0.3076 -0.0612
 9803SOL    HW130481   3.970   2.574   4.162  0.7781 -2.5031  0.4425
 9803SOL    HW230482   3.884   2.554   4.285  0.2758  0.0906  0.5616
 9804SOL     OW30483   3.306   7.117   6.064 -0.1260 -0.0130 -0.1026
 9804SOL    HW130484   3.363   7.044   6.039 -0.7277 -0.8334  0.8481
 9804SOL    HW230485   3.356   7.195   6.040  1.3068 -0.7080  0.4700
 9805SOL     OW30486   6.794   4.609   2.011  0.7511 -0.9851  0.2785
 9805SOL    HW130487   6.882   4.571   2.006  1.4854  0.5228  0.8657
 9805SOL    HW230488   6.808   4.703   1.998 -0.6858 -0.6246  1.0963
 9806SOL     OW30489   5.753   3.924   0.604  0.7516  0.4699  0.5000
 9806SOL    HW130490   5.779   3.981   0.532 -1.4676  2.0800  0.8692
 9806SOL    HW230491   5.703   3.854   0.562  0.9001  0.4695  0.3230
 9807SOL     OW30492   6.809   1.190   5.099  0.1018  0.2888 -0.1204
 9807SOL    HW130493   6.731   1.167   5.150  0.1374  0.8645  0.2004
 9807SOL    HW230494   6.825   1.113   5.044 -1.3959  0.6186 -1.0780
 9808SOL     OW30495   5.200   4.636   6.173 -0.0585  0.1009  0.0495
 9808SOL    HW130496   5.118   4.668   6.137  0.3685  2.5783  1.0663
 9808SOL    HW230497   5.174   4.576   6.242 -0.9613 -0.2765 -0.5968
 9809SOL     OW30498   4.193   0.499   2.501 -0.1675 -0.2789  0.1720
 9809SOL    HW130499   4.227   0.410   2.516  0.8973 -0.0535 -0.7451
 9809SOL    HW230500   4.210   0.545   2.584 -0.5308 -0.8559  0.5792
 9810SOL     OW30501   7.238   7.457   0.212 -0.2157 -0.1868 -1.0461
 9810SOL    HW130502   7.291   7.378   0.227 -0.3593 -0.2112 -0.6655
 9810SOL    HW230503   7.168   7.452   0.277  1.3050  1.6104  0.8702
 9811SOL     OW30504   1.448   4.326   6.843  0.0471  0.3821  0.1720
 9811SOL    HW130505   1.536   4.291   6.830 -0.0500  0.2393 -0.1259
 9811SOL    HW230506   1.399   4.295   6.767  0.0884  1.6156 -0.3756
 9812SOL     OW30507   7.919   1.536   6.618  0.4180  0.0803 -0.4470
 9812SOL    HW130508   7.921   1.621   6.662  1.1169  0.7674 -1.7310
 9812SOL    HW230509   8.007   1.500   6.632 -0.6473 -1.7555  2.4301
 9813SOL     OW30510   5.845   2.282   1.884  0.2383 -0.6029 -0.1530
 9813SOL    HW130511   5.905   2.289   1.958  1.6237 -1.4844 -1.1386
 9813SOL    HW230512   5.851   2.367   1.840  2.1008 -1.1930 -1.1680
 9814SOL     OW30513   5.528   3.055   6.419  0.4368 -0.2668  0.5790
 9814SOL    HW130514   5.568   3.089   6.499 -1.5603  0.6604  1.2560
 9814SOL    HW230515   5.512   2.962   6.437  1.1167 -0.3474  0.7736
 9815SOL     OW30516   3.476   4.150   4.454 -0.3691  0.0657 -0.3240
 9815SOL    HW130517   3.453   4.240   4.431  0.7848  0.9918  1.8818
 9815SOL    HW230518   3.412   4.124   4.519 -0.3659 -0.5393 -0.5498
 9816SOL     OW30519   3.662   3.856   6.937  0.1205  0.5407  0.3417
 9816SOL    HW130520   3.568   3.856   6.957 -0.1896  0.6468 -0.9978
 9816SOL    HW230521   3.671   3.793   6.866  1.0397  0.6672  0.3354
 9817SOL     OW30522   6.597   3.567   4.196  0.2703 -0.1714  0.6702
 9817SOL    HW130523   6.536   3.513   4.247 -0.2728 -1.0586 -0.8464
 9817SOL    HW230524   6.671   3.509   4.179 -0.2584 -0.4455 -0.8617
 9818SOL     OW30525   2.584   5.676   5.846 -0.3871 -0.2454  0.2129
 9818SOL    HW130526   2.606   5.611   5.779  2.6061  0.6300  0.2111
 9818SOL    HW230527   2.501   5.713   5.816  0.4172 -0.4830 -2.5819
 9819SOL     OW30528   6.616   1.543   0.614  0.0919 -0.1788 -0.8393
 9819SOL    HW130529   6.646   1.519   0.701 -1.7842 -0.2951 -0.1761
 9819SOL    HW230530   6.673   1.494   0.554  2.0528  0.6503  0.2428
 9820SOL     OW30531   2.873   7.003   3.947  0.2246  0.3707  0.5617
 9820SOL    HW130532   2.922   6.991   4.028  0.4200  1.4434  0.6095
 9820SOL    HW230533   2.931   7.052   3.890 -0.6223  1.2850  0.4582
 9821SOL     OW30534   4.914   5.903   6.708 -0.3327  0.1323  0.3238
 9821SOL    HW130535   4.867   5.828   6.672  0.2044  0.3501 -0.8587
 9821SOL    HW230536   4.943   5.952   6.632  0.0132  1.1201  1.0767
 9822SOL     OW30537   7.926   3.151   7.837  0.1444 -0.3303 -0.0934
 9822SOL    HW130538   7.973   3.235   7.833  0.4895 -0.4626  0.8479
 9822SOL    HW230539   7.862   3.163   7.907  0.4423 -0.9638  0.2963
 9823SOL     OW30540   7.877   6.173   0.043  0.0605  0.0921 -0.1226
 9823SOL    HW130541   7.834   6.217  -0.030 -0.7087  1.0156  0.8584
 9823SOL    HW230542   7.825   6.197   0.120  0.2218 -1.7066  0.5991
 9824SOL     OW30543   8.058   2.264   1.509  0.4036  0.2609  0.1936
 9824SOL    HW130544   7.976   2.217   1.525  0.6168  0.7797  3.6724
 9824SOL    HW230545   8.042   2.313   1.428 -2.4797 -0.1466  0.4011
 9825SOL     OW30546   0.243   7.797   3.432 -0.1245  0.0938  0.2815
 9825SOL    HW130547   0.214   7.709   3.408 -0.3150  0.0431  0.6877
 9825SOL    HW230548   0.188   7.855   3.379 -1.9738  0.0407  2.0115
 9826SOL     OW30549   5.216   2.770   6.894  0.1074  0.5445  0.4852
 9826SOL    HW130550   5.157   2.719   6.838 -0.0392  0.4666  0.7081
 9826SOL    HW230551   5.294   2.784   6.841  0.5500 -0.7509  0.7623
 9827SOL     OW30552   0.261   0.489   6.740  0.4887 -0.2061  0.0837
 9827SOL    HW130553   0.354   0.483   6.761  0.0865 -0.2904  1.9796
 9827SOL    HW230554   0.217   0.475   6.823 -1.1910  2.2689 -0.2884
 9828SOL     OW30555   0.133   0.971   3.262 -0.1122  0.3346 -0.0349
 9828SOL    HW130556   0.070   0.899   3.255 -0.1656  0.2403  1.2956
 9828SOL    HW230557   0.123   1.004   3.351  0.0154  1.9062 -0.5726
 9829SOL     OW30558   3.451   4.851   4.474 -0.0097 -0.5073 -0.7948
 9829SOL    HW130559   3.392   4.926   4.464 -2.1063 -1.9180  0.2024
 9829SOL    HW230560   3.405   4.778   4.432  2.2496 -1.1779 -2.2803
 9830SOL     OW30561   1.530   4.949   2.828  0.0602  0.3610 -0.3226
 9830SOL    HW130562   1.502   4.874   2.881  1.9795  0.3896  0.8439
 9830SOL    HW230563   1.551   4.911   2.743 -0.4389 -0.1660 -0.2218
 9831SOL     OW30564   8.131   1.928   1.558 -0.1146 -0.0644  0.0519
 9831SOL    HW130565   8.110   1.939   1.465  0.7297 -0.4713 -0.1924
 9831SOL    HW230566   8.183   1.847   1.561 -0.8060 -0.4910  0.9821
 9832SOL     OW30567   0.057   1.457   3.648  0.4773  0.0239 -0.4210
 9832SOL    HW130568   0.093   1.524   3.706  0.4974  0.5665 -1.0480
 9832SOL    HW230569   0.004   1.401   3.705 -1.1388  1.7095 -0.1743
 9833SOL     OW30570   7.668   1.409   0.583  0.3430 -0.1788  0.5135
 9833SOL    HW130571   7.733   1.477   0.602 -0.0330  0.0329  1.0542
 9833SOL    HW230572   7.699   1.333   0.632 -0.4996  0.2991  1.8342
 9834SOL     OW30573   2.002   5.237   1.695  0.3913 -0.3971  0.3785
 9834SOL    HW130574   2.038   5.160   1.739 -0.1903 -0.5033  0.6705
 9834SOL    HW230575   1.978   5.206   1.608  0.8047 -0.3745  0.2521
 9835SOL     OW30576   7.910   3.390   0.952 -0.5520 -0.1839 -0.0433
 9835SOL    HW130577   7.903   3.387   0.857 -1.7957  1.9020 -0.0948
 9835SOL    HW230578   7.825   3.360   0.984 -0.5835  0.3127  0.3566
 9836SOL     OW30579   2.233   4.755   1.081  0.0201  0.1665  0.0595
 9836SOL    HW130580   2.142   4.743   1.052  0.1628 -2.4982  0.4506
 9836SOL    HW230581   2.283   4.760   0.999 -0.2627 -0.7885 -0.1941
 9837SOL     OW30582   2.156   2.965   7.858  0.2629  0.1365  0.0507
 9837SOL    HW130583   2.225   2.933   7.799 -0.9141 -2.3802 -0.0865
 9837SOL    HW230584   2.076   2.959   7.806 -0.4893 -0.0239  1.1985
 9838SOL     OW30585   1.409   4.794   4.595 -0.3804 -0.4244  0.5436
 9838SOL    HW130586   1.320   4.824   4.580 -0.1132  0.0252 -0.1937
 9838SOL    HW230587   1.431   4.746   4.515  0.1722 -0.2103  0.5667
 9839SOL     OW30588   5.745   1.528   2.562 -0.2437  0.0041 -0.3402
 9839SOL    HW130589   5.687   1.603   2.543 -1.1324 -0.5701  0.0438
 9839SOL    HW230590   5.716   1.496   2.647  2.0756  1.0188  0.9260
 9840SOL     OW30591   4.480   5.387   5.711 -0.3700  0.7512  0.2943
 9840SOL    HW130592   4.409   5.394   5.648 -0.7142  1.9846  0.7853
 9840SOL    HW230593   4.438   5.358   5.792 -0.5162  2.4172  0.8550
 9841SOL     OW30594   3.408   7.461   4.350 -0.2359  0.0205 -0.1943
 9841SOL    HW130595   3.439   7.403   4.281 -2.0223 -1.3444  0.0787
 9841SOL    HW230596   3.333   7.507   4.312  1.1232  2.2054 -0.3950
 9842SOL     OW30597   2.699   0.153   1.014  0.3321 -0.0401 -0.3107
 9842SOL    HW130598   2.612   0.174   1.048  0.8661  0.7954  0.5606
 9842SOL    HW230599   2.723   0.072   1.058  0.5353  0.4255  0.4538
 9843SOL     OW30600   0.642   1.503   7.896 -0.0265 -0.3348 -0.6983
 9843SOL    HW130601   0.548   1.484   7.896 -0.4162  1.1567 -3.2094
 9843SOL    HW230602   0.647   1.597   7.879  1.9216 -0.4529 -0.9334
 9844SOL     OW30603   1.700   4.750   1.063  0.2493 -0.2824 -0.4846
 9844SOL    HW130604   1.645   4.795   1.128  1.1566  1.6990 -1.0137
 9844SOL    HW230605   1.659   4.770   0.979  1.6738  1.1955 -0.8815
 9845SOL     OW30606   4.588   4.769   4.375 -0.1919  0.0741 -0.1821
 9845SOL    HW130607   4.538   4.699   4.333  0.6471 -0.9535  0.4421
 9845SOL    HW230608   4.669   4.773   4.324 -0.1875  0.5090 -0.1395
 9846SOL     OW30609   3.395   1.169   3.570  0.1609 -0.1746  0.0203
 9846SOL    HW130610   3.475   1.117   3.572  0.0677 -0.4856 -2.1042
 9846SOL    HW230611   3.419   1.249   3.524 -0.2353  0.7559  1.3509
 9847SOL     OW30612   4.921   4.760   0.815  0.0770  0.0034 -0.2112
 9847SOL    HW130613   4.843   4.705   0.808  0.9184 -1.2266 -0.3622
 9847SOL    HW230614   4.912   4.805   0.899 -0.1518 -1.1772  0.4260
 9848SOL     OW30615   7.752   7.781   3.536  0.0513  0.4087 -0.1323
 9848SOL    HW130616   7.721   7.797   3.625 -0.1969  0.0625 -0.1538
 9848SOL    HW230617   7.716   7.853   3.484 -0.7268  0.0201 -0.1568
 9849SOL     OW30618   5.823   7.671   6.695 -0.1032 -0.0911 -0.0880
 9849SOL    HW130619   5.790   7.583   6.713  2.3155 -0.7276  1.8380
 9849SOL    HW230620   5.913   7.658   6.666  0.4241  1.7245  0.5605
 9850SOL     OW30621   1.168   5.306   0.600 -0.0501 -0.2864 -0.3871
 9850SOL    HW130622   1.103   5.286   0.667  0.6156  0.6836  0.5767
 9850SOL    HW230623   1.116   5.318   0.520 -1.3636  2.4532  0.7357
 9851SOL     OW30624   4.822   7.889   1.711 -0.2637  0.2480  0.3433
 9851SOL    HW130625   4.815   7.960   1.647 -0.1217  0.1084  0.1716
 9851SOL    HW230626   4.772   7.817   1.672 -1.1018  0.5262  0.8993
 9852SOL     OW30627   5.526   5.765   5.158  0.1841 -0.1350 -0.3351
 9852SOL    HW130628   5.448   5.781   5.105 -1.2015  0.9039  1.8668
 9852SOL    HW230629   5.493   5.758   5.248  2.5856 -0.1550  0.6223
 9853SOL     OW30630   4.825   6.929   6.151  0.5563 -0.4300 -0.3823
 9853SOL    HW130631   4.753   6.904   6.093 -0.2937  1.2871 -0.1370
 9853SOL    HW230632   4.848   6.848   6.196 -1.4524 -0.9863 -0.2338
 9854SOL     OW30633   4.147   1.594   0.120  0.3993 -0.4521  0.0769
 9854SOL    HW130634   4.082   1.663   0.107  1.5089  0.2992 -1.7761
 9854SOL    HW230635   4.230   1.631   0.090  2.0264 -0.9695  3.4045
 9855SOL     OW30636   3.757   2.841   3.329 -0.0219  0.1518  0.0334
 9855SOL    HW130637   3.832   2.900   3.338 -0.9349  2.0487 -3.1446
 9855SOL    HW230638   3.696   2.869   3.397  0.1426  2.0014 -0.5385
 9856SOL     OW30639   3.320   5.670   1.040  0.4045 -0.6138  0.6919
 9856SOL    HW130640   3.244   5.628   1.081 -0.5973  0.5789  0.1673
 9856SOL    HW230641   3.346   5.738   1.102  0.6947 -0.6752  0.6366
 9857SOL     OW30642   7.505   4.244   6.986 -0.3271  0.7352 -0.1912
 9857SOL    HW130643   7.481   4.216   6.898  2.4717  0.8084 -1.0732
 9857SOL    HW230644   7.511   4.163   7.037 -2.9842  0.7658  0.3205
 9858SOL     OW30645   3.254   2.366   3.563  0.0028 -0.0822  0.0593
 9858SOL    HW130646   3.168   2.324   3.561 -0.4670  0.8273  0.4440
 9858SOL    HW230647   3.260   2.405   3.650  0.8211 -0.1677  0.0507
 9859SOL     OW30648   6.297   4.902   2.156  0.1641  0.2005 -0.1023
 9859SOL    HW130649   6.271   4.810   2.155 -0.9441  0.5035 -0.7530
 9859SOL    HW230650   6.217   4.950   2.174  0.6516  1.0649 -0.1658
 9860SOL     OW30651   0.102   2.150   7.089  0.5924  0.3467  0.3532
 9860SOL    HW130652   0.192   2.119   7.080 -0.1093 -2.0312  0.8093
 9860SOL    HW230653   0.085   2.147   7.184 -0.1544  0.1361  0.2192
 9861SOL     OW30654   6.832   1.243   0.894  0.1420 -0.7649  0.5683
 9861SOL    HW130655   6.904   1.287   0.848  1.5402 -2.7348  0.7288
 9861SOL    HW230656   6.873   1.167   0.935 -1.6388 -0.7549  2.5524
 9862SOL     OW30657   2.213   3.405   2.504  0.0240  0.9006 -0.9042
 9862SOL    HW130658   2.206   3.500   2.509  2.2144  1.1701 -1.8766
 9862SOL    HW230659   2.150   3.373   2.569 -1.6832  2.9469 -1.4344
 9863SOL     OW30660   7.945   1.966   4.207 -0.0418  0.2099  0.4404
 9863SOL    HW130661   7.939   1.872   4.224 -1.2262  0.0527 -0.6963
 9863SOL    HW230662   7.887   2.006   4.272 -2.2908 -0.1601 -1.2276
 9864SOL     OW30663   5.175   3.523   4.062  0.6089 -0.1074  0.0736
 9864SOL    HW130664   5.189   3.533   4.156 -1.1042  0.5000  0.3017
 9864SOL    HW230665   5.110   3.452   4.055 -0.5906  0.9996 -0.5154
 9865SOL     OW30666   7.218   0.719   0.395 -0.2605 -0.0151  0.0968
 9865SOL    HW130667   7.246   0.720   0.304 -0.2368  0.1404  0.1049
 9865SOL    HW230668   7.130   0.681   0.393  0.4394 -1.7099  0.2156
 9866SOL     OW30669   0.248   5.979   4.734 -0.3627 -0.0283  0.3177
 9866SOL    HW130670   0.278   5.998   4.823  1.4117  1.1522 -0.4883
 9866SOL    HW230671   0.247   6.064   4.690 -2.0391 -0.4682 -0.5889
 9867SOL     OW30672   6.168   0.060   2.391 -0.4461  0.2819  0.2311
 9867SOL    HW130673   6.248   0.082   2.437 -0.3788 -1.9362  1.3374
 9867SOL    HW230674   6.177   0.101   2.305  3.3304 -2.2883 -0.8635
 9868SOL     OW30675   2.588   4.399   4.302  0.9870 -0.2496  0.3071
 9868SOL    HW130676   2.595   4.307   4.277 -0.3146 -0.2736 -0.0048
 9868SOL    HW230677   2.523   4.400   4.372 -2.1704  0.8353 -2.3719
 9869SOL     OW30678   1.804   2.177   2.545  0.0749 -0.4848 -0.2136
 9869SOL    HW130679   1.803   2.124   2.625 -0.4338 -1.7738 -1.0423
 9869SOL    HW230680   1.890   2.218   2.544 -0.5456  1.0290  1.9037
 9870SOL     OW30681   5.229   4.067   5.123 -0.3807  0.0838 -0.1503
 9870SOL    HW130682   5.271   3.983   5.106 -0.5627  0.2115 -1.2874
 9870SOL    HW230683   5.163   4.048   5.190  0.4332 -0.4155  0.5302
 9871SOL     OW30684   4.646   2.330   7.133 -0.1651  0.0914  0.2695
 9871SOL    HW130685   4.614   2.298   7.218 -1.1447 -1.4473 -0.6170
 9871SOL    HW230686   4.709   2.263   7.105 -1.5390 -0.6650 -1.2030
 9872SOL     OW30687   4.421   3.736   0.241  0.0420  0.0072 -0.0570
 9872SOL    HW130688   4.408   3.752   0.148 -0.5164  0.8781  0.1527
 9872SOL    HW230689   4.336   3.708   0.274  0.2739 -0.4535  0.1691
 9873SOL     OW30690   6.760   4.752   6.879  0.1375  0.3511 -0.0978
 9873SOL    HW130691   6.692   4.813   6.906  0.0617 -0.1217  0.8324
 9873SOL    HW230692   6.834   4.807   6.855 -0.3704  0.8463 -0.5417
 9874SOL     OW30693   2.555   5.559   1.251  0.0065 -0.3930  0.5079
 9874SOL    HW130694   2.496   5.565   1.176  0.8374  0.1921 -0.1212
 9874SOL    HW230695   2.504   5.591   1.325 -0.4076  0.2805 -0.0582
 9875SOL     OW30696   3.711   7.525   1.620 -0.4669  0.0524 -0.2718
 9875SOL    HW130697   3.673   7.509   1.706  2.1149 -2.0939  0.5994
 9875SOL    HW230698   3.689   7.447   1.569  1.3336 -0.5285 -0.2268
 9876SOL     OW30699   1.924   7.473   8.099  0.6917 -0.1283  0.0079
 9876SOL    HW130700   1.861   7.484   8.027  1.8640 -0.7615 -1.1679
 9876SOL    HW230701   1.900   7.390   8.139 -0.5723  0.6916  1.0046
 9877SOL     OW30702   5.777   5.598   0.372 -0.2328 -0.2508 -0.1502
 9877SOL    HW130703   5.830   5.674   0.350 -1.2749 -0.0549 -2.1516
 9877SOL    HW230704   5.841   5.530   0.395  0.7184  1.0009  1.0516
 9878SOL     OW30705   5.051   2.166   6.214 -0.1703  0.2128 -0.0039
 9878SOL    HW130706   5.103   2.086   6.205 -0.9251 -0.1750 -1.0373
 9878SOL    HW230707   5.100   2.232   6.165  0.4426  0.4074  0.8329
 9879SOL     OW30708   1.595   1.067   1.405  0.3129  0.6791 -0.2030
 9879SOL    HW130709   1.583   1.042   1.314  1.9479  2.4949 -0.9996
 9879SOL    HW230710   1.683   1.037   1.427  0.1313  0.7113  0.6311
 9880SOL     OW30711   2.671   4.108   7.941 -0.0143  0.5906  0.3193
 9880SOL    HW130712   2.691   4.034   7.883  0.0425  0.5006  0.4552
 9880SOL    HW230713   2.749   4.164   7.934 -0.2438  0.8646 -0.1386
 9881SOL     OW30714   2.785   3.410   1.838  0.0896  0.6232  0.1120
 9881SOL    HW130715   2.714   3.346   1.829 -0.1713  1.0258 -0.7978
 9881SOL    HW230716   2.748   3.492   1.805 -0.0279  1.6062  2.4764
 9882SOL     OW30717   5.891   2.313   5.669 -0.2674  0.2758  0.0263
 9882SOL    HW130718   5.843   2.231   5.682  0.2842 -0.2000 -0.8345
 9882SOL    HW230719   5.824   2.380   5.657 -0.7921 -0.7178 -3.3834
 9883SOL     OW30720   5.624   6.088   1.283  0.5645 -0.1734 -0.2154
 9883SOL    HW130721   5.571   6.163   1.308  2.3654  0.8767  0.6165
 9883SOL    HW230722   5.693   6.124   1.227  0.3284 -1.5429 -1.4747
 9884SOL     OW30723   0.868   3.948   4.122  0.4613  0.6641 -0.0310
 9884SOL    HW130724   0.789   3.953   4.067 -0.1753 -0.2220  0.7693
 9884SOL    HW230725   0.938   3.925   4.060 -0.2242 -0.2228 -0.5133
 9885SOL     OW30726   0.765   2.996   7.739 -0.0753  0.2483  0.4953
 9885SOL    HW130727   0.747   2.994   7.645 -2.5181 -3.5413  0.8658
 9885SOL    HW230728   0.812   2.915   7.756  1.6949  1.5698  2.4299
 9886SOL     OW30729   8.047   3.526   6.119 -0.5246  0.2350  0.4253
 9886SOL    HW130730   8.050   3.542   6.024 -0.4773 -0.5663  0.2860
 9886SOL    HW230731   7.979   3.461   6.130  0.5984 -0.9242  0.7542
 9887SOL     OW30732   0.057   4.382   1.241  0.0778 -0.5408  0.0358
 9887SOL    HW130733   0.099   4.467   1.250 -2.1872  0.4858  2.1970
 9887SOL    HW230734   0.102   4.341   1.167  1.8438  2.1410 -0.5413
 9888SOL     OW30735   7.159   3.170   2.132 -0.5113 -0.0324  0.2346
 9888SOL    HW130736   7.127   3.230   2.065 -1.7636  0.3382  1.1238
 9888SOL    HW230737   7.158   3.084   2.089 -0.6787  0.2865 -0.4104
 9889SOL     OW30738   4.850   3.137   6.057  0.1346 -0.6096 -0.2272
 9889SOL    HW130739   4.810   3.050   6.050 -3.5706  0.8273  0.4366
 9889SOL    HW230740   4.828   3.180   5.974 -1.2100  0.7611  0.7897
 9890SOL     OW30741   4.411   3.936   5.107  0.1791 -0.3145 -0.7081
 9890SOL    HW130742   4.482   3.880   5.138  0.5455  0.2084 -0.6119
 9890SOL    HW230743   4.403   4.005   5.172 -0.6726 -0.5723 -0.5152
 9891SOL     OW30744   3.020   5.358   5.653 -0.2876  0.0760  0.4113
 9891SOL    HW130745   3.035   5.394   5.566 -1.0571  0.8486  0.5892
 9891SOL    HW230746   3.036   5.264   5.642  1.4162  0.3979 -0.1261
 9892SOL     OW30747   5.690   0.494   1.724  0.5101  0.3201  0.2669
 9892SOL    HW130748   5.636   0.458   1.795 -0.5688  0.5568 -0.3999
 9892SOL    HW230749   5.677   0.432   1.652  2.4126 -0.4849  0.5563
 9893SOL     OW30750   7.755   1.321   6.416  0.1166 -0.3998 -0.2107
 9893SOL    HW130751   7.743   1.348   6.326  0.4093  0.8595  0.1102
 9893SOL    HW230752   7.834   1.267   6.414 -0.1823 -0.8220 -0.7844
 9894SOL     OW30753   1.013   5.869   4.960 -0.8496  0.5883 -0.5441
 9894SOL    HW130754   1.075   5.880   4.888  1.3879 -0.7412  1.0197
 9894SOL    HW230755   0.946   5.936   4.946  2.5999  4.3671 -0.6875
 9895SOL     OW30756   0.760   2.589   1.560 -0.1525 -0.4227  0.0673
 9895SOL    HW130757   0.773   2.653   1.490 -0.8931 -0.7436 -0.3725
 9895SOL    HW230758   0.665   2.577   1.565 -0.0415 -1.2495  0.3540
 9896SOL     OW30759   5.878   4.469   3.369  0.1584 -0.0873  0.6181
 9896SOL    HW130760   5.887   4.563   3.385  1.3866 -0.1260  0.1998
 9896SOL    HW230761   5.891   4.429   3.455 -0.7774  0.1334  0.8753
 9897SOL     OW30762   1.249   1.069   6.767  0.2688 -0.1962  0.0016
 9897SOL    HW130763   1.183   1.124   6.810  0.2596 -0.0203 -0.2374
 9897SOL    HW230764   1.296   1.128   6.709 -0.7043 -0.7127 -1.3705
 9898SOL     OW30765   4.979   2.363   7.376  0.3398 -0.4413 -0.0119
 9898SOL    HW130766   4.971   2.426   7.305  0.3093 -1.9397 -1.4132
 9898SOL    HW230767   5.069   2.374   7.408  0.9612 -0.9161 -1.4979
 9899SOL     OW30768   3.460   2.214   1.246 -0.6312 -0.3454 -1.0696
 9899SOL    HW130769   3.542   2.184   1.207  0.6275  0.1758  1.0222
 9899SOL    HW230770   3.424   2.275   1.182  2.5675  2.3860 -0.5640
 9900SOL     OW30771   6.732   5.139   7.146  0.3310  0.1660  0.4415
 9900SOL    HW130772   6.691   5.165   7.064 -1.6392 -2.7774  0.3429
 9900SOL    HW230773   6.777   5.058   7.126 -0.0766 -0.5476  2.2079
 9901SOL     OW30774   7.034   4.163   3.265  0.3242  0.4456  0.2753
 9901SOL    HW130775   6.948   4.188   3.231  1.1642  2.7142 -0.4130
 9901SOL    HW230776   7.051   4.077   3.227 -1.6102 -0.0478  0.4267
 9902SOL     OW30777   7.803   3.065   5.913  0.2956 -0.5664 -0.3040
 9902SOL    HW130778   7.841   2.977   5.914  0.0153 -0.7683 -2.3965
 9902SOL    HW230779   7.728   3.058   5.854 -1.9221  0.2790  2.2316
 9903SOL     OW30780   3.912   1.565   0.588  0.2844 -0.9029  0.2201
 9903SOL    HW130781   3.947   1.558   0.677 -1.6223 -0.5712  1.0498
 9903SOL    HW230782   3.830   1.613   0.598 -0.8271 -2.2976 -1.4832
 9904SOL     OW30783   2.086   0.210   6.786 -0.3887 -0.1235 -0.0515
 9904SOL    HW130784   2.113   0.125   6.821  2.0153  0.9267  0.8614
 9904SOL    HW230785   2.084   0.197   6.691  2.1200 -0.7370 -0.1028
 9905SOL     OW30786   7.002   1.122   2.545  0.0273  0.0640  0.1729
 9905SOL    HW130787   6.937   1.168   2.599 -0.2543  0.1575 -0.2435
 9905SOL    HW230788   7.071   1.187   2.530 -1.1331  0.9175 -1.7880
 9906SOL     OW30789   4.889   6.745   0.489 -0.0747  0.6242  0.1035
 9906SOL    HW130790   4.880   6.745   0.394  1.0669 -1.6865 -0.0753
 9906SOL    HW230791   4.972   6.790   0.506 -1.0656  2.5339  0.1937
 9907SOL     OW30792   4.947   2.148   4.408 -0.4943  0.2971  0.0490
 9907SOL    HW130793   4.997   2.151   4.326 -1.0742 -2.4408 -0.4865
 9907SOL    HW230794   4.860   2.181   4.385 -0.1952  1.0337 -0.0397
 9908SOL     OW30795   5.364   6.141   1.535  0.5096  0.2985  0.0867
 9908SOL    HW130796   5.411   6.059   1.550 -0.8862 -0.4346  0.6592
 9908SOL    HW230797   5.329   6.133   1.446  2.5539  1.4548 -0.9108
 9909SOL     OW30798   7.869   2.508   0.612  0.1120  0.2520 -0.1099
 9909SOL    HW130799   7.870   2.495   0.517  1.4151  0.2280 -0.1023
 9909SOL    HW230800   7.836   2.425   0.647 -0.6630  0.3657 -0.5449
 9910SOL     OW30801   2.422   0.011   3.463  0.2699 -0.1028  0.3663
 9910SOL    HW130802   2.414  -0.062   3.402 -0.3089 -1.3529  1.8644
 9910SOL    HW230803   2.513   0.006   3.494  0.9872  1.3823 -1.3573
 9911SOL     OW30804   5.649   7.147   2.834  0.1029  0.5926  0.1885
 9911SOL    HW130805   5.715   7.078   2.840 -1.0269 -0.4362  2.6507
 9911SOL    HW230806   5.586   7.114   2.769 -1.0266 -1.4102  2.1248
 9912SOL     OW30807   4.577   4.890   8.121  0.1267 -0.4673  0.4665
 9912SOL    HW130808   4.576   4.985   8.124  0.4258 -0.3986 -0.9870
 9912SOL    HW230809   4.667   4.866   8.142  0.2386 -0.3868  0.0855
 9913SOL     OW30810   7.713   5.913   0.151 -0.0771  0.5466 -0.0807
 9913SOL    HW130811   7.673   5.827   0.160  2.0006 -0.6323 -1.3384
 9913SOL    HW230812   7.741   5.937   0.239 -1.9060  0.6437  0.5242
 9914SOL     OW30813   5.259   1.075   6.763  0.1575  0.2134  0.0157
 9914SOL    HW130814   5.321   1.011   6.727  0.0507  0.7284 -1.1203
 9914SOL    HW230815   5.173   1.040   6.741  0.0891  0.4931 -0.1648
 9915SOL     OW30816   2.692   6.182   6.203  0.4021 -0.5517 -0.2593
 9915SOL    HW130817   2.610   6.183   6.155 -0.1982 -1.0482  0.7217
 9915SOL    HW230818   2.667   6.188   6.295  1.4531 -0.7932  0.0645
 9916SOL     OW30819   7.005   7.953   5.580  0.3544  0.0943 -0.2090
 9916SOL    HW130820   7.099   7.971   5.593  0.0052  1.2732  0.9405
 9916SOL    HW230821   6.984   7.891   5.649  0.2660 -0.0640 -0.3808
 9917SOL     OW30822   2.295   7.192   5.387  0.0336  0.0841 -0.2716
 9917SOL    HW130823   2.229   7.169   5.452  0.2031  0.2208 -0.0474
 9917SOL    HW230824   2.366   7.129   5.401 -0.6085 -0.9299 -1.4106
 9918SOL     OW30825   7.754   4.553   1.115 -0.3826 -0.1801  0.1019
 9918SOL    HW130826   7.789   4.503   1.041 -0.1224  1.2926 -0.8268
 9918SOL    HW230827   7.662   4.564   1.094 -0.6073 -0.8862  0.6826
 9919SOL     OW30828   7.931   3.166   5.642 -0.1110  0.1535 -0.7974
 9919SOL    HW130829   7.837   3.148   5.642  0.0586 -1.0246  1.4364
 9919SOL    HW230830   7.972   3.080   5.636  0.7597  0.3318  1.7062
 9920SOL     OW30831   7.714   5.467   2.560 -0.0112  0.2971  0.1823
 9920SOL    HW130832   7.731   5.426   2.475 -0.6909 -3.1821  1.5340
 9920SOL    HW230833   7.783   5.532   2.570  2.0308 -1.4036 -1.7229
 9921SOL     OW30834   5.079   1.893   4.203  0.4151  0.1250 -0.3257
 9921SOL    HW130835   5.146   1.827   4.217 -0.9334 -1.0536  0.8663
 9921SOL    HW230836   5.029   1.895   4.284  0.1005  2.2937 -0.4942
 9922SOL     OW30837   7.234   3.495   5.645  0.4315  0.2028 -0.2622
 9922SOL    HW130838   7.202   3.469   5.732  0.6520  0.2256 -0.1736
 9922SOL    HW230839   7.323   3.461   5.641  0.8640  1.2525 -0.0008
 9923SOL     OW30840   4.452   0.629   5.419  0.3903 -0.6244  0.4275
 9923SOL    HW130841   4.474   0.536   5.413 -1.9969 -1.1888 -2.8646
 9923SOL    HW230842   4.494   0.668   5.342 -0.8682  0.4443  0.2523
 9924SOL     OW30843   3.923   2.908   6.767 -0.1692 -0.1091 -0.0179
 9924SOL    HW130844   3.929   2.898   6.672 -0.4608  0.7896 -0.1429
 9924SOL    HW230845   4.013   2.894   6.798  0.1745  0.8037 -0.5638
 9925SOL     OW30846   0.757   6.282   4.689 -0.0725 -0.4319  0.2632
 9925SOL    HW130847   0.778   6.346   4.757  0.8197 -0.1721 -0.2312
 9925SOL    HW230848   0.751   6.198   4.735 -0.5407 -0.1017  0.8082
 9926SOL     OW30849   1.840   0.530   3.787  0.4562  0.0936  0.5803
 9926SOL    HW130850   1.841   0.450   3.841  1.0153  0.9573  1.8887
 9926SOL    HW230851   1.750   0.562   3.793  0.8539  0.9832  2.2535
 9927SOL     OW30852   0.232   5.040   6.453  0.0168 -0.2611 -0.6069
 9927SOL    HW130853   0.278   4.962   6.422 -1.9818 -1.9549  0.5107
 9927SOL    HW230854   0.193   5.078   6.374  1.3464 -0.0910 -1.2180
 9928SOL     OW30855   3.381   2.105   4.063 -0.0406 -0.3796  0.3752
 9928SOL    HW130856   3.471   2.073   4.069 -0.3008 -0.8911  2.0306
 9928SOL    HW230857   3.327   2.028   4.081 -0.8457 -0.1787 -1.0309
 9929SOL     OW30858   4.050   4.558   3.252 -0.4872  0.3539  0.0488
 9929SOL    HW130859   3.992   4.598   3.187  0.8284  0.1853 -1.3093
 9929SOL    HW230860   4.058   4.466   3.223  0.4899  0.3950  0.1317
 9930SOL     OW30861   0.643   5.683   5.426  0.2512  0.2031  0.1868
 9930SOL    HW130862   0.619   5.595   5.455  2.7993 -0.3338  0.9120
 9930SOL    HW230863   0.694   5.669   5.346  1.0263  0.9684  0.5289
 9931SOL     OW30864   5.270   1.746   4.710  0.0188  0.4553  0.5605
 9931SOL    HW130865   5.327   1.821   4.694  0.2946  0.0507 -0.3935
 9931SOL    HW230866   5.182   1.783   4.714  0.1595  0.8353  0.1776
 9932SOL     OW30867   0.967   1.402   2.623 -0.4271  0.1928  0.7789
 9932SOL    HW130868   0.979   1.309   2.604 -1.5109  0.3087 -0.7091
 9932SOL    HW230869   1.052   1.432   2.656  1.1765 -0.5046 -2.3609
 9933SOL     OW30870   6.152   0.699   7.375 -0.0437 -0.5892  0.2535
 9933SOL    HW130871   6.144   0.732   7.465  0.6716 -1.8809  0.8244
 9933SOL    HW230872   6.247   0.697   7.359 -0.0996 -1.5438 -0.0496
 9934SOL     OW30873   6.993   3.478   7.528  0.2859 -0.6898 -0.3192
 9934SOL    HW130874   6.904   3.510   7.510  0.3917 -0.6731 -0.8317
 9934SOL    HW230875   7.048   3.555   7.517  0.5761 -1.0669 -1.8297
 9935SOL     OW30876   3.143   1.331   8.034 -0.1179 -0.0371 -0.3290
 9935SOL    HW130877   3.206   1.297   8.098  1.0412 -0.4354 -1.6241
 9935SOL    HW230878   3.093   1.255   8.006 -0.9336  0.2155  0.4197
 9936SOL     OW30879   2.417   7.727   5.955  0.1960  0.4522  0.2417
 9936SOL    HW130880   2.492   7.773   5.918  0.0608 -0.1389 -0.8146
 9936SOL    HW230881   2.432   7.635   5.933 -0.7080  0.3003  0.2297
 9937SOL     OW30882   7.364   0.763   3.667 -0.0442  0.0541  0.2493
 9937SOL    HW130883   7.304   0.775   3.594 -0.1551  1.1515  0.4985
 9937SOL    HW230884   7.379   0.852   3.701  1.8834 -0.1392  0.0468
 9938SOL     OW30885   2.525   0.956   5.333  0.1817 -0.2423 -0.5479
 9938SOL    HW130886   2.592   0.928   5.271  1.9269 -0.2826  1.2317
 9938SOL    HW230887   2.553   0.918   5.417 -2.7337 -1.2496  0.0992
 9939SOL     OW30888   1.785   4.585   4.772 -0.5666  0.1765  0.1340
 9939SOL    HW130889   1.831   4.668   4.759 -0.6355  0.2466  0.3284
 9939SOL    HW230890   1.697   4.601   4.738 -0.6335  0.2411  0.3326
 9940SOL     OW30891   5.935   0.774   1.033 -0.0202 -0.3166 -0.2552
 9940SOL    HW130892   5.860   0.780   0.973 -0.6521  0.3810  0.5777
 9940SOL    HW230893   5.924   0.848   1.092  1.4946 -0.0394 -0.2823
 9941SOL     OW30894   3.161   6.688   0.698  0.7397  0.1920  0.3379
 9941SOL    HW130895   3.200   6.771   0.670  0.4390  0.4110  0.5607
 9941SOL    HW230896   3.146   6.640   0.617 -0.4463  0.9608  0.0778
 9942SOL     OW30897   1.299   0.713   5.677  0.0602  0.2468 -0.4072
 9942SOL    HW130898   1.288   0.687   5.769  1.1414  1.5845  0.1392
 9942SOL    HW230899   1.233   0.780   5.663 -0.2775 -0.1438 -0.6925
 9943SOL     OW30900   6.406   5.536   2.828 -0.2004 -0.6268 -0.1749
 9943SOL    HW130901   6.459   5.551   2.906  0.4235 -0.0193 -0.7151
 9943SOL    HW230902   6.336   5.601   2.834 -0.4425 -0.9102  0.1289
 9944SOL     OW30903   0.808   7.011   2.073  0.3173 -0.0429 -0.9547
 9944SOL    HW130904   0.804   7.064   2.152 -2.4065 -1.9782  0.3942
 9944SOL    HW230905   0.882   6.952   2.088 -0.1958 -0.4224  0.2403
 9945SOL     OW30906   4.429   4.991   6.441  0.1649 -0.0756  0.0948
 9945SOL    HW130907   4.508   4.983   6.494  0.5841 -0.4650 -0.5738
 9945SOL    HW230908   4.426   5.084   6.417  0.5681 -0.1091 -0.0933
 9946SOL     OW30909   5.299   6.981   2.431  0.2830 -0.1893  0.1573
 9946SOL    HW130910   5.310   6.954   2.340 -0.5153 -0.3029  0.0854
 9946SOL    HW230911   5.273   7.073   2.426  0.0314 -0.2520  0.2482
 9947SOL     OW30912   4.703   2.727   4.826  0.1706  0.1060 -0.0960
 9947SOL    HW130913   4.677   2.801   4.771  2.0155  1.0035  0.1553
 9947SOL    HW230914   4.711   2.653   4.765  2.9952  1.2679 -1.2931
 9948SOL     OW30915   0.304   0.433   6.467  0.5262  0.3695 -0.1464
 9948SOL    HW130916   0.277   0.343   6.484 -0.0103  0.5208 -0.1819
 9948SOL    HW230917   0.275   0.482   6.544 -2.4359  1.1648 -1.6285
 9949SOL     OW30918   4.031   7.375   7.417 -0.3488 -0.7107 -0.6361
 9949SOL    HW130919   4.047   7.461   7.456 -3.4001  0.8243 -2.4237
 9949SOL    HW230920   4.006   7.319   7.491  0.0292  0.3604  0.3379
 9950SOL     OW30921   0.722   6.082   5.881 -0.0435 -1.0316  0.2113
 9950SOL    HW130922   0.761   6.123   5.958 -0.5957  0.4425 -0.2605
 9950SOL    HW230923   0.732   5.988   5.896  0.5579 -0.7528  1.7048
 9951SOL     OW30924   6.621   2.375   7.815 -0.0559 -0.0000  0.6169
 9951SOL    HW130925   6.532   2.346   7.794 -0.5020  1.1998  0.7801
 9951SOL    HW230926   6.673   2.295   7.815 -0.8883 -0.5734 -0.7337
 9952SOL     OW30927   7.157   3.238   4.284 -0.1901  0.2341 -0.1123
 9952SOL    HW130928   7.132   3.166   4.225 -0.0808 -1.6013  1.9622
 9952SOL    HW230929   7.099   3.228   4.360  0.4566  1.8067  0.6204
 9953SOL     OW30930   6.464   4.701   3.515  0.0980  0.4160 -0.2694
 9953SOL    HW130931   6.476   4.768   3.582 -1.3021  0.7207 -0.3097
 9953SOL    HW230932   6.370   4.686   3.511  0.1662  0.1810 -1.9474
 9954SOL     OW30933   5.521   7.291   7.564  0.0856  0.5073  0.0943
 9954SOL    HW130934   5.546   7.217   7.619 -0.3175  1.1861  1.2129
 9954SOL    HW230935   5.575   7.281   7.485  0.6343 -0.5044  0.5790
 9955SOL     OW30936   5.084   7.474   4.395  0.5031  0.4466 -0.0221
 9955SOL    HW130937   5.056   7.469   4.486  0.8428 -0.1347  0.0514
 9955SOL    HW230938   5.040   7.553   4.361 -0.4228  0.1105  0.3586
 9956SOL     OW30939   3.916   1.687   6.107  0.1525  0.0961  0.0524
 9956SOL    HW130940   3.912   1.607   6.160 -1.8550  1.2712  1.8122
 9956SOL    HW230941   3.998   1.729   6.133 -0.0601 -0.1139  1.1027
 9957SOL     OW30942   4.955   5.678   0.690  0.0768 -0.2353  0.1742
 9957SOL    HW130943   4.978   5.661   0.598  2.0686 -0.2568  0.6125
 9957SOL    HW230944   4.867   5.643   0.700 -0.2029 -0.2013 -1.7299
 9958SOL     OW30945   2.373   2.651   5.898  0.2092  0.1426  0.2248
 9958SOL    HW130946   2.404   2.587   5.835 -2.6969 -2.0392  0.8050
 9958SOL    HW230947   2.329   2.718   5.845  0.7808  0.1584 -0.2350
 9959SOL     OW30948   6.566   5.054   8.123  0.4123  0.3643 -1.0107
 9959SOL    HW130949   6.658   5.071   8.103  0.7144 -0.7098 -0.6293
 9959SOL    HW230950   6.568   4.978   8.182 -0.6501  1.0935  0.0218
 9960SOL     OW30951   7.923   4.280   3.361 -0.1481  0.0544 -0.4726
 9960SOL    HW130952   7.977   4.308   3.287 -0.2142 -0.6843 -0.8124
 9960SOL    HW230953   7.890   4.361   3.398  0.8347  0.4993 -0.5322
 9961SOL     OW30954   1.540   7.353   6.692  0.0845 -0.0652  0.3406
 9961SOL    HW130955   1.532   7.401   6.774 -0.5347  0.8430 -0.2454
 9961SOL    HW230956   1.474   7.284   6.698 -0.3688  0.3708  0.3464
 9962SOL     OW30957   2.086   6.974   0.189 -0.1911 -0.2340 -0.0974
 9962SOL    HW130958   2.156   6.915   0.159 -0.7905 -0.6274 -0.7631
 9962SOL    HW230959   2.131   7.039   0.243  0.5121 -1.2006  0.5184
 9963SOL     OW30960   5.265   6.250   4.922 -0.0212 -0.5936  0.0048
 9963SOL    HW130961   5.354   6.219   4.933  0.9905  2.0047 -0.2601
 9963SOL    HW230962   5.231   6.260   5.011  1.3937  2.1224  0.3231
 9964SOL     OW30963   6.228   7.589   4.859  0.0529  0.6432 -0.0963
 9964SOL    HW130964   6.303   7.593   4.919 -0.5737 -0.9380  0.8307
 9964SOL    HW230965   6.179   7.670   4.876  0.3513  0.6227  0.8847
 9965SOL     OW30966   7.530   6.018   7.869 -0.2689 -0.2455 -0.0529
 9965SOL    HW130967   7.611   6.032   7.821 -1.2104  1.0314 -1.3929
 9965SOL    HW230968   7.556   5.971   7.948  1.6125 -0.7707 -0.9157
 9966SOL     OW30969   0.412   2.128   2.568  0.7284  0.2824 -0.3182
 9966SOL    HW130970   0.402   2.116   2.663 -2.3127  1.1332 -0.4082
 9966SOL    HW230971   0.477   2.063   2.542  0.7847 -0.7724  2.1775
 9967SOL     OW30972   6.481   3.631   7.532 -0.5762  0.0529  0.4814
 9967SOL    HW130973   6.447   3.693   7.596 -0.7461  1.2332 -0.7071
 9967SOL    HW230974   6.451   3.665   7.448  0.3656 -0.9810 -0.2954
 9968SOL     OW30975   0.336   6.179   6.375 -0.4166 -0.3556  0.0444
 9968SOL    HW130976   0.260   6.152   6.323  0.4412 -1.5155 -0.6730
 9968SOL    HW230977   0.300   6.234   6.444 -1.6648  0.8684 -1.5056
 9969SOL     OW30978   3.092   2.036   2.935  0.2250  0.4614  0.2185
 9969SOL    HW130979   3.157   1.983   2.981  0.5934  1.6194  1.1089
 9969SOL    HW230980   3.143   2.109   2.898 -0.4865  1.1545  0.5679
 9970SOL     OW30981   4.589   6.563   2.048  0.0704  1.0376  0.2993
 9970SOL    HW130982   4.566   6.471   2.060  0.5722  0.6108 -1.6433
 9970SOL    HW230983   4.663   6.576   2.108 -0.8954  0.6005  1.6419
 9971SOL     OW30984   6.921   3.988   6.679  0.4560 -0.4187  0.0882
 9971SOL    HW130985   6.937   3.992   6.773  1.8712 -0.7920 -0.1260
 9971SOL    HW230986   6.986   3.927   6.645 -2.4130 -3.4310 -0.6222
 9972SOL     OW30987   0.248   8.019   6.271  0.0272 -0.0352  0.1950
 9972SOL    HW130988   0.247   7.979   6.358  1.0097  1.4498  0.9344
 9972SOL    HW230989   0.173   7.980   6.226 -1.7157  0.5860  2.3731
 9973SOL     OW30990   1.433   1.198   3.076 -0.2667  0.1940  0.0483
 9973SOL    HW130991   1.510   1.224   3.126 -0.1514 -0.8129  0.4284
 9973SOL    HW230992   1.437   1.249   2.996  0.0108  1.2164  0.6952
 9974SOL     OW30993   5.601   2.556   0.838 -0.0370 -0.3982  0.0591
 9974SOL    HW130994   5.577   2.476   0.884  0.1692 -0.1021  0.7024
 9974SOL    HW230995   5.543   2.623   0.875  0.5359 -0.0385  0.3205
 9975SOL     OW30996   5.641   1.114   7.010 -0.3459  0.1184 -0.1517
 9975SOL    HW130997   5.624   1.027   6.972  1.8695  0.3000 -1.7602
 9975SOL    HW230998   5.731   1.133   6.986 -0.2350  2.1948  1.6090
 9976SOL     OW30999   2.347   7.353   5.142 -0.6050 -0.3133 -0.0690
 9976SOL    HW131000   2.333   7.281   5.080 -1.0036 -0.4995  0.2346
 9976SOL    HW231001   2.300   7.326   5.221 -2.4726  1.1770 -0.6053
 9977SOL     OW31002   7.048   0.436   2.668  0.0778 -0.3324  0.0494
 9977SOL    HW131003   7.127   0.404   2.624  0.1329 -0.9241  0.5655
 9977SOL    HW231004   7.076   0.517   2.711  0.9424 -1.5124  1.8361
 9978SOL     OW31005   1.981   7.601   0.174 -0.2478  0.1633  0.0789
 9978SOL    HW131006   1.955   7.693   0.173  1.6379  0.7267  0.1512
 9978SOL    HW231007   1.960   7.569   0.086 -1.6236  0.4222  0.2932
 9979SOL     OW31008   7.169   7.291   0.893  0.1021  0.6144 -0.0367
 9979SOL    HW131009   7.177   7.318   0.802  1.2197 -0.2997 -0.2337
 9979SOL    HW231010   7.101   7.223   0.892  0.0071  0.7117 -0.1687
 9980SOL     OW31011   6.194   1.445   0.338  0.2383 -0.0133 -0.1174
 9980SOL    HW131012   6.102   1.421   0.328  0.0129 -0.2477  2.1463
 9980SOL    HW231013   6.211   1.504   0.264 -1.6956 -0.0218 -0.6258
 9981SOL     OW31014   0.931   4.915   6.647  0.1629 -0.4562  0.0957
 9981SOL    HW131015   0.999   4.958   6.699  1.8996 -1.1566 -1.4644
 9981SOL    HW231016   0.934   4.824   6.676  0.3909 -0.6286 -0.4580
 9982SOL     OW31017   0.540   2.443   1.856  0.7156  0.4684  0.4249
 9982SOL    HW131018   0.473   2.422   1.921 -0.3596  0.7660 -0.5528
 9982SOL    HW231019   0.510   2.401   1.775  1.1469  1.4858 -0.2933
 9983SOL     OW31020   3.315   1.511   6.342 -0.3452  0.1914  0.1424
 9983SOL    HW131021   3.302   1.427   6.299  0.1745  0.2295 -0.1020
 9983SOL    HW231022   3.381   1.555   6.288 -0.4410  0.6566  0.4014
 9984SOL     OW31023   1.592   1.072   3.440  0.7455  0.0342 -0.1316
 9984SOL    HW131024   1.557   1.019   3.511  0.8307  0.0140 -0.1053
 9984SOL    HW231025   1.514   1.103   3.393  0.5797  1.7951  1.2036
 9985SOL     OW31026   0.143   3.856   5.458  0.4512  0.5118  0.2661
 9985SOL    HW131027   0.125   3.868   5.364  0.6794 -0.3352  0.1122
 9985SOL    HW231028   0.075   3.797   5.488  0.2635  0.9368  0.6890
 9986SOL     OW31029   8.072   4.533   7.310 -0.1418 -0.4863  0.0310
 9986SOL    HW131030   8.082   4.560   7.402 -0.4318 -1.7444  0.4478
 9986SOL    HW231031   8.072   4.616   7.261  4.5139  0.1498  0.6394
 9987SOL     OW31032   5.526   0.484   6.970  0.3379  0.0876  0.8044
 9987SOL    HW131033   5.539   0.390   6.960  0.9321  0.1353  1.0878
 9987SOL    HW231034   5.533   0.519   6.881  0.8370 -0.0521  0.7860
 9988SOL     OW31035   4.864   5.807   4.661 -0.1703 -0.1807 -0.2443
 9988SOL    HW131036   4.944   5.855   4.643  0.6150 -1.7691 -1.1689
 9988SOL    HW231037   4.878   5.766   4.746 -1.0739  1.5718  0.8361
 9989SOL     OW31038   7.119   2.411   7.151  0.5069  0.1651 -0.6194
 9989SOL    HW131039   7.050   2.353   7.120 -1.8781  1.3585  1.9072
 9989SOL    HW231040   7.111   2.489   7.096  0.2358  0.0586 -0.7347
 9990SOL     OW31041   2.133   3.974   5.580 -0.3275 -0.9293 -0.1324
 9990SOL    HW131042   2.090   4.011   5.503  0.2388 -1.6252 -0.8184
 9990SOL    HW231043   2.225   3.964   5.553 -0.3806 -2.4307  0.1403
 9991SOL     OW31044   6.832   3.757   6.435  0.3550 -0.2784 -0.1097
 9991SOL    HW131045   6.892   3.689   6.466 -0.9094 -1.9373 -1.1095
 9991SOL    HW231046   6.805   3.727   6.348 -1.1073  0.9481 -0.1255
 9992SOL     OW31047   0.537   2.348   2.674  0.0526  0.4381  0.3760
 9992SOL    HW131048   0.546   2.280   2.741 -2.0332 -0.4246 -0.1421
 9992SOL    HW231049   0.508   2.302   2.596 -2.1716  1.9855  0.2066
 9993SOL     OW31050   0.627   0.633   5.956 -0.1430 -0.4425 -0.1577
 9993SOL    HW131051   0.597   0.586   5.878 -0.5101 -1.9177  0.8346
 9993SOL    HW231052   0.565   0.706   5.964 -0.6607 -0.8037 -0.7385
 9994SOL     OW31053   4.955   5.347   7.084 -0.3228  0.2182 -0.1533
 9994SOL    HW131054   4.924   5.271   7.134 -0.0307 -0.0657 -0.4028
 9994SOL    HW231055   4.875   5.397   7.066 -0.6113 -0.3925 -0.5926
 9995SOL     OW31056   6.423   6.719   2.543 -0.2565 -0.2236 -0.0491
 9995SOL    HW131057   6.366   6.761   2.478 -0.6963  0.7911  0.9511
 9995SOL    HW231058   6.405   6.626   2.533 -0.1442 -0.1198 -1.5268
 9996SOL     OW31059   2.487   1.487   6.290 -0.5522 -0.4547 -0.3908
 9996SOL    HW131060   2.432   1.432   6.347  0.4380 -1.7524 -0.6297
 9996SOL    HW231061   2.431   1.508   6.215 -1.1528 -0.6136  0.0118
 9997SOL     OW31062   7.706   2.071   5.764  0.3625  0.5590  0.6148
 9997SOL    HW131063   7.767   1.997   5.761 -0.1692  0.0785  1.3279
 9997SOL    HW231064   7.689   2.092   5.672  2.9374  1.8483  0.3311
 9998SOL     OW31065   1.527   0.617   7.322 -0.1310  0.2802  0.6884
 9998SOL    HW131066   1.538   0.656   7.409  0.3119  0.9947  0.3204
 9998SOL    HW231067   1.543   0.690   7.262 -3.0067  0.4695  0.0206
 9999SOL     OW31068   3.934   2.559   2.899  0.0774  0.1249 -0.3539
 9999SOL    HW131069   3.857   2.603   2.862 -1.3235 -1.0635  0.9599
 9999SOL    HW231070   3.981   2.525   2.823 -1.7290 -0.7114 -1.1827
10000SOL     OW31071   4.758   7.871   4.898  0.3607 -0.5000 -0.6418
10000SOL    HW131072   4.772   7.789   4.945  2.0366  0.7682  1.3128
10000SOL    HW231073   4.682   7.911   4.942  0.6643 -0.2236 -0.3599
10001SOL     OW31074   5.171   5.910   5.385  0.5664 -0.2465  0.4726
10001SOL    HW131075   5.253   5.950   5.355 -0.6217  1.3951 -0.8025
10001SOL    HW231076   5.149   5.958   5.465  0.4224 -0.0795  0.3343
10002SOL     OW31077   5.837   2.438   2.689  0.1064  0.7750 -0.5097
10002SOL    HW131078   5.820   2.486   2.608  1.4667  1.7831 -0.2276
10002SOL    HW231079   5.894   2.496   2.740  0.6345 -0.5444  0.4573
10003SOL     OW31080   2.761   2.496   0.752 -0.4481 -0.2275 -0.1176
10003SOL    HW131081   2.748   2.587   0.725  0.7234 -0.4990 -1.7743
10003SOL    HW231082   2.682   2.450   0.722 -0.6917  0.1053  0.0141
10004SOL     OW31083   2.529   4.631   6.593  0.3686 -0.7547  0.1983
10004SOL    HW131084   2.450   4.626   6.646 -0.3017 -2.3780 -0.8871
10004SOL    HW231085   2.579   4.552   6.615  0.5152 -0.9794 -0.8976
10005SOL     OW31086   7.142   4.983   2.002 -0.6506 -0.1464 -0.0762
10005SOL    HW131087   7.097   4.912   2.049  0.7473  0.6369  2.6708
10005SOL    HW231088   7.223   4.943   1.971 -1.5692 -0.6608 -1.9703
10006SOL     OW31089   4.867   0.564   4.429  0.7957 -0.4345  0.6097
10006SOL    HW131090   4.917   0.502   4.376  2.6112  0.7042  0.8931
10006SOL    HW231091   4.920   0.574   4.509  0.6328  1.5742  0.4997
10007SOL     OW31092   6.786   4.943   0.401 -0.3233  0.9048 -0.4201
10007SOL    HW131093   6.799   4.961   0.308 -1.1152 -1.7353 -1.1143
10007SOL    HW231094   6.864   4.893   0.427 -1.4196 -0.9184 -0.4723
10008SOL     OW31095   3.649   4.336   2.142 -0.3569  0.5446 -0.2211
10008SOL    HW131096   3.588   4.340   2.068 -1.0127  0.5108  0.3076
10008SOL    HW231097   3.617   4.403   2.203  0.2938  0.7069 -0.0481
10009SOL     OW31098   2.332   7.189   0.271 -0.1544 -0.0041 -0.4576
10009SOL    HW131099   2.424   7.176   0.295 -0.2373 -2.9769 -1.3594
10009SOL    HW231100   2.326   7.282   0.252  2.3461  0.5369  0.8456
10010SOL     OW31101   0.115   5.110   3.717  0.3033 -0.2685 -0.0914
10010SOL    HW131102   0.126   5.032   3.662  1.3090 -0.0272 -0.2423
10010SOL    HW231103   0.028   5.099   3.756  0.2149 -1.2040 -0.5206
10011SOL     OW31104   0.167   2.833   8.095  0.0202  0.2006  0.3553
10011SOL    HW131105   0.084   2.795   8.124 -0.1675  1.3285  1.3588
10011SOL    HW231106   0.153   2.927   8.101  1.0419  0.4143 -0.4647
10012SOL     OW31107   3.975   6.973   5.731 -0.5406  0.0193 -0.1568
10012SOL    HW131108   4.024   6.892   5.732 -1.5237 -0.6131 -0.9973
10012SOL    HW231109   3.903   6.959   5.793 -0.0538  0.7046  0.5942
10013SOL     OW31110   6.423   1.190   4.031  0.1212 -0.4593 -0.0904
10013SOL    HW131111   6.441   1.272   4.077 -1.0179 -0.9505  1.3045
10013SOL    HW231112   6.472   1.197   3.949  0.8136  1.1943  0.4278
10014SOL     OW31113   2.167   7.162   3.963  0.2692 -0.0926  0.2351
10014SOL    HW131114   2.105   7.165   4.036 -0.0885  1.2025 -0.0924
10014SOL    HW231115   2.113   7.180   3.886  0.9375  0.3323 -0.1414
10015SOL     OW31116   5.698   4.075   0.222 -0.3088 -0.6142 -0.0284
10015SOL    HW131117   5.613   4.081   0.266  0.3750  1.2613  1.1781
10015SOL    HW231118   5.762   4.099   0.289  1.1021 -1.1013 -1.1391
10016SOL     OW31119   6.111   3.256   4.294  0.6242  0.6719 -0.0231
10016SOL    HW131120   6.165   3.227   4.367  0.6106  1.6645  0.3911
10016SOL    HW231121   6.021   3.253   4.328  0.4094 -0.7472 -0.6348
10017SOL     OW31122   0.058   1.273   0.212 -0.4629 -0.2032  0.2367
10017SOL    HW131123   0.120   1.257   0.141 -2.1940 -1.0468 -1.1652
10017SOL    HW231124   0.061   1.192   0.264 -1.1689 -0.7025 -0.4764
10018SOL     OW31125   0.118   2.959   1.231  0.2939  0.5868  0.2082
10018SOL    HW131126   0.128   3.052   1.250  0.7046  1.0223 -1.9048
10018SOL    HW231127   0.158   2.947   1.144 -4.0593 -0.5373 -1.9463
10019SOL     OW31128   7.412   4.829   2.463  0.7597 -0.0684 -0.1883
10019SOL    HW131129   7.350   4.795   2.398  0.3187 -2.0852  1.1949
10019SOL    HW231130   7.439   4.914   2.428 -0.3271 -0.5617 -2.4171
10020SOL     OW31131   2.118   0.219   7.490 -0.2621 -0.4489 -0.0554
10020SOL    HW131132   2.041   0.196   7.543  0.0543 -0.4841  0.3981
10020SOL    HW231133   2.148   0.135   7.453  0.9705 -0.8524  1.7060
10021SOL     OW31134   1.969   4.563   4.087 -0.5420  0.1308  0.3560
10021SOL    HW131135   1.885   4.518   4.100 -1.9757  2.6626  0.5932
10021SOL    HW231136   1.967   4.636   4.149  1.3895  0.8680 -0.3641
10022SOL     OW31137   5.862   3.342   5.564  0.4083 -0.1952  0.1246
10022SOL    HW131138   5.923   3.332   5.637 -0.6787  0.5347  1.1627
10022SOL    HW231139   5.902   3.408   5.508  0.5949  0.2525  0.7743
10023SOL     OW31140   8.086   3.393   4.982  0.2231  0.0455  0.1376
10023SOL    HW131141   8.072   3.468   4.925 -1.6591  0.4047  0.9888
10023SOL    HW231142   8.045   3.320   4.936  1.6213 -0.3916 -0.4621
10024SOL     OW31143   4.344   7.548   1.352 -0.2030  0.0121  0.2207
10024SOL    HW131144   4.428   7.519   1.387  0.1463 -0.3477 -0.8797
10024SOL    HW231145   4.319   7.479   1.290 -0.6062  0.8184 -0.5281
10025SOL     OW31146   3.482   1.005   4.097 -0.3291 -0.0217  0.1908
10025SOL    HW131147   3.552   0.941   4.087 -0.9232 -0.6545 -0.0213
10025SOL    HW231148   3.454   1.024   4.008  0.1589  0.9002  0.2273
10026SOL     OW31149   1.030   3.023   7.579  0.2628  0.1474 -0.1328
10026SOL    HW131150   1.001   2.980   7.498  2.1692 -0.2977 -0.6471
10026SOL    HW231151   0.950   3.041   7.627 -0.7922 -1.4715 -1.1794
10027SOL     OW31152   4.324   5.479   4.575 -0.4434  0.2180 -0.1986
10027SOL    HW131153   4.329   5.452   4.667  0.0262  0.4656 -0.1476
10027SOL    HW231154   4.372   5.562   4.572  2.2921 -1.2675 -1.2044
10028SOL     OW31155   1.719   1.469   7.926 -0.4337 -0.2153 -0.0503
10028SOL    HW131156   1.778   1.398   7.902 -0.9328 -0.4442 -0.6252
10028SOL    HW231157   1.632   1.438   7.902 -0.8097  0.0931  0.8429
10029SOL     OW31158   3.057   0.293   0.294 -0.0377 -0.1267  0.1106
10029SOL    HW131159   3.038   0.337   0.211 -0.4772  0.8636  0.7159
10029SOL    HW231160   3.060   0.364   0.358  1.9922 -0.6460  0.6853
10030SOL     OW31161   0.124   0.465   2.004 -0.5537  0.4622 -0.4044
10030SOL    HW131162   0.121   0.467   2.100  0.1430 -0.8133 -0.3349
10030SOL    HW231163   0.161   0.550   1.980  2.1453 -0.2936  0.6591
10031SOL     OW31164   2.948   5.415   3.273  0.2237  0.4944 -0.0133
10031SOL    HW131165   2.892   5.492   3.279 -1.7223 -0.6452 -1.7184
10031SOL    HW231166   2.934   5.383   3.184  1.9807 -1.0983  0.2195
10032SOL     OW31167   3.180   1.596   3.351  0.0405  0.1350  0.7395
10032SOL    HW131168   3.099   1.639   3.324  0.1498  0.5087  1.0063
10032SOL    HW231169   3.246   1.626   3.287 -0.2140 -0.8785 -0.0314
10033SOL     OW31170   2.584   4.146   6.465 -0.5803  0.4256 -0.0585
10033SOL    HW131171   2.500   4.193   6.468 -0.0108  1.6270 -1.5361
10033SOL    HW231172   2.587   4.108   6.377 -0.4872 -1.4506  0.7022
10034SOL     OW31173   0.902   3.153   7.925  0.2144  0.3329  0.5249
10034SOL    HW131174   0.832   3.144   7.861 -1.3104  1.1891  2.0037
10034SOL    HW231175   0.921   3.063   7.953 -0.4477  0.1149  0.2752
10035SOL     OW31176   5.607   6.579   1.450  0.7121 -0.4796 -0.4040
10035SOL    HW131177   5.572   6.614   1.368 -2.8330  0.3685  1.2768
10035SOL    HW231178   5.534   6.529   1.488  2.1486 -0.6922  2.3328
10036SOL     OW31179   2.539   6.045   8.055  0.0300 -0.0198 -0.0962
10036SOL    HW131180   2.482   5.969   8.067  0.8277 -1.2230 -2.9433
10036SOL    HW231181   2.602   6.017   7.988  2.4776  2.0651  1.1757
10037SOL     OW31182   5.728   7.609   5.438  0.3544 -0.9243 -0.4822
10037SOL    HW131183   5.686   7.552   5.373 -3.6901  0.1130  0.9001
10037SOL    HW231184   5.733   7.695   5.395 -1.5619 -0.4348  0.1552
10038SOL     OW31185   3.940   2.049   7.462 -0.1582 -0.4528  0.2918
10038SOL    HW131186   3.862   2.093   7.429  1.5076 -0.1246 -3.7122
10038SOL    HW231187   4.005   2.119   7.469  0.9866 -1.3692 -0.8321
10039SOL     OW31188   2.703   6.921   0.336 -0.0684  0.1490 -0.1971
10039SOL    HW131189   2.774   6.880   0.285  0.1195  1.4464 -1.0345
10039SOL    HW231190   2.725   6.903   0.427  1.0972  0.1207 -0.4662
10040SOL     OW31191   5.849   2.342   6.481  0.5275 -0.1997  0.0932
10040SOL    HW131192   5.910   2.405   6.520  0.9954 -0.5201 -0.1127
10040SOL    HW231193   5.880   2.331   6.391  0.3412 -0.5829  0.0736
10041SOL     OW31194   2.822   6.457   0.175  0.3227 -0.0165  0.0157
10041SOL    HW131195   2.804   6.397   0.103  0.4635 -2.1170  1.6181
10041SOL    HW231196   2.742   6.510   0.182  0.2595  0.1484 -1.5477
10042SOL     OW31197   7.829   5.562   5.961  0.1740  0.4471 -0.4120
10042SOL    HW131198   7.897   5.540   6.025 -0.9937  0.0489  0.7547
10042SOL    HW231199   7.747   5.552   6.010 -0.7034  1.3494 -1.6438
10043SOL     OW31200   3.348   5.689   2.134  0.4597  0.3168 -0.0877
10043SOL    HW131201   3.347   5.711   2.228 -0.1064 -1.4053  0.3322
10043SOL    HW231202   3.364   5.773   2.091  1.2741  1.0721  1.5651
10044SOL     OW31203   1.948   4.770   0.713  0.3121  0.0882  0.3977
10044SOL    HW131204   1.895   4.848   0.696  2.4073  1.3754 -0.6475
10044SOL    HW231205   1.967   4.773   0.806  0.6526  1.0417  0.3037
10045SOL     OW31206   3.330   7.096   4.774 -0.2025 -0.4586 -0.1641
10045SOL    HW131207   3.318   7.100   4.679 -1.0783 -0.8151 -0.0830
10045SOL    HW231208   3.358   7.006   4.791  1.2341 -0.0381 -0.1988
10046SOL     OW31209   0.605   3.434   3.131  0.4716  0.5136 -0.2679
10046SOL    HW131210   0.653   3.457   3.210 -0.1409 -0.9855  0.5942
10046SOL    HW231211   0.543   3.506   3.119  0.4132  0.6559  0.7638
10047SOL     OW31212   5.017   2.742   5.062 -0.2635 -0.4567  0.2702
10047SOL    HW131213   4.997   2.648   5.052 -0.3596 -0.3500 -0.6938
10047SOL    HW231214   5.089   2.757   5.001  0.1844 -0.0235  0.8969
10048SOL     OW31215   6.385   4.884   6.682 -0.1437 -0.1490  0.3820
10048SOL    HW131216   6.447   4.818   6.653 -0.4870  0.5813 -2.2865
10048SOL    HW231217   6.299   4.852   6.653 -1.0392 -0.8408  3.4464
10049SOL     OW31218   5.426   6.912   0.450  0.0417 -0.1118 -0.9169
10049SOL    HW131219   5.490   6.888   0.383 -0.8590 -2.8148 -0.9143
10049SOL    HW231220   5.432   6.842   0.515 -1.7580  0.4331 -0.1023
10050SOL     OW31221   1.995   6.083   2.658 -0.2142  0.3537 -0.0852
10050SOL    HW131222   1.907   6.054   2.633 -1.0569  1.2537  1.6029
10050SOL    HW231223   2.014   6.157   2.601  1.5543 -2.6192 -3.7673
10051SOL     OW31224   4.660   4.321   7.284 -0.1823 -0.0630  0.6718
10051SOL    HW131225   4.747   4.325   7.245 -0.7260 -0.5109 -0.6689
10051SOL    HW231226   4.646   4.228   7.302 -1.3622 -0.3974 -1.5873
10052SOL     OW31227   0.270   0.197   7.848  0.0701  0.5975  0.2146
10052SOL    HW131228   0.275   0.195   7.752  0.1393 -0.5130  0.2276
10052SOL    HW231229   0.234   0.283   7.868 -0.7968  0.5101 -0.8567
10053SOL     OW31230   2.306   4.554   5.281 -0.2467  0.3434 -0.3104
10053SOL    HW131231   2.294   4.619   5.211 -1.8687 -0.3369 -0.6943
10053SOL    HW231232   2.301   4.605   5.362 -0.6404  0.8219 -0.6271
10054SOL     OW31233   2.810   6.260   7.838 -0.5899 -0.5759  0.4370
10054SOL    HW131234   2.812   6.312   7.758 -1.0356 -0.0023  0.7906
10054SOL    HW231235   2.751   6.187   7.818 -0.9620 -0.2558  0.3406
10055SOL     OW31236   2.599   7.154   3.172  0.1012 -0.3583 -0.2904
10055SOL    HW131237   2.685   7.114   3.160  2.6273  2.6384  4.3890
10055SOL    HW231238   2.550   7.089   3.222 -0.2219 -1.8232 -2.3973
10056SOL     OW31239   1.951   3.867   7.209 -0.5932 -0.2104 -0.2297
10056SOL    HW131240   1.921   3.885   7.120  0.6702  2.1170 -0.2637
10056SOL    HW231241   1.913   3.936   7.262  2.3251  1.2592  0.1573
10057SOL     OW31242   1.412   3.398   3.237  0.6268  0.4095 -0.3781
10057SOL    HW131243   1.432   3.404   3.143 -1.3515  1.0306 -0.8200
10057SOL    HW231244   1.473   3.332   3.270  0.9766 -0.2724 -2.2303
10058SOL     OW31245   8.126   1.868   7.876  0.2221  0.0052  0.0330
10058SOL    HW131246   8.214   1.841   7.903  0.3386  0.9805  0.6536
10058SOL    HW231247   8.131   1.963   7.867 -0.4877 -0.0330 -1.0164
10059SOL     OW31248   0.058   4.622   0.800 -0.1885  0.3796  0.3556
10059SOL    HW131249  -0.016   4.562   0.810  0.4379 -0.3838  0.5112
10059SOL    HW231250   0.019   4.705   0.774 -0.9601 -0.4662 -1.2931
10060SOL     OW31251   1.972   4.776   0.002  0.6105 -0.4584 -0.0282
10060SOL    HW131252   1.947   4.708   0.064 -2.5023 -0.0828 -0.6890
10060SOL    HW231253   2.005   4.727  -0.074 -0.4027 -1.1962 -0.0154
10061SOL     OW31254   7.146   3.522   2.559  1.0067 -0.2220  0.2389
10061SOL    HW131255   7.232   3.510   2.599  0.8002 -1.1587  0.4347
10061SOL    HW231256   7.084   3.502   2.629  0.5640  2.7032  0.7846
10062SOL     OW31257   5.984   5.028   8.032  0.1286 -0.4167  0.0961
10062SOL    HW131258   6.047   4.971   8.077  2.6381  0.5054 -2.0102
10062SOL    HW231259   5.960   4.980   7.953  0.1725  0.3061 -0.3643
10063SOL     OW31260   0.523   5.926   3.419 -0.2246 -0.2535  0.0957
10063SOL    HW131261   0.550   5.926   3.327 -0.7945 -0.1621 -0.0727
10063SOL    HW231262   0.515   6.019   3.442  2.6724 -0.1229  1.0742
10064SOL     OW31263   0.028   6.841   3.253  0.0646 -0.5550  0.3183
10064SOL    HW131264   0.087   6.909   3.220  1.7252 -0.6302  2.8162
10064SOL    HW231265  -0.025   6.885   3.319 -1.1795 -1.0006 -0.3479
10065SOL     OW31266   0.120   2.976   6.412 -0.0547 -1.0779 -0.0815
10065SOL    HW131267   0.120   2.966   6.317  0.7856  1.0458 -0.3619
10065SOL    HW231268   0.213   2.972   6.437 -0.2227 -1.0674  0.5797
10066SOL     OW31269   7.741   6.807   6.688  0.7379 -0.0159 -0.1736
10066SOL    HW131270   7.732   6.772   6.776  1.3134  2.0492  0.7783
10066SOL    HW231271   7.795   6.886   6.699  1.8332 -0.3438 -2.5426
10067SOL     OW31272   0.717   0.146   4.215  0.4807 -0.5048  0.5652
10067SOL    HW131273   0.660   0.069   4.207  1.8272 -1.4914  0.0890
10067SOL    HW231274   0.667   0.208   4.268 -0.9606 -1.3956  0.2872
10068SOL     OW31275   0.755   0.416   6.092  0.3421  0.0841  0.0200
10068SOL    HW131276   0.711   0.494   6.059  0.0696  0.4211  1.1360
10068SOL    HW231277   0.687   0.367   6.137  0.3508 -1.1885 -1.3082
10069SOL     OW31278   3.763   3.940   6.518 -0.0687 -0.2619 -0.0171
10069SOL    HW131279   3.823   3.999   6.565  0.3506 -1.5919  1.2049
10069SOL    HW231280   3.782   3.955   6.426  1.7647 -0.2261  0.3297
10070SOL     OW31281   5.213   6.776   7.191 -0.0198 -0.1644  0.8118
10070SOL    HW131282   5.239   6.747   7.278 -1.2710 -0.3081  1.1541
10070SOL    HW231283   5.154   6.850   7.206  0.8467  0.7204  0.0285
10071SOL     OW31284   6.343   7.268   7.014  0.0100  0.0852  0.2816
10071SOL    HW131285   6.426   7.293   7.054 -1.1152  3.3579  0.9795
10071SOL    HW231286   6.350   7.297   6.923  0.2792 -1.3722 -0.1730
10072SOL     OW31287   4.133   2.598   7.685  0.5879  0.0122 -0.3701
10072SOL    HW131288   4.157   2.681   7.644 -0.3456 -0.1912 -1.3739
10072SOL    HW231289   4.205   2.539   7.664  1.1312  0.4914  0.1232
10073SOL     OW31290   0.886   5.668   2.705 -0.0606  0.0598  0.2422
10073SOL    HW131291   0.965   5.649   2.653  0.7522  1.2084  1.0250
10073SOL    HW231292   0.877   5.591   2.762  0.2358 -0.2755 -0.1510
10074SOL     OW31293   5.607   6.864   6.044  0.7271  0.1240  0.0299
10074SOL    HW131294   5.617   6.769   6.045  1.0707  0.1566 -0.1172
10074SOL    HW231295   5.622   6.888   5.952  0.1993  0.2743 -0.0177
10075SOL     OW31296   0.091   7.083   5.263 -0.4541  0.5420  0.9168
10075SOL    HW131297   0.143   7.063   5.341 -0.5893 -0.0662  0.8574
10075SOL    HW231298   0.032   7.153   5.291  0.8440  1.7274  0.7932
10076SOL     OW31299   3.974   5.384   2.014  0.0883  0.8075  0.5561
10076SOL    HW131300   3.979   5.289   2.025  0.2067  0.6088 -1.0453
10076SOL    HW231301   4.054   5.417   2.056  0.7326  0.0687 -0.0474
10077SOL     OW31302   5.638   5.123   3.008  0.2632 -0.3660  0.2032
10077SOL    HW131303   5.621   5.039   3.051  0.5718 -1.2777 -1.3519
10077SOL    HW231304   5.668   5.181   3.078 -0.7973 -1.2900  1.4584
10078SOL     OW31305   4.150   3.172   1.489 -0.3137  0.5452 -0.2367
10078SOL    HW131306   4.138   3.262   1.518 -0.6447  0.2066  0.7197
10078SOL    HW231307   4.063   3.133   1.495 -0.2913  0.3192 -1.2254
10079SOL     OW31308   4.097   0.121   1.698  0.4591 -0.6680  0.5409
10079SOL    HW131309   4.176   0.077   1.666  0.8222 -0.5609  1.2778
10079SOL    HW231310   4.065   0.064   1.768 -0.2237 -0.8047  0.1266
10080SOL     OW31311   5.026   2.341   6.422  0.3970 -0.1888 -0.1762
10080SOL    HW131312   5.024   2.286   6.344  1.6430 -0.3296 -0.1290
10080SOL    HW231313   4.975   2.418   6.399  0.0975 -0.5787 -0.8456
10081SOL     OW31314   7.094   1.873   4.444 -0.1096  0.0924 -0.4466
10081SOL    HW131315   7.160   1.923   4.491 -0.9078  1.9779 -1.2348
10081SOL    HW231316   7.070   1.803   4.505  0.3693  1.2205  1.1283
10082SOL     OW31317   3.054   5.857   3.664 -0.3113  0.2055 -0.6002
10082SOL    HW131318   3.061   5.785   3.727  1.1717 -0.4783 -1.4953
10082SOL    HW231319   2.960   5.864   3.648 -0.5133 -1.4459 -0.3763
10083SOL     OW31320   7.069   4.233   2.285  0.6062 -0.0767 -0.3418
10083SOL    HW131321   7.047   4.327   2.287  0.4165 -0.0435 -1.9920
10083SOL    HW231322   7.111   4.216   2.369  2.7858  2.0496 -0.8946
10084SOL     OW31323   1.842   7.684   3.584 -0.1533 -0.5585 -0.2023
10084SOL    HW131324   1.748   7.674   3.570  0.0380 -0.5646 -1.5586
10084SOL    HW231325   1.872   7.597   3.608 -0.4717 -0.5818  0.1224
10085SOL     OW31326   2.461   0.505   1.273  0.3060 -0.0294  0.6258
10085SOL    HW131327   2.399   0.463   1.332  0.9807 -1.2387  0.5176
10085SOL    HW231328   2.495   0.579   1.323 -0.2833 -0.1057  1.1531
10086SOL     OW31329   6.245   2.352   4.578 -0.2713  0.0057  0.3925
10086SOL    HW131330   6.275   2.279   4.631 -0.7626  1.4172  2.7808
10086SOL    HW231331   6.207   2.312   4.501 -2.2132 -2.4076  2.4427
10087SOL     OW31332   7.796   3.522   6.923  0.3727  0.2498 -0.0598
10087SOL    HW131333   7.887   3.492   6.918 -0.2831 -1.8896 -0.0165
10087SOL    HW231334   7.797   3.607   6.878  2.7513  1.3015  1.7176
10088SOL     OW31335   2.942   3.938   6.110 -0.2957 -0.1260 -0.7879
10088SOL    HW131336   2.857   3.924   6.150  0.3610 -0.5675  0.4862
10088SOL    HW231337   2.985   4.003   6.165  0.0997  0.2983 -1.5743
10089SOL     OW31338   2.487   3.090   6.320 -0.0694  0.5979  0.2515
10089SOL    HW131339   2.406   3.096   6.370 -0.7684  0.7596 -0.8628
10089SOL    HW231340   2.528   3.009   6.351 -1.3179 -0.2073 -0.1091
10090SOL     OW31341   4.891   6.651   2.155 -0.0399 -0.3201  0.0985
10090SOL    HW131342   4.980   6.634   2.187  0.0750 -0.9126 -0.5254
10090SOL    HW231343   4.854   6.712   2.220  0.8251 -0.0459  0.3504
10091SOL     OW31344   0.520   0.325   4.316  0.4033  0.2271 -0.4432
10091SOL    HW131345   0.476   0.328   4.231  1.8206  0.7209 -1.1794
10091SOL    HW231346   0.521   0.415   4.346  0.5797  0.1599 -0.2479
10092SOL     OW31347   4.908   6.840   1.031  0.3536 -0.1799  0.2900
10092SOL    HW131348   4.922   6.800   0.946 -1.0895  1.9694 -1.0693
10092SOL    HW231349   4.987   6.892   1.047  1.4535 -2.0387  1.2312
10093SOL     OW31350   3.795   7.458   5.307 -0.1951  0.4783 -0.0427
10093SOL    HW131351   3.793   7.422   5.218  0.7602  2.0547 -0.7511
10093SOL    HW231352   3.869   7.413   5.348 -1.9767 -1.9238  0.7897
10094SOL     OW31353   7.628   2.060   5.452 -0.1146 -0.1291  0.2795
10094SOL    HW131354   7.545   2.031   5.491 -0.7300 -0.2710 -1.0903
10094SOL    HW231355   7.670   1.979   5.424 -0.5428  0.0741 -1.0122
10095SOL     OW31356   5.709   7.803   6.121  0.4048 -0.2787  0.1885
10095SOL    HW131357   5.666   7.857   6.055 -3.2986 -2.5358  0.4699
10095SOL    HW231358   5.638   7.775   6.179  2.5983 -2.8643  1.8720
10096SOL     OW31359   6.192   4.675   3.546 -0.0479  0.2425 -0.1181
10096SOL    HW131360   6.157   4.600   3.594  2.0780  0.7274  2.3563
10096SOL    HW231361   6.137   4.749   3.573  0.1812  0.2393  0.3549
10097SOL     OW31362   8.122   5.027   5.659 -0.2427  0.4004 -0.0579
10097SOL    HW131363   8.140   5.034   5.565  0.3665 -1.9364 -0.1864
10097SOL    HW231364   8.209   5.030   5.700 -0.2276 -1.4873  0.1345
10098SOL     OW31365   7.026   6.788   2.718 -0.1120 -0.1336 -0.1997
10098SOL    HW131366   6.932   6.795   2.734 -0.3282 -1.1756 -0.9604
10098SOL    HW231367   7.034   6.783   2.623  0.8954  2.3167 -0.3141
10099SOL     OW31368   4.656   1.520   0.833 -0.6696  0.1409  0.3667
10099SOL    HW131369   4.688   1.476   0.755  0.2611  0.7765  0.3684
10099SOL    HW231370   4.701   1.476   0.906  0.5482  1.2882  0.3433
10100SOL     OW31371   3.540   3.451   2.730  0.0359 -0.1511 -0.3193
10100SOL    HW131372   3.569   3.529   2.777 -0.1599 -0.1746 -0.1591
10100SOL    HW231373   3.576   3.377   2.779  0.9693 -0.1466 -0.9662
10101SOL     OW31374   2.628   0.024   3.630  0.3290  0.6531 -0.3058
10101SOL    HW131375   2.688  -0.027   3.575  0.1808  0.3078 -0.1542
10101SOL    HW231376   2.650  -0.001   3.720 -0.2747  0.2400 -0.2598
10102SOL     OW31377   7.862   1.029   7.240  0.2950  0.2076 -0.1691
10102SOL    HW131378   7.909   1.079   7.307  1.0030 -0.7199  0.0468
10102SOL    HW231379   7.780   1.077   7.227  0.3415  0.6435  1.0431
10103SOL     OW31380   0.806   0.770   1.016  0.3816 -0.3862  0.4989
10103SOL    HW131381   0.794   0.766   1.111 -0.4990  0.5559  0.4412
10103SOL    HW231382   0.824   0.863   0.998  2.3928 -0.8182 -0.0706
10104SOL     OW31383   6.539   1.670   4.125 -0.0719 -0.3249  0.1001
10104SOL    HW131384   6.606   1.735   4.145  0.2348 -1.2814  2.5060
10104SOL    HW231385   6.584   1.586   4.133 -1.0820 -0.9133 -0.2530
10105SOL     OW31386   1.360   2.254   3.484  0.4248 -0.0143  0.0648
10105SOL    HW131387   1.371   2.159   3.477  1.1605  0.0710 -0.0449
10105SOL    HW231388   1.446   2.289   3.464 -0.4216  0.8178 -2.4254
10106SOL     OW31389   2.403   5.789   7.737 -0.6994 -0.4198 -0.3190
10106SOL    HW131390   2.426   5.697   7.748 -2.1457 -0.8575 -0.8269
10106SOL    HW231391   2.460   5.819   7.666 -0.9786 -1.2136 -0.8895
10107SOL     OW31392   3.478   6.705   1.165  0.3058 -0.6912 -0.4057
10107SOL    HW131393   3.451   6.774   1.105  0.0092 -0.0339  0.4655
10107SOL    HW231394   3.566   6.681   1.136  0.8978  0.8933  0.0032
10108SOL     OW31395   6.777   1.695   5.587  0.7326  0.1563 -0.0543
10108SOL    HW131396   6.781   1.630   5.517 -0.5471  0.9461 -0.8928
10108SOL    HW231397   6.694   1.676   5.632  0.8784  0.5273  0.3759
10109SOL     OW31398   4.100   5.800   0.650 -0.7198  0.5286 -0.5469
10109SOL    HW131399   4.168   5.775   0.713 -0.1556  2.1219 -0.4694
10109SOL    HW231400   4.058   5.718   0.626 -0.8746 -0.1558  1.8157
10110SOL     OW31401   7.128   1.500   7.913  0.0667  0.0604 -0.0282
10110SOL    HW131402   7.132   1.554   7.992 -1.8141  1.5315 -0.8626
10110SOL    HW231403   7.068   1.546   7.855  0.4569 -1.5948 -1.8739
10111SOL     OW31404   1.927   4.485   3.152 -0.3442 -0.2645  0.1424
10111SOL    HW131405   2.014   4.500   3.114 -0.2149  0.1534  0.5881
10111SOL    HW231406   1.872   4.553   3.114 -0.3291 -0.1431  0.3386
10112SOL     OW31407   3.300   3.001   5.246  1.1089  0.1501  0.5312
10112SOL    HW131408   3.220   2.962   5.212  0.6679  0.4893  1.1622
10112SOL    HW231409   3.332   3.057   5.176  1.1463 -0.4807  0.0384
10113SOL     OW31410   5.752   3.114   1.033  0.1383  0.0474 -0.4391
10113SOL    HW131411   5.690   3.056   1.079 -0.4787  2.2616  1.7147
10113SOL    HW231412   5.813   3.142   1.100  0.0483  2.3504 -1.2428
10114SOL     OW31413   4.676   5.413   6.590  0.4418  0.0453 -0.8766
10114SOL    HW131414   4.581   5.409   6.600  0.4026  1.5792 -0.3312
10114SOL    HW231415   4.710   5.353   6.656 -0.1261  0.8786  0.2058
10115SOL     OW31416   6.119   3.896   5.570  0.4747 -0.0080  0.3637
10115SOL    HW131417   6.100   3.909   5.476 -0.1790 -1.9425  0.1743
10115SOL    HW231418   6.034   3.874   5.608  0.8326  0.2273  1.3258
10116SOL     OW31419   3.460   6.836   3.185  0.1678  0.1115  0.0791
10116SOL    HW131420   3.546   6.815   3.219 -0.0719 -2.1904 -0.5934
10116SOL    HW231421   3.473   6.849   3.091 -0.3235 -1.0752 -0.1660
10117SOL     OW31422   0.100   2.929   5.402  0.1251 -0.2426  0.2112
10117SOL    HW131423   0.109   2.954   5.310  1.6303  0.2151  0.4570
10117SOL    HW231424   0.157   2.852   5.412 -0.6279 -0.7671  0.5970
10118SOL     OW31425   3.169   1.571   0.744  0.0160 -0.1329 -0.2926
10118SOL    HW131426   3.168   1.484   0.785 -1.4531  0.6889  1.5835
10118SOL    HW231427   3.093   1.571   0.686 -0.5704  0.2142  0.4651
10119SOL     OW31428   5.658   0.232   6.516  0.6332  0.0281  0.1972
10119SOL    HW131429   5.612   0.316   6.507  0.5553  0.1829  1.7394
10119SOL    HW231430   5.589   0.169   6.536  0.7664 -0.2794 -0.3172
10120SOL     OW31431   1.999   2.645   3.846 -0.4805 -0.2008  0.5215
10120SOL    HW131432   2.080   2.602   3.873  1.5304  3.0650  0.2281
10120SOL    HW231433   1.987   2.619   3.754 -0.5610 -1.7451  0.9423
10121SOL     OW31434   2.067   7.025   1.301 -0.0098 -0.4822 -1.0217
10121SOL    HW131435   2.005   7.069   1.243 -1.9748  1.5893  2.2817
10121SOL    HW231436   2.145   7.080   1.298 -0.1650 -0.2817 -1.5352
10122SOL     OW31437   4.286   1.535   1.509  0.1674 -0.5489  1.1407
10122SOL    HW131438   4.293   1.531   1.414 -0.1047 -0.3825  1.1118
10122SOL    HW231439   4.309   1.447   1.539  1.1646 -0.3611  0.9833
10123SOL     OW31440   7.447   3.933   7.626 -0.0715  0.1047 -0.2090
10123SOL    HW131441   7.505   4.007   7.607 -1.0417  0.8017 -0.4961
10123SOL    HW231442   7.372   3.971   7.671 -0.3573 -0.7870  0.1079
10124SOL     OW31443   2.511   5.753   4.202 -0.5657 -0.1252  0.3927
10124SOL    HW131444   2.580   5.819   4.215 -2.6566  1.9468  1.8620
10124SOL    HW231445   2.449   5.795   4.142  0.6816 -3.0980 -3.3735
10125SOL     OW31446   3.563   5.396   3.344  0.3377 -0.2271  0.5628
10125SOL    HW131447   3.475   5.366   3.320  0.5439 -1.1925  0.9837
10125SOL    HW231448   3.572   5.479   3.298 -0.0457 -1.0677 -1.1242
10126SOL     OW31449   1.278   5.314   5.816 -0.3015 -0.3330  0.3349
10126SOL    HW131450   1.359   5.362   5.833 -0.1369 -0.2090 -0.6970
10126SOL    HW231451   1.230   5.317   5.898  1.9506 -2.8247  1.8938
10127SOL     OW31452   3.327   4.831   5.211  0.0163  0.5132 -0.0474
10127SOL    HW131453   3.242   4.793   5.189 -0.3640 -1.2207  3.5904
10127SOL    HW231454   3.391   4.771   5.174 -0.2673  1.3826 -2.0912
10128SOL     OW31455   0.681   6.416   7.027 -0.5486  0.2618  0.0629
10128SOL    HW131456   0.701   6.324   7.009 -0.5112  0.2444  0.1868
10128SOL    HW231457   0.762   6.450   7.066 -1.4169 -0.3633  2.5963
10129SOL     OW31458   7.146   3.314   4.010  0.4056  0.6939 -0.2799
10129SOL    HW131459   7.207   3.264   3.955  0.6635  0.2501  0.4053
10129SOL    HW231460   7.164   3.284   4.099 -1.5605 -0.2543 -0.1494
10130SOL     OW31461   0.306   2.651   4.874 -0.9063 -0.1870  0.4618
10130SOL    HW131462   0.224   2.679   4.914 -1.2670 -1.9205  1.0393
10130SOL    HW231463   0.330   2.722   4.815 -1.0273  1.9200  2.7851
10131SOL     OW31464   7.184   2.959   5.193 -0.4277 -0.3580  0.0389
10131SOL    HW131465   7.118   3.021   5.162 -0.7489 -1.0927 -0.7823
10131SOL    HW231466   7.152   2.874   5.164  1.0556 -0.6955 -0.6864
10132SOL     OW31467   0.635   3.297   1.266  0.2060 -0.2124  0.0951
10132SOL    HW131468   0.585   3.378   1.272 -0.7566 -0.8802  2.8387
10132SOL    HW231469   0.613   3.250   1.347  2.2328 -2.3365 -0.4884
10133SOL     OW31470   7.344   5.450   5.804 -0.8556  0.7783 -0.3848
10133SOL    HW131471   7.369   5.502   5.727  1.7672  0.8493  0.4157
10133SOL    HW231472   7.388   5.493   5.877  0.1213 -1.5873  0.5403
10134SOL     OW31473   0.060   0.291   3.716 -0.0690  0.0707 -0.0311
10134SOL    HW131474   0.146   0.330   3.703 -0.5067  1.4145  0.9233
10134SOL    HW231475   0.018   0.298   3.630 -0.2941  2.1610  0.1927
10135SOL     OW31476   4.809   7.172   6.684 -0.0428  0.1879 -0.5410
10135SOL    HW131477   4.721   7.208   6.701  0.1305  0.7523 -0.7999
10135SOL    HW231478   4.818   7.100   6.746  0.2899  1.7249  1.2984
10136SOL     OW31479   0.078   7.988   2.819  0.3084 -0.1238 -0.6119
10136SOL    HW131480   0.050   8.064   2.870 -1.3752  0.3449 -2.1067
10136SOL    HW231481   0.103   8.025   2.734  0.6573 -1.1087 -0.9436
10137SOL     OW31482   6.604   1.305   1.053 -0.2623  0.0156 -0.8517
10137SOL    HW131483   6.589   1.245   1.127 -0.0851  0.4020 -0.4983
10137SOL    HW231484   6.669   1.261   0.999  0.0891  0.0204 -0.4379
10138SOL     OW31485   0.076   5.336   1.595  0.2636  0.4847 -0.3953
10138SOL    HW131486   0.097   5.286   1.516  1.8989  2.1362 -1.0917
10138SOL    HW231487   0.157   5.384   1.614 -0.7969  1.7928  1.0073
10139SOL     OW31488   4.946   4.371   2.588  0.4552  0.1039  0.2264
10139SOL    HW131489   4.992   4.455   2.586 -0.1403  0.4455 -2.2828
10139SOL    HW231490   4.860   4.390   2.551 -0.8281 -1.0602  2.4190
10140SOL     OW31491   8.060   3.169   1.658 -0.4892 -0.1032 -0.2724
10140SOL    HW131492   8.057   3.082   1.620  0.1826 -1.9514  3.4516
10140SOL    HW231493   8.153   3.188   1.668 -0.5861  1.6435 -2.0543
10141SOL     OW31494   2.395   0.102   4.069 -0.0032  0.0871  0.2860
10141SOL    HW131495   2.316   0.129   4.117 -0.3687  1.2762 -0.9336
10141SOL    HW231496   2.379   0.130   3.979  0.8102 -1.7893 -0.4967
10142SOL     OW31497   4.368   4.294   5.064  0.0046  0.1010  0.0504
10142SOL    HW131498   4.319   4.370   5.094  0.5732  0.3396  0.3949
10142SOL    HW231499   4.444   4.289   5.123  0.0525 -0.6427 -0.0616
10143SOL     OW31500   5.341   4.448   3.114  0.7772 -0.3976  0.1647
10143SOL    HW131501   5.317   4.355   3.122  0.6333 -0.3054  0.8037
10143SOL    HW231502   5.259   4.493   3.098  0.6782 -0.2411  1.0538
10144SOL     OW31503   7.996   1.631   6.297 -0.7127  0.7151 -0.2612
10144SOL    HW131504   8.029   1.652   6.209 -1.2910 -0.7259 -0.8481
10144SOL    HW231505   7.904   1.658   6.295 -0.9897 -0.2028 -0.4414
10145SOL     OW31506   3.703   0.746   0.163  0.3983  0.1594 -0.3336
10145SOL    HW131507   3.696   0.836   0.192  0.8077 -0.2300  1.0265
10145SOL    HW231508   3.735   0.698   0.239  0.6158 -1.0630 -1.1592
10146SOL     OW31509   7.593   2.276   1.385 -0.0020 -0.1800 -0.4049
10146SOL    HW131510   7.652   2.229   1.444 -0.2396  0.5545  0.4425
10146SOL    HW231511   7.639   2.357   1.365 -1.2175  1.0036  1.3121
10147SOL     OW31512   4.664   3.911   2.740 -0.0308 -0.0166  0.3013
10147SOL    HW131513   4.645   3.995   2.699 -1.7234 -0.3941  0.2457
10147SOL    HW231514   4.689   3.853   2.668  1.0839  0.3944  0.3343
10148SOL     OW31515   5.775   2.070   3.170 -0.2306  0.7303 -0.5085
10148SOL    HW131516   5.788   2.033   3.258 -1.5069  1.3134 -0.0471
10148SOL    HW231517   5.818   2.155   3.174  1.1136  0.1069 -0.9898
10149SOL     OW31518   0.651   6.014   4.646  0.3860 -0.6924 -0.2242
10149SOL    HW131519   0.687   6.079   4.586  2.0534  0.0036  1.4464
10149SOL    HW231520   0.577   6.058   4.688 -0.4790 -1.0172 -1.3456
10150SOL     OW31521   1.741   4.055   4.562  0.2060  0.3756 -0.2425
10150SOL    HW131522   1.762   3.964   4.540 -0.4942  0.6462 -2.2508
10150SOL    HW231523   1.783   4.069   4.646 -0.0767 -1.9566  0.3721
10151SOL     OW31524   0.743   2.007   5.057  0.4567 -0.4861 -0.0732
10151SOL    HW131525   0.721   1.930   5.109  0.3583 -0.3648  0.0675
10151SOL    HW231526   0.839   2.009   5.056  0.4842 -1.3829 -1.2348
10152SOL     OW31527   1.592   3.231   1.809 -0.4617 -0.9434  1.2448
10152SOL    HW131528   1.624   3.274   1.889  1.1037  0.2563  0.0281
10152SOL    HW231529   1.657   3.162   1.792  0.1029 -0.1601  0.1552
10153SOL     OW31530   4.240   5.555   3.359 -0.0183  0.8857 -0.2655
10153SOL    HW131531   4.255   5.622   3.292 -1.4086 -0.0003 -1.5145
10153SOL    HW231532   4.290   5.479   3.329  0.0364  0.7468  0.1683
10154SOL     OW31533   0.668   6.710   4.009  0.0748 -0.3408  0.2336
10154SOL    HW131534   0.611   6.773   3.965 -1.2909 -2.5984 -1.4916
10154SOL    HW231535   0.654   6.726   4.102 -3.6101 -0.8490 -0.0872
10155SOL     OW31536   7.192   6.195   2.668  0.1771 -0.4048  0.1053
10155SOL    HW131537   7.231   6.271   2.711  2.0501 -1.4036  0.2799
10155SOL    HW231538   7.247   6.122   2.694 -0.4732 -1.5431 -1.5332
10156SOL     OW31539   6.105   3.855   1.939 -0.4872 -0.7272 -0.1563
10156SOL    HW131540   6.188   3.894   1.914 -2.1799  2.2898 -1.5963
10156SOL    HW231541   6.094   3.877   2.031  0.0922 -0.7619 -0.0788
10157SOL     OW31542   2.018   6.116   5.262  0.2166 -0.2529 -0.5657
10157SOL    HW131543   1.984   6.062   5.333 -0.2724 -0.6800 -1.1066
10157SOL    HW231544   2.044   6.197   5.304  0.5407 -0.7376  0.1963
10158SOL     OW31545   6.254   4.663   2.382 -0.0449 -0.3394 -0.0636
10158SOL    HW131546   6.313   4.733   2.411  1.0348 -1.0105 -0.5790
10158SOL    HW231547   6.285   4.641   2.294  0.0286 -1.8934  0.3304
10159SOL     OW31548   7.664   7.188   5.370  1.0276 -0.0423  0.4332
10159SOL    HW131549   7.747   7.231   5.389  0.4531  0.8038  1.1461
10159SOL    HW231550   7.623   7.242   5.303  0.8465 -0.1863  0.4253
10160SOL     OW31551   0.116   6.675   5.251 -0.0870 -0.2490 -0.9226
10160SOL    HW131552   0.173   6.690   5.327  1.5475 -0.5788 -2.0198
10160SOL    HW231553   0.098   6.762   5.217  2.1281 -0.1877 -2.1628
10161SOL     OW31554   6.415   1.716   7.621 -0.1689 -0.3210  0.3287
10161SOL    HW131555   6.358   1.639   7.613 -1.6794  0.9514 -4.0733
10161SOL    HW231556   6.502   1.685   7.594  0.0746 -1.1257  1.9273
10162SOL     OW31557   1.867   2.761   6.763 -0.4069 -0.2856  0.1315
10162SOL    HW131558   1.889   2.703   6.691 -1.1549 -1.3552  0.7443
10162SOL    HW231559   1.846   2.703   6.836  0.4332  0.7690  1.2613
10163SOL     OW31560   1.166   6.408   6.151 -0.0056 -0.2872  0.1190
10163SOL    HW131561   1.106   6.459   6.205  0.1640 -0.6967  0.6970
10163SOL    HW231562   1.109   6.350   6.100 -0.1717  0.1794 -0.2330
10164SOL     OW31563   3.717   3.798   3.328 -0.2297  0.3737  0.8704
10164SOL    HW131564   3.638   3.847   3.308 -0.7154 -1.1085 -1.1883
10164SOL    HW231565   3.755   3.778   3.242  1.9806  0.3717  1.7763
10165SOL     OW31566   3.930   7.972   4.845 -0.7642 -0.5545  0.0757
10165SOL    HW131567   3.879   7.932   4.774 -1.0783 -2.1839  1.1581
10165SOL    HW231568   3.940   7.902   4.909  1.2798  0.2697  0.7301
10166SOL     OW31569   4.750   6.584   0.038  0.2357 -0.0097 -0.1858
10166SOL    HW131570   4.683   6.519   0.055  0.9521 -0.9985 -1.0192
10166SOL    HW231571   4.737   6.608  -0.054  0.3590  0.5876 -0.0531
10167SOL     OW31572   2.571   8.108   5.939  0.2005  0.4315  0.4262
10167SOL    HW131573   2.569   8.092   6.034  0.5261 -0.1149  0.3403
10167SOL    HW231574   2.596   8.201   5.932  0.3829  0.4200  0.8681
10168SOL     OW31575   5.696   1.044   3.359 -0.6422 -0.2390 -0.5529
10168SOL    HW131576   5.738   0.973   3.310  1.2034  0.1405  0.3817
10168SOL    HW231577   5.760   1.068   3.426 -2.6288 -0.0052  1.3718
10169SOL     OW31578   3.061   6.061   4.769 -0.0011  0.3094  0.2133
10169SOL    HW131579   2.993   6.013   4.721 -0.6184  1.8811 -0.5721
10169SOL    HW231580   3.110   6.107   4.701  0.8176  0.4766  0.9037
10170SOL     OW31581   3.885   3.287   5.168  0.2148 -0.3712  0.3420
10170SOL    HW131582   3.829   3.266   5.242 -0.3074 -1.7821 -0.4054
10170SOL    HW231583   3.845   3.364   5.128 -1.8517 -1.9085 -0.7516
10171SOL     OW31584   6.052   1.227   6.114  0.2466  0.8105 -0.1510
10171SOL    HW131585   6.063   1.245   6.020  0.3862 -0.3372 -0.3699
10171SOL    HW231586   6.129   1.176   6.138  0.5917  1.7248  0.7880
10172SOL     OW31587   1.373   0.541   7.082 -0.3159  0.2303  0.0663
10172SOL    HW131588   1.442   0.508   7.139 -0.9638  2.3411  2.2509
10172SOL    HW231589   1.323   0.463   7.056  2.0892 -1.1909 -0.6049
10173SOL     OW31590   2.439   1.955   2.139 -0.0183 -0.2684  0.5587
10173SOL    HW131591   2.518   1.910   2.169 -0.7688 -1.3287  1.0108
10173SOL    HW231592   2.420   1.916   2.053 -1.2201 -1.5897  1.3751
10174SOL     OW31593   2.455   0.551   6.978 -0.0224  0.2349 -0.5176
10174SOL    HW131594   2.376   0.499   6.964 -1.0756  1.6686 -0.1509
10174SOL    HW231595   2.461   0.607   6.901  1.8259 -1.2338 -1.5368
10175SOL     OW31596   1.218   3.255   1.494  0.7206 -0.1465 -0.3804
10175SOL    HW131597   1.310   3.278   1.510  0.6759  0.0249 -0.3604
10175SOL    HW231598   1.184   3.231   1.580  0.6474  0.1565 -0.3240
10176SOL     OW31599   3.277   0.607   4.818 -0.3190 -0.5039 -0.2360
10176SOL    HW131600   3.344   0.674   4.807  0.7969 -1.5499 -0.1266
10176SOL    HW231601   3.324   0.532   4.855 -1.7140 -1.0033  0.6370
10177SOL     OW31602   6.432   7.669   3.507  0.4658 -0.2895  0.4325
10177SOL    HW131603   6.384   7.750   3.490  0.3723 -0.0381  1.8275
10177SOL    HW231604   6.378   7.600   3.467 -1.6829 -0.1539  2.9001
10178SOL     OW31605   6.594   7.240   1.696 -0.1521 -0.5732  0.6558
10178SOL    HW131606   6.684   7.241   1.664 -0.8556 -0.5070 -1.4363
10178SOL    HW231607   6.569   7.332   1.700 -1.0454 -0.6459 -1.6833
10179SOL     OW31608   6.511   1.076   1.188  0.2331  0.0202  0.3622
10179SOL    HW131609   6.506   1.046   1.097  0.0729  1.6790 -0.2090
10179SOL    HW231610   6.480   1.001   1.240 -1.8084 -0.2274 -1.0836
10180SOL     OW31611   6.463   3.221   5.653 -0.1637 -0.2439 -0.3025
10180SOL    HW131612   6.471   3.283   5.725 -2.0879 -2.3438  1.8892
10180SOL    HW231613   6.408   3.266   5.589 -0.9819  0.5885  0.9335
10181SOL     OW31614   7.388   3.064   0.489  0.3063 -0.2392 -0.5175
10181SOL    HW131615   7.428   3.148   0.466  0.0385 -0.7841 -3.3356
10181SOL    HW231616   7.449   3.025   0.551  0.8064  1.6872  0.2772
10182SOL     OW31617   4.997   1.890   2.698  0.2836  0.4604 -0.1715
10182SOL    HW131618   4.972   1.874   2.789 -0.2441  2.1807  0.0082
10182SOL    HW231619   5.018   1.983   2.694 -1.7973  0.9435 -2.2309
10183SOL     OW31620   4.750   0.318   6.249 -0.2679 -0.3051 -0.9487
10183SOL    HW131621   4.663   0.354   6.265 -0.3865 -0.8398 -0.3574
10183SOL    HW231622   4.774   0.350   6.162 -0.5574  0.8209 -0.6294
10184SOL     OW31623   2.706   1.611   4.702 -0.3198 -0.3135  0.3205
10184SOL    HW131624   2.614   1.585   4.704 -0.8204  1.3403  0.4446
10184SOL    HW231625   2.754   1.529   4.698 -1.8258 -1.2076 -0.6030
10185SOL     OW31626   4.487   3.249   3.762 -0.7369  0.4747 -0.2997
10185SOL    HW131627   4.548   3.321   3.776 -1.0088  0.4701  1.0305
10185SOL    HW231628   4.406   3.277   3.804 -0.0411 -1.7012  2.9255
10186SOL     OW31629   0.700   4.068   4.940 -0.1834  0.5892  0.0400
10186SOL    HW131630   0.647   4.093   5.016  0.7998  1.2963  0.5017
10186SOL    HW231631   0.790   4.076   4.969  0.2008 -0.1393 -0.8938
10187SOL     OW31632   4.956   6.462   2.814  0.3104  0.3162  0.3443
10187SOL    HW131633   5.011   6.388   2.786 -0.2391 -0.0920  0.3265
10187SOL    HW231634   4.954   6.455   2.909 -0.7435 -0.4368  0.2831
10188SOL     OW31635   1.580   2.553   7.475  0.2578  0.3590 -0.1986
10188SOL    HW131636   1.491   2.537   7.509 -0.1073 -0.0025 -1.2903
10188SOL    HW231637   1.619   2.466   7.468  0.4571  0.4627 -0.3649
10189SOL     OW31638   6.548   4.398   5.118  0.0139 -0.1494 -0.2538
10189SOL    HW131639   6.467   4.434   5.081  0.2076 -0.4993 -1.0287
10189SOL    HW231640   6.586   4.347   5.047  0.3865 -0.8506  0.4342
10190SOL     OW31641   2.981   3.297   5.288  0.4799 -0.0464 -0.7009
10190SOL    HW131642   2.961   3.315   5.380 -0.8644  0.3127 -1.0327
10190SOL    HW231643   2.945   3.210   5.273  2.0822 -0.7692 -0.5090
10191SOL     OW31644   5.583   5.311   5.629  0.3440 -0.0676  0.3312
10191SOL    HW131645   5.555   5.254   5.701 -0.1522 -1.1434 -0.6707
10191SOL    HW231646   5.501   5.335   5.584  0.5045  1.8544  1.0129
10192SOL     OW31647   2.582   5.022   1.252 -0.0681 -0.5933  0.4808
10192SOL    HW131648   2.556   4.972   1.329 -0.1767 -1.4564 -0.1050
10192SOL    HW231649   2.594   5.111   1.285 -1.0536 -0.7445  1.3011
10193SOL     OW31650   0.748   7.612   0.753 -0.2071  0.1312  0.5178
10193SOL    HW131651   0.755   7.698   0.711  1.6249  0.3271  1.1506
10193SOL    HW231652   0.747   7.631   0.847  0.9169 -0.5497  0.6855
10194SOL     OW31653   4.255   6.366   1.554  0.0724 -0.8758 -0.3167
10194SOL    HW131654   4.260   6.311   1.476 -1.5887  0.9735 -1.8408
10194SOL    HW231655   4.267   6.456   1.522 -0.3842 -0.0685  1.5895
10195SOL     OW31656   1.521   4.154   0.578  0.2481 -0.4509  0.2437
10195SOL    HW131657   1.543   4.088   0.513 -0.9938 -0.1201 -0.5440
10195SOL    HW231658   1.441   4.122   0.620  0.5119 -0.2040  0.9626
10196SOL     OW31659   0.294   6.591   4.021 -0.2926 -0.3219  0.1839
10196SOL    HW131660   0.349   6.560   4.094 -1.5690  0.4968  1.5515
10196SOL    HW231661   0.209   6.607   4.061 -0.9597  0.4086 -1.4660
10197SOL     OW31662   1.600   0.288   3.800 -0.5730  0.7023 -0.1611
10197SOL    HW131663   1.668   0.223   3.781 -1.2195  0.2265 -0.9275
10197SOL    HW231664   1.545   0.248   3.866 -0.4994  0.8087 -0.0349
10198SOL     OW31665   2.787   5.855   3.601  0.5965  0.8683 -0.1904
10198SOL    HW131666   2.722   5.814   3.657  0.5805  0.6102 -0.3953
10198SOL    HW231667   2.735   5.904   3.536  0.6181  1.7507  0.4397
10199SOL     OW31668   5.091   7.494   4.658  0.4561 -0.4033  0.2322
10199SOL    HW131669   5.135   7.557   4.715 -1.1043  0.0427  0.9803
10199SOL    HW231670   5.154   7.422   4.648  1.2719  0.1276  1.3981
10200SOL     OW31671   5.205   6.713   6.218  0.1601 -0.4541  0.1364
10200SOL    HW131672   5.213   6.658   6.140  0.7561 -0.1329 -0.0287
10200SOL    HW231673   5.113   6.743   6.216 -0.2196 -1.5789  0.3297
10201SOL     OW31674   7.585   7.770   2.461 -0.1214  0.5610  0.4069
10201SOL    HW131675   7.676   7.747   2.480 -0.5712 -1.4020  0.3931
10201SOL    HW231676   7.590   7.824   2.382  1.0203  0.3626  0.3214
10202SOL     OW31677   6.760   0.378   5.748 -0.0008 -0.2382 -0.4471
10202SOL    HW131678   6.796   0.426   5.822 -0.6027  0.0558 -0.3376
10202SOL    HW231679   6.773   0.286   5.771 -0.1355 -0.1500  0.0028
10203SOL     OW31680   5.606   1.260   4.682  0.2767  0.2802 -0.1674
10203SOL    HW131681   5.531   1.321   4.681  1.4282  1.7421 -0.5101
10203SOL    HW231682   5.637   1.260   4.592  0.1370 -1.0625 -0.2306
10204SOL     OW31683   2.079   5.067   2.503 -0.0929 -0.3807 -0.0273
10204SOL    HW131684   2.115   5.155   2.489 -1.2732  0.2089  0.4824
10204SOL    HW231685   2.111   5.042   2.590  1.6327 -1.1945 -0.8474
10205SOL     OW31686   3.533   0.121   1.079  0.0705 -0.3154 -0.7729
10205SOL    HW131687   3.561   0.037   1.043  3.4267  0.3547 -0.0749
10205SOL    HW231688   3.574   0.186   1.022 -0.3246  0.8031  0.1821
10206SOL     OW31689   2.114   5.646   8.082 -0.3233  0.0849 -0.0687
10206SOL    HW131690   2.109   5.660   8.177 -0.3400 -1.1879  0.1327
10206SOL    HW231691   2.197   5.599   8.069 -2.1382 -3.4489 -0.1512
10207SOL     OW31692   5.331   4.893   6.000 -0.1424 -0.2407  0.4272
10207SOL    HW131693   5.391   4.826   6.035  0.0323 -0.0181  0.5556
10207SOL    HW231694   5.244   4.865   6.029 -0.5318 -2.2703 -2.3119
10208SOL     OW31695   5.242   1.129   7.831  0.4047  0.1579 -0.4021
10208SOL    HW131696   5.209   1.110   7.743  0.3150 -0.4964 -0.2331
10208SOL    HW231697   5.212   1.218   7.849  1.3826  0.7421 -1.4793
10209SOL     OW31698   0.919   5.625   6.600  0.5320 -0.1305 -0.2593
10209SOL    HW131699   1.000   5.628   6.651  1.1218  0.4075 -1.1979
10209SOL    HW231700   0.903   5.716   6.576  0.0632 -0.3299 -0.7220
10210SOL     OW31701   1.550   2.341   1.136  0.2237 -0.1272 -0.1421
10210SOL    HW131702   1.589   2.311   1.054  0.1206 -2.1662  0.5061
10210SOL    HW231703   1.463   2.372   1.112  0.6980  0.6107 -0.9790
10211SOL     OW31704   8.010   7.209   5.937 -0.0695  0.1464  0.3720
10211SOL    HW131705   8.045   7.123   5.961  1.4264  1.2198  2.4009
10211SOL    HW231706   7.917   7.195   5.925  0.1918 -1.8124  0.3165
10212SOL     OW31707   4.913   5.001   3.646  0.6373  0.2110 -0.0614
10212SOL    HW131708   4.907   4.941   3.572 -1.7349 -0.3668  0.5211
10212SOL    HW231709   4.956   4.950   3.715 -0.3019 -0.4475  0.0492
10213SOL     OW31710   2.878   5.467   5.927 -0.0512 -0.3129  0.0545
10213SOL    HW131711   2.863   5.549   5.881 -1.2409 -0.4661  0.1324
10213SOL    HW231712   2.956   5.430   5.886 -0.3665  0.1440 -0.9878
10214SOL     OW31713   0.825   4.495   3.217 -0.0186 -0.2106  0.2608
10214SOL    HW131714   0.746   4.469   3.264  0.4991  2.7619  3.1692
10214SOL    HW231715   0.796   4.512   3.127 -2.3332 -0.7322  0.8662
10215SOL     OW31716   7.017   4.943   4.583 -0.0780  0.1383  0.5428
10215SOL    HW131717   6.932   4.941   4.628  0.1107  2.0825  1.0754
10215SOL    HW231718   7.076   4.897   4.641 -0.4590  0.0467  0.8639
10216SOL     OW31719   5.787   0.295   5.406  0.1580  0.5636 -0.5380
10216SOL    HW131720   5.793   0.350   5.329 -0.6214  0.7045 -0.5095
10216SOL    HW231721   5.875   0.295   5.443  0.3093  1.2902 -0.8820
10217SOL     OW31722   0.987   3.372   6.583  0.2218  0.0239  0.0447
10217SOL    HW131723   1.041   3.402   6.510  1.1782 -1.7029  0.0030
10217SOL    HW231724   1.013   3.428   6.656  2.1806 -0.8387  0.0505
10218SOL     OW31725   5.816   2.720   6.496  0.1170 -0.7106 -0.4889
10218SOL    HW131726   5.766   2.770   6.561  0.0679 -1.0974 -0.2268
10218SOL    HW231727   5.755   2.653   6.465  0.7959 -1.8984  0.6477
10219SOL     OW31728   0.138   3.657   2.900  0.2032  0.8157  0.4336
10219SOL    HW131729   0.118   3.617   2.985  2.2146  1.3822  1.2311
10219SOL    HW231730   0.071   3.725   2.890 -1.7483 -1.0209  0.2079
10220SOL     OW31731   0.661   3.419   6.488 -0.3271  0.2637 -0.2579
10220SOL    HW131732   0.699   3.506   6.497  0.8380 -0.3925  2.4654
10220SOL    HW231733   0.737   3.361   6.478 -0.9731 -0.5919 -0.2836
10221SOL     OW31734   7.505   1.083   4.478 -0.3056 -0.1639 -0.2269
10221SOL    HW131735   7.463   1.087   4.392  1.1004  0.4888 -0.9116
10221SOL    HW231736   7.573   1.150   4.475  1.4941 -1.8386  0.4452
10222SOL     OW31737   7.233   5.859   2.787 -0.2125  0.0632 -0.3067
10222SOL    HW131738   7.310   5.914   2.803 -0.0553 -0.6483  1.7216
10222SOL    HW231739   7.168   5.890   2.850  0.1640 -2.5118  1.5306
10223SOL     OW31740   4.664   0.385   4.437 -0.2476  0.0520  0.5342
10223SOL    HW131741   4.667   0.355   4.528  1.7791  0.1898  0.5584
10223SOL    HW231742   4.730   0.454   4.433 -1.2401  0.9530 -0.7481
10224SOL     OW31743   7.336   0.986   3.872 -0.5739  0.2754  0.5274
10224SOL    HW131744   7.261   1.015   3.923  1.3732  2.7335  2.2328
10224SOL    HW231745   7.363   1.064   3.823  0.4499 -0.7526 -0.6193
10225SOL     OW31746   0.627   1.771   1.909  0.8340  0.2144  0.1308
10225SOL    HW131747   0.679   1.832   1.857  1.1221 -0.1403 -0.0035
10225SOL    HW231748   0.556   1.824   1.944 -0.0440  0.2512 -1.5787
10226SOL     OW31749   6.408   0.838   1.355  0.2967  0.4120 -0.1263
10226SOL    HW131750   6.400   0.769   1.422  1.4237  0.6843  0.3082
10226SOL    HW231751   6.354   0.910   1.389  0.2140  0.2448  0.1014
10227SOL     OW31752   2.658   2.008   0.724  0.0243 -0.5026 -0.1180
10227SOL    HW131753   2.643   2.094   0.764 -1.2412 -0.5004 -0.5397
10227SOL    HW231754   2.669   2.027   0.631  0.8748 -0.7019 -0.0638
10228SOL     OW31755   1.165   5.009   4.651 -0.0882 -0.4817 -0.1696
10228SOL    HW131756   1.250   5.044   4.678  0.5099 -0.3312 -2.1078
10228SOL    HW231757   1.107   5.085   4.652  0.0441 -0.3861  0.2345
10229SOL     OW31758   4.265   4.376   7.360 -0.4742 -0.7514 -0.2044
10229SOL    HW131759   4.319   4.423   7.296  0.6804 -1.6060  0.0992
10229SOL    HW231760   4.246   4.441   7.427 -0.0858 -0.3398 -0.4831
10230SOL     OW31761   0.228   6.810   4.628 -0.2875  0.0358 -0.1969
10230SOL    HW131762   0.309   6.763   4.609 -0.6156 -0.1321 -1.2901
10230SOL    HW231763   0.234   6.890   4.575 -1.1803 -0.3747 -0.9620
10231SOL     OW31764   2.531   0.417   0.040  0.0045 -0.5362  0.4241
10231SOL    HW131765   2.623   0.424   0.064 -0.2359  0.6912  1.0855
10231SOL    HW231766   2.515   0.492  -0.017 -0.1856 -1.7201 -1.1182
10232SOL     OW31767   5.033   0.513   6.175 -0.0663  0.0683 -0.2280
10232SOL    HW131768   5.053   0.507   6.269 -1.5982  0.8906  0.1771
10232SOL    HW231769   5.008   0.423   6.151  1.0479 -0.3081 -0.0448
10233SOL     OW31770   4.840   7.312   6.991  0.2002 -0.3272 -0.1892
10233SOL    HW131771   4.904   7.382   6.973  0.9724 -1.4255 -2.0118
10233SOL    HW231772   4.770   7.327   6.927  1.6900 -2.7270 -2.5978
10234SOL     OW31773   4.714   5.520   2.601 -0.0120 -0.7976 -0.4753
10234SOL    HW131774   4.730   5.445   2.658 -0.2168 -0.3508  0.1849
10234SOL    HW231775   4.637   5.496   2.549 -0.4598 -0.8051  0.1783
10235SOL     OW31776   7.118   7.242   1.423  0.5523  0.0238  0.2417
10235SOL    HW131777   7.141   7.247   1.331  2.1107 -0.3315  0.5750
10235SOL    HW231778   7.182   7.298   1.468 -1.1713  1.4959  0.9891
10236SOL     OW31779   2.776   7.600   6.748  0.1558 -0.0851 -0.3727
10236SOL    HW131780   2.819   7.685   6.740 -0.1876 -0.0305 -1.9454
10236SOL    HW231781   2.715   7.610   6.821  0.0371  1.0489 -0.6190
10237SOL     OW31782   1.539   7.594   1.709  0.3284  0.1861 -0.5460
10237SOL    HW131783   1.575   7.599   1.621 -1.7352 -0.2943 -1.4759
10237SOL    HW231784   1.463   7.537   1.701  1.3483 -1.7731  2.0204
10238SOL     OW31785   6.086   4.842   5.921  0.1936  0.2561 -0.0287
10238SOL    HW131786   6.156   4.787   5.956  0.4231  0.1278 -0.6728
10238SOL    HW231787   6.131   4.903   5.862 -0.1500  0.6716  0.1298
10239SOL     OW31788   7.431   1.953   5.587 -0.3063  0.2196 -0.6590
10239SOL    HW131789   7.390   1.930   5.671 -1.0750  0.8182 -0.8571
10239SOL    HW231790   7.388   1.897   5.523  1.0164 -0.9948 -0.5419
10240SOL     OW31791   4.592   6.146   5.040  0.1775  0.0888 -0.5245
10240SOL    HW131792   4.611   6.066   4.989 -1.5656 -0.3776 -0.5155
10240SOL    HW231793   4.561   6.113   5.124 -2.2497  0.6737 -1.1237
10241SOL     OW31794   3.103   0.848   2.749  0.4798  0.3335 -0.4376
10241SOL    HW131795   3.181   0.795   2.763  0.8660  1.0276  0.0674
10241SOL    HW231796   3.031   0.784   2.743  0.7427 -0.1941  1.4912
10242SOL     OW31797   6.382   2.926   6.353 -0.3731 -0.1161 -0.2886
10242SOL    HW131798   6.328   2.993   6.312 -0.8533 -0.1483  0.2937
10242SOL    HW231799   6.467   2.934   6.308  0.3530  2.4362  1.2870
10243SOL     OW31800   1.005   3.303   1.897  0.2464 -0.6334  0.1657
10243SOL    HW131801   1.028   3.396   1.897 -0.1117 -0.5428 -0.3007
10243SOL    HW231802   1.078   3.259   1.854 -0.4487 -0.3407 -1.3770
10244SOL     OW31803   0.726   1.815   6.277  0.1276  0.2247 -0.6610
10244SOL    HW131804   0.767   1.861   6.351  0.4617  0.6632 -1.1177
10244SOL    HW231805   0.763   1.727   6.281 -0.1073  0.1471 -0.1067
10245SOL     OW31806   2.624   2.723   0.375  0.5823 -0.0780 -0.3646
10245SOL    HW131807   2.670   2.748   0.295 -1.5954 -2.1657 -2.4040
10245SOL    HW231808   2.576   2.643   0.352 -1.3874  0.0938  2.5838
10246SOL     OW31809   7.291   1.047   6.097 -0.4697  0.2091  0.2233
10246SOL    HW131810   7.357   1.012   6.037 -1.4908 -0.7826 -0.3400
10246SOL    HW231811   7.281   1.139   6.070  2.3568  1.1238  1.8355
10247SOL     OW31812   2.788   7.396   0.816 -0.1331  0.3148 -0.8225
10247SOL    HW131813   2.859   7.448   0.780 -0.4801  1.3118 -0.1137
10247SOL    HW231814   2.760   7.444   0.894 -1.0335 -0.4887 -0.6276
10248SOL     OW31815   0.224   2.099   6.530  0.2937 -0.1541 -0.4684
10248SOL    HW131816   0.241   2.006   6.521 -0.0163 -0.3948  1.1059
10248SOL    HW231817   0.138   2.112   6.489  0.8074 -0.3313 -1.6498
10249SOL     OW31818   3.787   7.208   4.598  0.4898 -0.1915 -0.1519
10249SOL    HW131819   3.761   7.124   4.636  1.7025 -0.8301 -0.7113
10249SOL    HW231820   3.705   7.245   4.565 -0.2402 -0.6198  1.1102
10250SOL     OW31821   1.381   2.275   3.801 -0.4042  0.1988 -0.0368
10250SOL    HW131822   1.410   2.240   3.885 -0.6768  1.0368  0.4224
10250SOL    HW231823   1.364   2.198   3.747 -1.0243 -0.3814  0.9471
10251SOL     OW31824   5.231   0.271   6.353 -0.0034 -0.2169 -0.4347
10251SOL    HW131825   5.135   0.272   6.348 -0.0747  3.7031 -2.0845
10251SOL    HW231826   5.251   0.332   6.424  1.3424 -1.7695  0.5756
10252SOL     OW31827   4.033   1.257   0.624 -0.0521 -0.5205 -0.0395
10252SOL    HW131828   3.999   1.332   0.576  2.3358 -0.5843 -2.0326
10252SOL    HW231829   4.074   1.202   0.557  2.9088 -0.9657  1.9412
10253SOL     OW31830   7.752   0.215   7.802  0.1147  0.2310 -0.7078
10253SOL    HW131831   7.744   0.120   7.801 -0.3611  0.2494  0.0575
10253SOL    HW231832   7.675   0.246   7.754 -1.6188  0.2765  1.8880
10254SOL     OW31833   1.243   1.156   2.161  0.3078 -0.0785  0.2060
10254SOL    HW131834   1.268   1.232   2.215  0.6027 -0.4113  0.5485
10254SOL    HW231835   1.191   1.193   2.090 -0.7661  0.2854  1.1553
10255SOL     OW31836   6.558   5.038   3.013 -0.3175 -0.0756 -0.2077
10255SOL    HW131837   6.609   5.109   2.975 -0.6863  0.1799 -0.2279
10255SOL    HW231838   6.488   5.021   2.950 -0.9058  0.3223  0.3236
10256SOL     OW31839   5.104   3.983   7.759  0.2035 -0.1110 -0.0307
10256SOL    HW131840   5.198   3.982   7.739  0.3500 -0.5128  0.6217
10256SOL    HW231841   5.063   4.022   7.682  0.8275 -0.7113 -0.6823
10257SOL     OW31842   3.021   3.971   7.993 -0.3182 -0.0118  0.0170
10257SOL    HW131843   3.007   4.061   7.965 -0.0956 -0.1234 -0.4675
10257SOL    HW231844   3.041   3.924   7.913 -0.6983 -0.5497  0.2341
10258SOL     OW31845   4.964   5.671   1.926 -0.7349  0.2774 -0.3062
10258SOL    HW131846   5.016   5.701   1.851  1.7703 -1.5357  0.5652
10258SOL    HW231847   4.999   5.720   2.000 -1.0083 -0.2112  0.1477
10259SOL     OW31848   6.668   3.286   0.257  0.1351 -0.4654  0.0344
10259SOL    HW131849   6.583   3.243   0.250 -0.1323 -0.4697  2.4746
10259SOL    HW231850   6.679   3.332   0.173 -2.4267 -0.1811 -0.2178
10260SOL     OW31851   3.642   3.073   7.328  0.2952  0.6821 -0.1011
10260SOL    HW131852   3.684   2.988   7.316  0.5966  1.0273 -1.7169
10260SOL    HW231853   3.703   3.122   7.384  0.3115  0.0037  0.4967
10261SOL     OW31854   6.970   7.503   2.445  0.2099  0.1799 -0.3762
10261SOL    HW131855   7.051   7.553   2.457  0.9106 -0.5709 -1.7246
10261SOL    HW231856   6.970   7.480   2.352 -1.2464 -0.3772 -0.2612
10262SOL     OW31857   0.158   1.516   7.954  0.0039 -0.8202 -0.0854
10262SOL    HW131858   0.217   1.441   7.942 -0.0823 -1.0170  0.6566
10262SOL    HW231859   0.092   1.485   8.016  0.0437 -0.0932  0.3404
10263SOL     OW31860   4.105   5.276   6.391 -0.2036 -0.2527  0.2304
10263SOL    HW131861   4.186   5.320   6.363 -1.1781  1.7381  0.3556
10263SOL    HW231862   4.109   5.277   6.486  0.1964 -1.3430  0.2410
10264SOL     OW31863   4.103   7.861   7.266  0.5314 -0.2376  0.7870
10264SOL    HW131864   4.141   7.890   7.348  1.1195 -0.8072  0.7203
10264SOL    HW231865   4.148   7.912   7.199  1.2967 -1.0209  0.6972
10265SOL     OW31866   2.859   2.533   1.580  0.1967 -0.4722  0.6213
10265SOL    HW131867   2.809   2.452   1.591  0.4741 -1.0428 -1.7452
10265SOL    HW231868   2.949   2.509   1.602  0.1417 -0.6104  0.6933
10266SOL     OW31869   3.895   3.737   2.834 -0.1055 -0.2317  0.1764
10266SOL    HW131870   3.950   3.719   2.910  0.9986  0.7356 -0.3671
10266SOL    HW231871   3.921   3.672   2.769 -0.9510 -0.9683  0.5452
10267SOL     OW31872   4.750   7.472   1.088 -0.3158 -0.0754  0.1241
10267SOL    HW131873   4.751   7.412   1.014  1.3407  0.9107 -0.7004
10267SOL    HW231874   4.763   7.417   1.165  3.3844 -0.6547 -0.7668
10268SOL     OW31875   7.470   2.414   4.339 -0.5236 -0.2134 -0.2416
10268SOL    HW131876   7.489   2.481   4.405 -1.2993  0.7669 -0.9979
10268SOL    HW231877   7.535   2.429   4.270  1.5512 -2.4379  1.0535
10269SOL     OW31878   6.113   3.671   2.630 -0.0687  0.0294  0.6840
10269SOL    HW131879   6.084   3.580   2.625 -1.4137  0.5102 -0.9438
10269SOL    HW231880   6.107   3.693   2.723 -2.6918 -0.6261  0.7346
10270SOL     OW31881   2.742   4.912   0.730  0.2332 -0.2413  0.3939
10270SOL    HW131882   2.828   4.876   0.749 -0.3656 -1.5942  0.6399
10270SOL    HW231883   2.691   4.897   0.809 -0.8098 -1.3015 -0.4388
10271SOL     OW31884   7.365   3.940   5.266  0.0415 -0.6007 -0.1289
10271SOL    HW131885   7.313   4.018   5.246  0.9004  0.2070  0.7424
10271SOL    HW231886   7.349   3.882   5.191 -1.6489 -0.1475 -0.1704
10272SOL     OW31887   7.955   3.787   4.547 -0.0193 -0.2462  0.1778
10272SOL    HW131888   7.920   3.787   4.458  0.3508 -3.7998 -0.0811
10272SOL    HW231889   8.041   3.829   4.538 -0.5614  0.7141 -0.8256
10273SOL     OW31890   3.776   1.088   3.133  0.0209 -0.1920 -0.6964
10273SOL    HW131891   3.836   1.023   3.170 -0.0457 -0.1808 -0.5665
10273SOL    HW231892   3.757   1.056   3.044 -0.6210 -0.7726 -0.3674
10274SOL     OW31893   0.106   4.902   1.880 -0.2921 -0.0177  0.1601
10274SOL    HW131894   0.022   4.890   1.836 -1.6209 -2.4344  2.9620
10274SOL    HW231895   0.161   4.831   1.846 -0.7641 -0.8685  1.1275
10275SOL     OW31896   7.499   3.485   1.849  0.6154 -0.1990  0.0399
10275SOL    HW131897   7.572   3.427   1.830  0.7420  0.4247 -1.5605
10275SOL    HW231898   7.532   3.545   1.916  1.9398  0.6850 -1.3283
10276SOL     OW31899   1.127   1.837   3.662 -0.1660  0.1207 -0.2414
10276SOL    HW131900   1.103   1.783   3.737 -1.1003 -0.4102 -0.9001
10276SOL    HW231901   1.043   1.863   3.623  0.2599  1.7052 -0.1955
10277SOL     OW31902   0.535   2.418   7.679  0.1279  0.1991 -0.2326
10277SOL    HW131903   0.524   2.347   7.616  2.5907 -1.1164  0.7161
10277SOL    HW231904   0.467   2.402   7.745 -0.3439 -0.3244 -0.8335
10278SOL     OW31905   7.160   5.853   2.405 -0.1152  0.2074  0.5591
10278SOL    HW131906   7.097   5.922   2.423 -0.5035 -0.2091  0.8444
10278SOL    HW231907   7.206   5.881   2.326 -0.5135  0.6178  0.4723
10279SOL     OW31908   7.636   3.596   5.758  0.0077  0.2876  0.4103
10279SOL    HW131909   7.566   3.568   5.817 -0.6807  0.3110 -0.3757
10279SOL    HW231910   7.703   3.528   5.767 -1.5559 -1.6024 -1.3399
10280SOL     OW31911   3.763   5.515   7.405  0.0284  0.1110 -0.1651
10280SOL    HW131912   3.741   5.515   7.311 -1.3702 -0.4061  0.1383
10280SOL    HW231913   3.773   5.423   7.427 -0.0664  0.2108  0.2951
10281SOL     OW31914   0.401   3.184   6.219  0.0144 -0.5426  0.1193
10281SOL    HW131915   0.432   3.275   6.220  0.4349 -0.6151 -1.9069
10281SOL    HW231916   0.481   3.132   6.210 -0.1865 -1.1817  1.6578
10282SOL     OW31917   6.684   5.038   1.608 -0.0202  0.1639 -0.1102
10282SOL    HW131918   6.631   5.089   1.547 -2.7627 -2.9765 -0.6361
10282SOL    HW231919   6.649   5.060   1.695  0.4584  0.8906 -0.0905
10283SOL     OW31920   6.241   1.383   4.877  0.2897  0.3968  0.6127
10283SOL    HW131921   6.183   1.368   4.802 -0.1825 -4.2710  1.5847
10283SOL    HW231922   6.183   1.415   4.946 -0.2429  0.1377  0.2933
10284SOL     OW31923   4.188   7.801   6.230 -0.5765 -0.7171 -0.2386
10284SOL    HW131924   4.124   7.808   6.301  1.4886 -0.1429  1.6820
10284SOL    HW231925   4.213   7.709   6.230 -0.0251 -0.5737  0.3224
10285SOL     OW31926   7.247   3.410   2.021 -0.5412  0.1646 -0.3206
10285SOL    HW131927   7.319   3.350   2.043  0.0224  1.3598  1.3146
10285SOL    HW231928   7.230   3.457   2.103 -0.7996  2.3959 -1.5797
10286SOL     OW31929   2.454   7.495   2.202  0.4965  0.0679 -0.2105
10286SOL    HW131930   2.370   7.524   2.169  2.1307  3.5243 -1.7524
10286SOL    HW231931   2.435   7.411   2.244 -3.2416 -0.4309 -2.4710
10287SOL     OW31932   5.889   1.355   5.225  0.6047 -0.0781  0.0064
10287SOL    HW131933   5.893   1.263   5.198  0.8819  0.0502 -0.4164
10287SOL    HW231934   5.796   1.378   5.217  0.7412  0.1080 -1.4375
10288SOL     OW31935   4.474   6.674   6.413  0.5288 -0.0366 -0.2370
10288SOL    HW131936   4.539   6.737   6.442 -0.4100  0.9604 -0.2574
10288SOL    HW231937   4.479   6.603   6.477  1.1086  0.3729  0.1771
10289SOL     OW31938   6.764   7.376   4.492 -0.0882  0.1144 -0.6357
10289SOL    HW131939   6.724   7.344   4.411  1.0543  1.5603 -1.8311
10289SOL    HW231940   6.831   7.438   4.463  1.0316 -0.0632  1.4043
10290SOL     OW31941   3.996   2.222   0.548 -0.5161  0.7712 -0.6468
10290SOL    HW131942   4.062   2.154   0.535 -1.3934 -0.2085 -0.1293
10290SOL    HW231943   4.015   2.287   0.480 -1.1925 -1.1817 -2.8285
10291SOL     OW31944   3.500   3.128   3.034 -0.2918  0.3219 -0.4250
10291SOL    HW131945   3.574   3.130   2.973  0.5226 -0.1638  0.5280
10291SOL    HW231946   3.475   3.220   3.044  0.1829  0.4910 -0.7393
10292SOL     OW31947   7.495   7.707   3.329 -0.3617  0.2831 -0.1022
10292SOL    HW131948   7.494   7.708   3.425 -1.2167  2.2373 -0.0855
10292SOL    HW231949   7.403   7.699   3.304 -0.3286  1.5182 -0.7168
10293SOL     OW31950   6.461   7.685   2.377 -0.4096 -0.4790  0.2873
10293SOL    HW131951   6.492   7.663   2.465 -1.2202 -1.1608  0.4224
10293SOL    HW231952   6.461   7.781   2.375 -1.1780 -0.4341  1.3450
10294SOL     OW31953   0.413   6.951   5.546 -0.5541 -0.0583  0.5448
10294SOL    HW131954   0.445   6.961   5.636  0.7895 -1.8094  0.3280
10294SOL    HW231955   0.492   6.933   5.495 -1.5140 -1.1674 -0.6170
10295SOL     OW31956   0.706   0.439   1.784  0.1760  0.2160 -0.4742
10295SOL    HW131957   0.756   0.364   1.817  0.6154  0.7673  0.1445
10295SOL    HW231958   0.705   0.427   1.689  0.9313 -0.1570 -0.4441
10296SOL     OW31959   3.466   6.446   6.934  0.9261 -0.6352 -0.6778
10296SOL    HW131960   3.559   6.448   6.954  0.8663 -0.3008 -0.4214
10296SOL    HW231961   3.462   6.420   6.842  1.2975 -0.1344 -0.8404
10297SOL     OW31962   3.006   7.522   5.788  0.0638 -0.4603 -0.0847
10297SOL    HW131963   3.056   7.460   5.840  0.2763 -0.5819 -0.4302
10297SOL    HW231964   3.070   7.588   5.760 -0.1877 -0.0064  0.4011
10298SOL     OW31965   2.403   6.922   7.641  0.3579 -0.4150 -0.0572
10298SOL    HW131966   2.461   6.861   7.687 -0.0337 -0.2011  0.7444
10298SOL    HW231967   2.317   6.880   7.645 -0.2306  0.8436  1.8502
10299SOL     OW31968   0.653   2.869   5.730 -0.0053  0.2242 -0.0475
10299SOL    HW131969   0.678   2.918   5.652 -0.3089  1.7744  0.7688
10299SOL    HW231970   0.586   2.924   5.771 -0.5668 -1.0455  0.7778
10300SOL     OW31971   3.689   2.296   4.130 -0.3468  0.0808 -0.0976
10300SOL    HW131972   3.714   2.388   4.121 -0.1672 -0.0332 -0.8666
10300SOL    HW231973   3.595   2.297   4.148 -0.6559  0.3750 -1.6237
10301SOL     OW31974   7.666   2.582   7.249 -0.3411 -0.0714  0.8063
10301SOL    HW131975   7.583   2.627   7.265 -0.5007 -0.2397  0.4476
10301SOL    HW231976   7.663   2.506   7.307 -0.7289 -0.4407  0.3074
10302SOL     OW31977   6.122   0.776   6.287 -0.1162 -0.0275 -0.7670
10302SOL    HW131978   6.199   0.791   6.341  0.0263 -2.2926 -0.2396
10302SOL    HW231979   6.136   0.690   6.248 -1.0744  0.7284 -2.9943
10303SOL     OW31980   6.077   1.747   3.243  0.2774 -0.5443 -0.4710
10303SOL    HW131981   6.003   1.807   3.236  0.5082 -0.1582  0.2425
10303SOL    HW231982   6.067   1.687   3.169 -1.2628 -1.0926  0.1405
10304SOL     OW31983   6.423   2.456   6.655 -0.0113 -0.5375  0.0903
10304SOL    HW131984   6.329   2.467   6.668 -0.2911 -1.2782 -1.1352
10304SOL    HW231985   6.455   2.424   6.740 -1.2963 -2.7076 -0.1722
10305SOL     OW31986   6.859   2.927   4.465  0.1564 -0.3377  0.0648
10305SOL    HW131987   6.865   2.837   4.497 -0.7796  0.4313  2.6394
10305SOL    HW231988   6.949   2.958   4.464  0.2097 -0.0045  3.4962
10306SOL     OW31989   1.110   7.057   4.867  0.0590  0.5623 -0.1977
10306SOL    HW131990   1.174   7.108   4.818 -0.3371  1.8573  0.5850
10306SOL    HW231991   1.136   6.966   4.853  1.3023  1.0081 -0.9243
10307SOL     OW31992   5.862   0.189   7.357 -0.1151  0.2180  0.2077
10307SOL    HW131993   5.866   0.220   7.267 -0.3688  0.6872  0.3549
10307SOL    HW231994   5.950   0.155   7.375  0.2254  1.0345  0.1021
10308SOL     OW31995   0.306   6.220   7.358 -0.6819 -0.2741 -0.1015
10308SOL    HW131996   0.221   6.217   7.402 -2.5083  1.8971 -3.1000
10308SOL    HW231997   0.314   6.134   7.316 -0.8106 -0.9011  1.1117
10309SOL     OW31998   0.683   7.648   1.025  0.0591  0.4234 -0.4870
10309SOL    HW131999   0.774   7.627   1.046  0.3683  1.0870 -1.1355
10309SOL    HW232000   0.668   7.734   1.063 -0.2250  0.4291 -0.6050
10310SOL     OW32001   3.159   1.287   3.128  0.4869 -0.0211  0.4380
10310SOL    HW132002   3.194   1.299   3.040  1.5158  0.8015  0.9280
10310SOL    HW232003   3.210   1.348   3.182 -1.6338  1.1449  1.2385
10311SOL     OW32004   0.201   3.458   6.821 -0.4817 -0.3643 -0.1598
10311SOL    HW132005   0.290   3.469   6.853 -1.4306  0.9109  2.3352
10311SOL    HW232006   0.176   3.369   6.847 -1.1884  0.6000  2.8639
10312SOL     OW32007   2.890   5.081   7.262  0.6219  0.3855 -0.6257
10312SOL    HW132008   2.924   5.095   7.174  2.2568  0.3645 -0.0260
10312SOL    HW232009   2.897   5.166   7.305  2.4028 -0.1660  0.2928
10313SOL     OW32010   2.464   6.722   6.525  0.4335 -0.0169  0.2726
10313SOL    HW132011   2.487   6.814   6.539 -0.0965  0.3051 -0.8322
10313SOL    HW232012   2.369   6.719   6.537  0.4038 -0.3492 -0.0307
10314SOL     OW32013   1.550   0.301   6.942 -0.2583 -0.1007  0.5983
10314SOL    HW132014   1.578   0.313   7.033 -1.1526 -0.2230  0.8962
10314SOL    HW232015   1.631   0.310   6.891 -0.0435  1.8825  1.2238
10315SOL     OW32016   6.252   2.915   1.315 -0.2740 -0.3754  1.1433
10315SOL    HW132017   6.167   2.871   1.311 -0.4735  0.0576  0.5219
10315SOL    HW232018   6.231   3.008   1.326  0.0319  0.0188 -1.0413
10316SOL     OW32019   5.630   1.833   1.856 -0.3679 -0.1083 -0.3074
10316SOL    HW132020   5.636   1.927   1.872  0.6151 -0.0696 -0.8164
10316SOL    HW232021   5.678   1.794   1.929 -1.0580 -0.2435  0.0849
10317SOL     OW32022   0.619   1.384   5.065 -0.3704 -0.5461  0.2638
10317SOL    HW132023   0.579   1.469   5.081 -0.1461 -0.4237  0.1875
10317SOL    HW232024   0.575   1.324   5.125 -2.1897 -0.8622 -1.3190
10318SOL     OW32025   0.101   7.013   0.857  0.4086  0.4475 -0.3185
10318SOL    HW132026   0.034   6.962   0.812  1.7012 -0.6953 -1.0096
10318SOL    HW232027   0.098   6.982   0.948  0.0038  0.4058 -0.3447
10319SOL     OW32028   3.551   5.470   6.887 -0.5272 -0.0384  0.4898
10319SOL    HW132029   3.534   5.415   6.964  1.7975 -1.0079  0.3833
10319SOL    HW232030   3.637   5.508   6.903  1.0171 -1.8927 -2.4433
10320SOL     OW32031   5.323   4.446   1.430 -0.2119 -0.3627  0.1963
10320SOL    HW132032   5.358   4.436   1.518  2.2901 -1.2661 -0.7941
10320SOL    HW232033   5.356   4.531   1.400 -1.3787  0.1219  0.2334
10321SOL     OW32034   6.322   8.095   3.772  0.2031  0.1703  0.0853
10321SOL    HW132035   6.341   8.070   3.863 -0.4555 -1.0271 -0.0857
10321SOL    HW232036   6.407   8.122   3.737  0.8439 -1.1198  0.5455
10322SOL     OW32037   2.917   6.468   7.365  0.3472 -0.1634  0.7172
10322SOL    HW132038   2.985   6.532   7.346  2.0543 -2.0751  0.0504
10322SOL    HW232039   2.835   6.514   7.348  1.5423  0.9720 -2.8004
10323SOL     OW32040   6.588   1.463   1.398  0.2114  0.1507 -0.4190
10323SOL    HW132041   6.644   1.540   1.411  0.1880 -0.1587  1.9310
10323SOL    HW232042   6.649   1.389   1.393  0.1453  0.1299 -1.0885
10324SOL     OW32043   5.936   2.392   3.666 -0.2925 -0.0989  0.5740
10324SOL    HW132044   5.923   2.298   3.651  0.2980 -0.0763 -0.1637
10324SOL    HW232045   5.848   2.428   3.671 -0.5305 -0.7534  1.2604
10325SOL     OW32046   2.187   0.144   4.278  0.4044 -0.2560  0.1428
10325SOL    HW132047   2.182   0.079   4.348  0.6676 -0.7635 -0.3016
10325SOL    HW232048   2.173   0.228   4.322 -0.5329 -0.6532  0.6401
10326SOL     OW32049   4.075   3.453   7.557  0.0638 -0.4292 -0.4476
10326SOL    HW132050   3.980   3.461   7.566  0.2970  0.3030  2.1925
10326SOL    HW232051   4.094   3.366   7.594  0.6329  0.6612  2.0479
10327SOL     OW32052   5.771   0.748   7.406  0.1748 -0.7896 -0.3944
10327SOL    HW132053   5.822   0.791   7.338 -0.8493 -1.9214 -1.9184
10327SOL    HW232054   5.717   0.684   7.360  0.1606 -2.2886  1.5886
10328SOL     OW32055   2.028   0.766   4.572  1.2717  0.5321  0.1197
10328SOL    HW132056   1.972   0.823   4.519  0.9165 -0.5348 -0.6805
10328SOL    HW232057   2.113   0.770   4.528  1.4522  1.0338  0.5077
10329SOL     OW32058   1.057   5.958   0.662  0.1844 -0.1222 -0.7100
10329SOL    HW132059   1.083   6.038   0.708  0.8333  0.6236 -2.2976
10329SOL    HW232060   1.138   5.907   0.656 -0.0562 -0.5400 -0.3961
10330SOL     OW32061   6.377   4.172   4.008 -0.3019 -0.2019 -0.2623
10330SOL    HW132062   6.406   4.246   3.954 -0.1959  0.7192  0.9995
10330SOL    HW232063   6.312   4.211   4.067 -2.8806 -1.8258 -1.8128
10331SOL     OW32064   6.222   7.289   0.867  0.0274 -0.3073 -0.1495
10331SOL    HW132065   6.146   7.232   0.871  0.3138 -0.6546  0.6807
10331SOL    HW232066   6.283   7.252   0.930 -0.1380  1.4401  1.1227
10332SOL     OW32067   4.193   4.766   1.003  0.4571 -0.9730 -1.1207
10332SOL    HW132068   4.180   4.811   0.920  2.3771 -0.9706 -1.4582
10332SOL    HW232069   4.139   4.687   0.997 -0.7014 -0.1742 -1.6660
10333SOL     OW32070   3.525   4.113   6.260 -0.5888 -0.2347 -0.2444
10333SOL    HW132071   3.536   4.156   6.345  0.2347 -1.2365  0.1826
10333SOL    HW232072   3.610   4.072   6.243 -1.2865 -1.5799 -0.6645
10334SOL     OW32073   3.791   3.943   5.929 -0.5106 -0.3107  0.1452
10334SOL    HW132074   3.873   3.903   5.959 -1.9624 -2.7184  1.1055
10334SOL    HW232075   3.785   3.918   5.837 -0.4706 -0.6357  0.2311
10335SOL     OW32076   4.012   3.817   4.883 -0.3342  0.1041 -0.4984
10335SOL    HW132077   3.940   3.759   4.909 -1.3217  1.6380  0.3718
10335SOL    HW232078   3.993   3.839   4.792  0.2618 -1.2048 -0.9587
10336SOL     OW32079   1.188   2.447   0.316  0.5233  0.1238  0.1066
10336SOL    HW132080   1.180   2.352   0.302  1.0315  0.0189  0.4745
10336SOL    HW232081   1.098   2.478   0.322  0.3338 -0.5763  1.4459
10337SOL     OW32082   6.544   2.091   6.806 -0.1177  0.1866  0.5388
10337SOL    HW132083   6.544   2.134   6.721 -0.1852  1.4292  1.1458
10337SOL    HW232084   6.636   2.067   6.821  0.3978  2.4001  1.2742
10338SOL     OW32085   1.348   2.743   7.588 -0.2231  0.2307  0.3830
10338SOL    HW132086   1.320   2.776   7.674  1.2156  0.5302  0.7641
10338SOL    HW232087   1.319   2.652   7.587 -0.2420  0.2158  1.2038
10339SOL     OW32088   4.721   6.509   0.674 -0.1460  0.3333  0.2686
10339SOL    HW132089   4.683   6.429   0.711 -3.6213  1.3965 -0.6129
10339SOL    HW232090   4.665   6.529   0.599  1.8539  2.5199 -0.7583
10340SOL     OW32091   4.919   2.447   1.501 -0.1797  0.1275  0.0930
10340SOL    HW132092   4.831   2.469   1.471  0.5084  0.0793 -2.1224
10340SOL    HW232093   4.950   2.380   1.440  2.0430  1.3807 -0.2752
10341SOL     OW32094   2.535   6.241   6.456 -0.3340 -0.4483  0.0956
10341SOL    HW132095   2.457   6.185   6.450 -0.0406 -0.9266  0.7278
10341SOL    HW232096   2.508   6.323   6.414 -1.1375 -0.6578  0.1820
10342SOL     OW32097   6.668   0.926   1.519  0.1524  0.4686  0.4816
10342SOL    HW132098   6.652   0.883   1.435  0.3612 -1.2404  1.2735
10342SOL    HW232099   6.742   0.984   1.502 -2.5433  3.6562 -1.6155
10343SOL     OW32100   0.930   6.409   2.823 -0.0022 -0.2796 -0.2103
10343SOL    HW132101   0.969   6.460   2.894 -0.1740 -0.1369 -0.2164
10343SOL    HW232102   0.927   6.469   2.749 -0.9522 -0.0331  0.0138
10344SOL     OW32103   6.387   3.613   2.472  0.0747  0.3656 -0.7100
10344SOL    HW132104   6.299   3.626   2.507  0.3863  0.1437  0.1732
10344SOL    HW232105   6.420   3.702   2.458  0.1293  0.4648  0.0281
10345SOL     OW32106   5.854   0.746   0.174 -0.3996  0.1956  0.5363
10345SOL    HW132107   5.925   0.706   0.224  1.0893  2.6583  0.5533
10345SOL    HW232108   5.882   0.836   0.161 -1.3461  0.0957 -3.5359
10346SOL     OW32109   0.831   1.344   4.898  0.0620  0.1722  0.3199
10346SOL    HW132110   0.877   1.426   4.884 -0.7162  0.6689  0.5887
10346SOL    HW232111   0.750   1.369   4.942  0.1507 -0.8133  1.0899
10347SOL     OW32112   5.759   5.674   3.316 -0.1897  0.3819 -0.5793
10347SOL    HW132113   5.690   5.617   3.282 -1.4545  1.1489  0.6216
10347SOL    HW232114   5.819   5.615   3.360  0.2496 -0.3582 -2.0864
10348SOL     OW32115   0.494   7.721   3.027  0.6089  0.2862 -0.0089
10348SOL    HW132116   0.531   7.808   3.013 -1.3920  1.3599  1.0091
10348SOL    HW232117   0.420   7.715   2.968  1.9907 -1.6695 -1.7018
10349SOL     OW32118   5.121   1.569   0.918 -0.3840  0.3316  0.3232
10349SOL    HW132119   5.173   1.551   0.840  2.3956  0.0053  2.1117
10349SOL    HW232120   5.074   1.650   0.897  0.7798  0.6054 -1.4535
10350SOL     OW32121   7.934   7.028   5.630  0.2855 -0.8026  0.2189
10350SOL    HW132122   7.892   7.113   5.646  0.4735 -0.4474 -1.0275
10350SOL    HW232123   7.902   7.003   5.543 -0.9395 -2.7280  1.1612
10351SOL     OW32124   6.272   1.309   6.376 -0.4348 -0.1818  0.1503
10351SOL    HW132125   6.315   1.390   6.350 -1.7342  1.1371  1.8284
10351SOL    HW232126   6.342   1.256   6.414  0.7088 -0.5268 -2.2342
10352SOL     OW32127   3.017   5.096   0.170  0.2472  0.5660  0.6869
10352SOL    HW132128   3.020   5.041   0.092  1.9291 -0.3488  1.3219
10352SOL    HW232129   2.943   5.155   0.156  0.7742  0.7454 -1.7823
10353SOL     OW32130   2.555   0.753   5.092  0.2359  0.3801  0.7219
10353SOL    HW132131   2.639   0.710   5.078  0.1710  0.8019 -1.3327
10353SOL    HW232132   2.526   0.722   5.178  1.1920 -1.9661  0.2875
10354SOL     OW32133   4.002   3.718   8.000 -0.4677  0.0052  0.2712
10354SOL    HW132134   3.959   3.759   7.924 -0.8711 -1.1373 -0.1299
10354SOL    HW232135   3.954   3.753   8.075 -0.5322  0.5963 -0.0324
10355SOL     OW32136   6.281   0.334   6.955 -0.2646 -0.6907 -0.2374
10355SOL    HW132137   6.201   0.304   6.912 -0.4104  1.1211 -1.3292
10355SOL    HW232138   6.351   0.287   6.910 -0.5589 -0.3988 -1.0139
10356SOL     OW32139   6.430   0.663   1.570 -0.1718  0.5806 -1.0769
10356SOL    HW132140   6.444   0.572   1.545 -1.9647  0.1459 -0.6050
10356SOL    HW232141   6.512   0.688   1.614 -0.0379 -1.1508 -0.2439
10357SOL     OW32142   4.186   4.412   2.039 -0.0620  0.0128  0.0882
10357SOL    HW132143   4.097   4.445   2.051  0.1488  0.5228  0.2483
10357SOL    HW232144   4.191   4.392   1.945  0.1137  1.3463 -0.2032
10358SOL     OW32145   0.892   5.879   3.675  0.1222 -0.5354  0.3243
10358SOL    HW132146   0.958   5.886   3.743  0.7435  0.8049 -0.3584
10358SOL    HW232147   0.884   5.968   3.641 -1.1906 -0.9019 -0.4046
10359SOL     OW32148   6.262   1.890   3.523  0.4313 -0.0274 -0.0269
10359SOL    HW132149   6.229   1.975   3.496 -0.7448 -0.7577 -1.0260
10359SOL    HW232150   6.354   1.890   3.495 -0.0947  0.1783 -1.9170
10360SOL     OW32151   0.015   3.907   4.581  0.4169 -0.2057  0.1335
10360SOL    HW132152   0.033   3.961   4.504 -0.5726 -0.3742 -0.2296
10360SOL    HW232153   0.101   3.893   4.621  1.0799 -0.9462 -1.4796
10361SOL     OW32154   3.826   1.177   1.019 -0.2701 -0.1379 -0.6364
10361SOL    HW132155   3.816   1.241   1.089  0.8055 -1.3832  0.7369
10361SOL    HW232156   3.749   1.120   1.028 -0.6190  0.2570 -1.0918
10362SOL     OW32157   7.177   2.714   4.766 -0.0596  0.0018  0.1269
10362SOL    HW132158   7.242   2.782   4.753  1.0415 -1.4180 -2.7809
10362SOL    HW232159   7.184   2.659   4.687 -0.6881 -3.5849  2.3358
10363SOL     OW32160   1.968   6.805   2.042  0.0810 -0.1659  0.6749
10363SOL    HW132161   1.944   6.898   2.038 -1.8303 -0.6458  0.1837
10363SOL    HW232162   1.989   6.791   2.135 -0.3316  0.5903  0.8957
10364SOL     OW32163   6.626   5.244   4.078  0.1007 -0.6254  0.0242
10364SOL    HW132164   6.682   5.288   4.142 -0.4478  1.8937 -1.1015
10364SOL    HW232165   6.538   5.250   4.116 -0.5808  2.7341 -1.6487
10365SOL     OW32166   1.886   4.261   7.331  0.7554 -0.1464 -0.3772
10365SOL    HW132167   1.811   4.305   7.291 -0.2657 -1.0974  0.4106
10365SOL    HW232168   1.848   4.185   7.376  1.9611  0.2832  1.4874
10366SOL     OW32169   3.976   1.854   0.431  0.2846 -0.2138 -0.1560
10366SOL    HW132170   3.985   1.846   0.336  0.7473 -1.8838 -0.0120
10366SOL    HW232171   3.979   1.764   0.463  1.2882  0.3702  1.5446
10367SOL     OW32172   3.518   2.447   7.415  0.3710 -0.3653  0.1022
10367SOL    HW132173   3.568   2.365   7.409 -1.9114 -1.8253 -0.3321
10367SOL    HW232174   3.565   2.508   7.359  0.2698 -2.4821 -2.4738
10368SOL     OW32175   3.855   1.679   4.765  0.2791 -0.0502  0.1777
10368SOL    HW132176   3.794   1.734   4.813 -0.1912  0.5405 -1.0516
10368SOL    HW232177   3.801   1.610   4.727  0.2830  0.6898 -1.2327
10369SOL     OW32178   4.585   0.604   0.108  0.4207  0.8817  0.1196
10369SOL    HW132179   4.552   0.693   0.094  0.3401  0.8917  0.3594
10369SOL    HW232180   4.507   0.553   0.132  0.1279  0.3057 -1.9129
10370SOL     OW32181   1.805   0.487   4.977 -0.2784  0.6221 -0.6814
10370SOL    HW132182   1.745   0.561   4.974 -1.0186  0.0977  0.4863
10370SOL    HW232183   1.751   0.411   4.959 -0.1622  0.0642  1.1215
10371SOL     OW32184   1.406   4.504   1.328  0.0163 -0.2673 -0.1706
10371SOL    HW132185   1.332   4.524   1.385  0.3115 -0.9136  0.4508
10371SOL    HW232186   1.478   4.484   1.388  0.7718  0.5677 -0.7518
10372SOL     OW32187   2.627   1.417   8.027 -0.5459 -0.0959 -0.5963
10372SOL    HW132188   2.673   1.481   7.972  0.7717  0.1996  0.7808
10372SOL    HW232189   2.694   1.352   8.049 -1.2324 -0.5818  0.0978
10373SOL     OW32190   7.502   0.399   2.897  0.1133  0.2166 -0.3914
10373SOL    HW132191   7.407   0.392   2.885  0.0085  1.0584 -0.1466
10373SOL    HW232192   7.522   0.491   2.877  0.9049  0.0010 -0.6221
10374SOL     OW32193   4.727   6.721   6.657 -0.0832  0.1004 -0.7319
10374SOL    HW132194   4.723   6.637   6.702  0.2873 -0.4691 -1.7356
10374SOL    HW232195   4.773   6.703   6.575  1.8406  1.6885 -0.0955
10375SOL     OW32196   4.324   0.714   7.030 -0.2217 -0.1758 -0.5757
10375SOL    HW132197   4.264   0.749   7.095 -0.5739  0.5508 -1.2816
10375SOL    HW232198   4.325   0.620   7.047 -0.2167  0.0075  0.5436
10376SOL     OW32199   6.148   6.689   0.082 -0.6562  0.1545  0.5982
10376SOL    HW132200   6.243   6.676   0.089 -0.6653 -0.7204 -0.4711
10376SOL    HW232201   6.112   6.650   0.161 -0.1244  0.4963  1.0141
10377SOL     OW32202   1.454   5.369   3.679  0.7626  0.7418 -0.4709
10377SOL    HW132203   1.383   5.304   3.681  0.8121  0.6077  2.6398
10377SOL    HW232204   1.525   5.325   3.632  0.5703 -1.2963  0.9948
10378SOL     OW32205   4.668   1.015   6.782  0.5418  0.0004  0.4270
10378SOL    HW132206   4.731   1.040   6.715 -0.2909  1.1830  0.0382
10378SOL    HW232207   4.585   1.050   6.750 -0.1718 -0.8635  1.2890
10379SOL     OW32208   3.584   1.268   3.859  0.8323 -0.1323  0.3486
10379SOL    HW132209   3.643   1.263   3.785 -1.7914  2.9443 -2.2771
10379SOL    HW232210   3.517   1.201   3.842  0.8875 -0.2634  0.6335
10380SOL     OW32211   4.191   1.685   3.576 -0.0973  0.1923 -0.3297
10380SOL    HW132212   4.277   1.660   3.608 -1.0880 -3.3238 -0.0342
10380SOL    HW232213   4.154   1.739   3.646  1.7078  1.6120 -0.3963
10381SOL     OW32214   4.582   1.989   7.744 -0.1063  0.3566  0.3444
10381SOL    HW132215   4.599   1.954   7.831 -1.2209 -0.4248  0.2650
10381SOL    HW232216   4.643   1.942   7.687 -0.1284  0.0786  0.5458
10382SOL     OW32217   7.701   4.682   0.066  0.0268 -0.1782  0.0751
10382SOL    HW132218   7.651   4.601   0.079 -1.0198  0.2758 -0.9709
10382SOL    HW232219   7.640   4.752   0.092 -0.1233  0.4115 -1.7107
10383SOL     OW32220   7.672   7.842   5.377  0.2157  0.0293 -0.3581
10383SOL    HW132221   7.576   7.847   5.376  0.2101  0.0039  0.0105
10383SOL    HW232222   7.691   7.752   5.401  0.3322  0.3587  0.8348
10384SOL     OW32223   5.626   2.199   5.140  0.9631 -0.4960  0.3451
10384SOL    HW132224   5.652   2.215   5.050  1.8761  1.8518  0.9648
10384SOL    HW232225   5.649   2.279   5.187 -0.3502 -1.2833  2.4954
10385SOL     OW32226   1.975   5.615   2.905 -0.5460 -0.3837  0.5665
10385SOL    HW132227   2.049   5.562   2.877  0.5152  2.0644 -1.6397
10385SOL    HW232228   2.006   5.660   2.984  0.5561  0.9513 -0.5806
10386SOL     OW32229   1.669   6.618   4.492  0.4001  0.4783  0.0188
10386SOL    HW132230   1.604   6.557   4.526  0.1751 -0.6466 -2.2344
10386SOL    HW232231   1.739   6.618   4.558 -0.8150 -0.1218  1.3437
10387SOL     OW32232   3.483   2.142   2.660 -0.3967 -0.2660  0.5029
10387SOL    HW132233   3.402   2.091   2.656  0.2620 -1.3490  0.4271
10387SOL    HW232234   3.553   2.076   2.657  0.5273  0.7220 -1.1627
10388SOL     OW32235   1.071   6.907   2.719  0.1416 -0.0679 -0.4071
10388SOL    HW132236   1.000   6.936   2.663  0.0932 -1.1230 -0.9131
10388SOL    HW232237   1.086   6.981   2.779 -0.4038  0.7152 -1.2143
10389SOL     OW32238   2.459   0.881   6.192  0.1315 -0.4834  0.0885
10389SOL    HW132239   2.426   0.971   6.194 -2.7875 -1.4141 -0.3497
10389SOL    HW232240   2.549   0.887   6.222 -0.0317  2.5492  0.2607
10390SOL     OW32241   4.408   3.233   1.156  0.3150 -0.3099  0.0931
10390SOL    HW132242   4.416   3.228   1.252 -2.3624 -1.4514  0.3185
10390SOL    HW232243   4.410   3.142   1.127 -0.4914 -0.0568 -0.7804
10391SOL     OW32244   7.972   0.330   6.704  0.3195  0.1711  0.4153
10391SOL    HW132245   8.017   0.413   6.687  0.0798  0.4615  1.1411
10391SOL    HW232246   7.880   0.349   6.683  0.5267 -0.4726 -1.2439
10392SOL     OW32247   2.631   2.418   6.275  0.6768 -0.1577  0.1531
10392SOL    HW132248   2.560   2.456   6.223  0.1036  1.8883  2.2194
10392SOL    HW232249   2.648   2.333   6.234 -1.0230  0.4752 -2.1139
10393SOL     OW32250   4.648   4.638   5.026 -0.3213 -0.1275 -0.3237
10393SOL    HW132251   4.676   4.608   4.939  0.0262  0.8121 -0.5504
10393SOL    HW232252   4.553   4.649   5.019 -0.1149  1.3979 -1.0626
10394SOL     OW32253   0.519   4.837   2.161  0.0097  0.3132  0.4028
10394SOL    HW132254   0.598   4.883   2.190 -0.7384  1.0351  1.3494
10394SOL    HW232255   0.446   4.892   2.189 -0.8360  0.4686 -1.8293
10395SOL     OW32256   7.585   6.662   2.938 -0.2543  0.2364 -0.6735
10395SOL    HW132257   7.662   6.700   2.980 -0.2125  1.7770 -2.0541
10395SOL    HW232258   7.615   6.578   2.903 -0.3954 -1.3680  2.5926
10396SOL     OW32259   0.814   0.292   0.704  0.5485 -0.1633 -0.3426
10396SOL    HW132260   0.829   0.229   0.634 -0.0688  0.2511 -0.8598
10396SOL    HW232261   0.799   0.375   0.659 -1.7916 -0.2368  0.1357
10397SOL     OW32262   7.099   4.790   5.619 -0.3996  0.0838 -0.0527
10397SOL    HW132263   7.031   4.784   5.552 -0.3975  0.7189 -0.1149
10397SOL    HW232264   7.181   4.798   5.570 -0.2530 -0.8481  0.0202
10398SOL     OW32265   5.654   2.210   4.866 -0.2896  0.0975 -0.1010
10398SOL    HW132266   5.647   2.295   4.822 -3.6533 -0.6200 -1.2803
10398SOL    HW232267   5.690   2.151   4.799 -0.0388  0.1537 -0.0150
10399SOL     OW32268   1.592   1.369   2.883  0.2251 -0.2841  0.6162
10399SOL    HW132269   1.619   1.413   2.802 -1.0905  0.3369  0.5021
10399SOL    HW232270   1.674   1.355   2.931  0.8632  0.6193 -0.1860
10400SOL     OW32271   6.577   1.098   6.925 -0.0912  0.6879 -0.3356
10400SOL    HW132272   6.596   1.166   6.990  2.1113 -0.2309  0.0669
10400SOL    HW232273   6.657   1.093   6.872 -0.0103 -1.8444 -0.1016
10401SOL     OW32274   8.003   7.413   5.693  0.2537  0.0563 -0.0084
10401SOL    HW132275   8.098   7.423   5.685  0.3662 -0.8390  0.0517
10401SOL    HW232276   7.991   7.360   5.772 -0.3417  0.8049  0.4089
10402SOL     OW32277   0.068   0.367   4.938 -0.0503 -0.1713 -0.2137
10402SOL    HW132278   0.120   0.409   5.006  0.7139 -0.0668 -0.8393
10402SOL    HW232279   0.017   0.439   4.899 -1.2279 -0.3902  0.8668
10403SOL     OW32280   6.058   4.686   1.064 -0.4313 -0.0795 -0.0382
10403SOL    HW132281   6.043   4.688   0.970 -1.3004  0.4398  0.0999
10403SOL    HW232282   6.153   4.698   1.073  0.3159 -4.0787 -0.9551
10404SOL     OW32283   5.351   7.800   7.017  0.2039  0.1238 -0.0412
10404SOL    HW132284   5.429   7.856   7.018 -0.1383  0.8986  4.5735
10404SOL    HW232285   5.279   7.860   6.995  0.4014  0.3280 -0.1329
10405SOL     OW32286   6.991   4.657   3.394 -1.0272 -0.2038  0.4754
10405SOL    HW132287   6.936   4.686   3.321 -2.4844 -0.0888  1.5642
10405SOL    HW232288   6.965   4.566   3.409  0.5503 -0.8108 -0.2559
10406SOL     OW32289   1.436   2.237   1.870 -0.2406  0.0571  0.3723
10406SOL    HW132290   1.526   2.263   1.889  0.7659 -3.1281  0.5006
10406SOL    HW232291   1.400   2.212   1.955  0.5276 -3.4360 -0.1839
10407SOL     OW32292   7.041   7.689   4.279 -0.2285  0.9491 -0.1471
10407SOL    HW132293   6.990   7.686   4.199  0.7430  0.7148 -0.7706
10407SOL    HW232294   7.052   7.783   4.297 -3.5712  1.1555  1.8070
10408SOL     OW32295   2.452   2.351   4.914 -0.0998  0.4905 -0.2877
10408SOL    HW132296   2.494   2.281   4.964  0.1648  0.3585 -0.6972
10408SOL    HW232297   2.382   2.307   4.866 -1.9791  0.9900  1.8398
10409SOL     OW32298   7.748   2.427   1.631 -0.4359 -0.5744  0.7664
10409SOL    HW132299   7.768   2.333   1.624  0.5519 -0.4961  2.1857
10409SOL    HW232300   7.806   2.469   1.567  2.3818 -0.5901  3.0845
10410SOL     OW32301   0.018   1.640   5.837  0.2888  0.6144  0.0587
10410SOL    HW132302  -0.010   1.719   5.791  0.5561  0.5250 -0.2626
10410SOL    HW232303   0.111   1.653   5.853  0.6187 -0.1415 -1.0799
10411SOL     OW32304   2.039   7.777   3.245  0.7337 -0.1599  0.0477
10411SOL    HW132305   2.119   7.744   3.204  0.8406 -1.2413  1.0655
10411SOL    HW232306   2.039   7.737   3.332 -1.5105 -1.1520 -0.3436
10412SOL     OW32307   1.085   5.096   6.817  0.3174 -0.0442  0.2699
10412SOL    HW132308   1.066   5.189   6.815  3.8296  0.8449  1.4822
10412SOL    HW232309   1.085   5.073   6.910 -1.4323 -1.5561 -0.0406
10413SOL     OW32310   6.352   0.835   2.283 -0.0238 -0.0683 -0.1341
10413SOL    HW132311   6.364   0.802   2.194  0.2144  0.1882 -0.1959
10413SOL    HW232312   6.380   0.926   2.279 -2.3731  0.7103 -0.3998
10414SOL     OW32313   3.445   5.820   7.054 -0.2413 -0.6194 -0.0156
10414SOL    HW132314   3.455   5.914   7.072  2.8409 -0.9845  0.8132
10414SOL    HW232315   3.440   5.815   6.958  0.8189  0.3453 -0.1446
10415SOL     OW32316   0.004   7.982   0.229  0.3228  0.2163 -0.0502
10415SOL    HW132317   0.028   7.910   0.172 -0.7417  0.5729 -0.9743
10415SOL    HW232318   0.035   8.060   0.184 -0.1151  0.4664  0.0748
10416SOL     OW32319   1.832   6.440   5.341 -0.8788 -0.3579  0.4693
10416SOL    HW132320   1.926   6.426   5.351 -0.8997 -0.0515  1.1371
10416SOL    HW232321   1.812   6.406   5.254  0.2950  1.7565 -0.7215
10417SOL     OW32322   5.068   2.057   1.538  0.0477 -0.0882 -0.4998
10417SOL    HW132323   5.153   2.059   1.582 -0.2341 -1.7530  0.1594
10417SOL    HW232324   5.089   2.033   1.448  0.2605 -0.7259 -0.2826
10418SOL     OW32325   3.223   5.721   7.965  0.1949 -0.0248 -0.4402
10418SOL    HW132326   3.314   5.704   7.940  0.2209 -0.5316 -0.0309
10418SOL    HW232327   3.216   5.816   7.967  0.9011  0.0225  0.1706
10419SOL     OW32328   7.674   6.919   3.678 -0.5513 -0.1805  0.6851
10419SOL    HW132329   7.758   6.945   3.640 -0.1558 -2.4433 -0.1913
10419SOL    HW232330   7.610   6.979   3.639  0.4880  0.7496  0.3692
10420SOL     OW32331   5.403   5.058   4.489 -0.8108 -0.2303 -0.1890
10420SOL    HW132332   5.444   5.097   4.412  0.0828  0.9767  0.8452
10420SOL    HW232333   5.471   5.001   4.526 -0.4119  0.9265  0.9228
10421SOL     OW32334   6.001   0.422   4.890 -0.5039 -0.5035 -0.3790
10421SOL    HW132335   6.020   0.368   4.814  0.3332  1.8482 -1.9509
10421SOL    HW232336   5.918   0.465   4.869 -1.2118 -1.2065  0.8818
10422SOL     OW32337   4.117   5.985   3.032  0.7151  0.2603 -0.2140
10422SOL    HW132338   4.159   6.055   3.082  1.1886  0.8377 -1.3749
10422SOL    HW232339   4.181   5.962   2.965  0.9487 -1.9428  0.6883
10423SOL     OW32340   7.247   4.619   7.542  0.1926  0.1067  0.2457
10423SOL    HW132341   7.152   4.629   7.552  0.0715 -2.0699  2.3098
10423SOL    HW232342   7.278   4.706   7.518 -2.3706  0.7347 -1.2106
10424SOL     OW32343   3.031   4.366   1.176  0.5540 -0.4208 -0.7047
10424SOL    HW132344   3.077   4.406   1.102  0.0456  1.8491  0.1101
10424SOL    HW232345   3.101   4.344   1.238  0.8306 -0.5485 -1.0568
10425SOL     OW32346   0.083   7.780   5.480 -0.1586 -0.1299 -0.2562
10425SOL    HW132347   0.018   7.802   5.414 -1.5426  0.1363  1.1314
10425SOL    HW232348   0.125   7.863   5.502 -0.6819  0.0210  0.1879
10426SOL     OW32349   3.260   2.567   0.310 -0.1807  0.3792  0.7241
10426SOL    HW132350   3.227   2.543   0.396  0.0542  0.6444  0.8895
10426SOL    HW232351   3.346   2.606   0.327 -1.0512  2.4604  0.5974
10427SOL     OW32352   1.314   2.379   4.279  0.5096  0.3719  0.4696
10427SOL    HW132353   1.322   2.423   4.194 -2.0041 -0.4998 -0.2974
10427SOL    HW232354   1.404   2.370   4.309  1.3757  2.2623 -1.2794
10428SOL     OW32355   7.563   2.553   5.729  0.4078  0.0375  0.6626
10428SOL    HW132356   7.478   2.594   5.716 -0.3427 -0.9349  2.2498
10428SOL    HW232357   7.574   2.496   5.654  0.5358  1.5543 -0.5120
10429SOL     OW32358   4.615   3.198   4.619  0.2598  0.0431 -0.5819
10429SOL    HW132359   4.692   3.192   4.676  0.5143  1.6976 -0.6962
10429SOL    HW232360   4.541   3.202   4.680  0.2425 -1.4568 -0.4693
10430SOL     OW32361   5.086   4.229   0.141  0.3631  0.4632 -0.2997
10430SOL    HW132362   5.155   4.238   0.207  0.2500  0.1325 -0.1347
10430SOL    HW232363   5.006   4.258   0.185 -0.1387 -1.8714  0.4723
10431SOL     OW32364   5.707   0.527   6.749  0.2874  0.0136  0.5716
10431SOL    HW132365   5.760   0.568   6.681  0.1033 -0.9553 -0.1789
10431SOL    HW232366   5.633   0.488   6.701  0.0064 -0.4326  1.3572
10432SOL     OW32367   7.410   2.587   3.784  0.1184 -0.0029  0.1293
10432SOL    HW132368   7.335   2.533   3.759 -0.3667  0.5904  0.2776
10432SOL    HW232369   7.384   2.676   3.763  0.9668  0.1694 -0.2412
10433SOL     OW32370   0.105   6.502   7.072 -0.1340 -0.1111 -0.0719
10433SOL    HW132371   0.082   6.504   7.165 -1.2820  0.1562 -0.3440
10433SOL    HW232372   0.127   6.410   7.054 -0.9684 -0.3768  0.2280
10434SOL     OW32373   1.439   0.117   7.279 -0.4629  0.3405  0.1718
10434SOL    HW132374   1.453   0.183   7.211 -4.5229  2.8954  1.4281
10434SOL    HW232375   1.477   0.155   7.358 -0.3517 -0.1809  0.3743
10435SOL     OW32376   0.633   6.248   0.798 -0.4062  0.1791 -0.0301
10435SOL    HW132377   0.659   6.331   0.758 -3.9235  2.1696  1.3609
10435SOL    HW232378   0.575   6.207   0.733  0.9306 -1.0642 -0.5070
10436SOL     OW32379   0.616   6.703   7.018  0.4955 -0.5415  0.1110
10436SOL    HW132380   0.600   6.751   6.937 -0.0969 -0.2216  0.4092
10436SOL    HW232381   0.589   6.614   6.999 -0.2010 -0.3411  0.1267
10437SOL     OW32382   1.626   7.361   2.591 -0.3895  0.0128 -0.3128
10437SOL    HW132383   1.673   7.353   2.508  1.3324  1.9135  0.3902
10437SOL    HW232384   1.536   7.382   2.566 -0.4142 -1.5527 -1.6862
10438SOL     OW32385   1.261   3.867   1.927  0.0770  0.1527  0.7114
10438SOL    HW132386   1.267   3.887   1.834  0.8135 -0.6723  0.5683
10438SOL    HW232387   1.167   3.857   1.944  0.0154 -1.2729 -0.2983
10439SOL     OW32388   3.426   0.836   6.564 -0.4347  0.2392 -0.4355
10439SOL    HW132389   3.356   0.862   6.505 -0.4082  2.6663  0.4780
10439SOL    HW232390   3.506   0.844   6.512 -0.5118  1.2987 -0.4161
10440SOL     OW32391   7.639   5.204   0.549  0.1080  0.2674  0.2229
10440SOL    HW132392   7.667   5.189   0.458 -2.6631  2.1278 -1.0686
10440SOL    HW232393   7.720   5.195   0.600  2.2011  1.0835 -2.6594
10441SOL     OW32394   3.237   4.631   6.058  0.0101 -0.0070  0.0435
10441SOL    HW132395   3.201   4.719   6.053  1.1166  0.4824  0.2398
10441SOL    HW232396   3.185   4.587   6.124 -1.7011 -0.0796 -1.2957
10442SOL     OW32397   2.381   3.384   6.439 -0.4061 -0.2551  0.1377
10442SOL    HW132398   2.446   3.375   6.509  0.6164 -0.5698 -0.8116
10442SOL    HW232399   2.355   3.476   6.442  0.1015 -0.1205  0.5355
10443SOL     OW32400   4.867   5.813   2.839  0.5588  0.4188  0.0487
10443SOL    HW132401   4.959   5.822   2.864  0.3441 -0.6086  1.3356
10443SOL    HW232402   4.837   5.902   2.823  1.7521  0.7674 -0.2895
10444SOL     OW32403   0.492   1.158   4.077  0.0245 -0.3341  0.5140
10444SOL    HW132404   0.576   1.193   4.049  0.7927 -0.2988  2.6293
10444SOL    HW232405   0.437   1.235   4.091 -0.2538 -0.3373 -0.5015
10445SOL     OW32406   6.813   5.839   2.399 -0.5755  0.4757 -0.1635
10445SOL    HW132407   6.785   5.748   2.412 -1.9023  0.7506 -0.9123
10445SOL    HW232408   6.762   5.889   2.462 -0.7542  0.8432 -0.5996
10446SOL     OW32409   1.143   6.969   5.564 -0.0790 -0.0391  0.3122
10446SOL    HW132410   1.063   6.964   5.513 -1.2792  0.4493  2.0649
10446SOL    HW232411   1.154   6.882   5.601  0.5258 -0.2609 -0.3702
10447SOL     OW32412   5.805   3.799   6.267 -0.1354  0.3588 -0.1394
10447SOL    HW132413   5.814   3.829   6.357 -1.0878 -0.2315  0.1617
10447SOL    HW232414   5.890   3.760   6.246 -0.0169  0.2111  0.6091
10448SOL     OW32415   6.329   6.770   2.007 -0.2639 -0.0568 -0.8018
10448SOL    HW132416   6.393   6.718   1.958 -1.8887 -2.0579 -0.9377
10448SOL    HW232417   6.246   6.723   1.995 -1.7326  2.3113 -0.4483
10449SOL     OW32418   0.819   5.911   2.349  0.2242  0.0971  0.2353
10449SOL    HW132419   0.751   5.859   2.307  1.2925 -0.6274 -0.6598
10449SOL    HW232420   0.779   5.941   2.430 -1.5889  0.7527 -0.8269
10450SOL     OW32421   0.653   0.361   7.415  0.1359  0.1573  0.2121
10450SOL    HW132422   0.711   0.372   7.339 -1.2629  2.4678 -0.6118
10450SOL    HW232423   0.710   0.325   7.482  2.3710  1.5290 -0.8139
10451SOL     OW32424   1.189   5.901   1.950 -0.1205 -0.2093 -0.1275
10451SOL    HW132425   1.269   5.848   1.949  0.7425  1.0350 -0.1427
10451SOL    HW232426   1.130   5.858   1.888  0.5538 -1.1183 -0.1562
10452SOL     OW32427   1.192   0.087   1.473 -0.0654  0.2358  0.0801
10452SOL    HW132428   1.211   0.180   1.459 -1.0708  0.4794  0.2510
10452SOL    HW232429   1.273   0.042   1.449 -0.5221  0.8816 -3.1417
10453SOL     OW32430   5.500   1.409   6.549 -0.4055 -0.5200 -0.4279
10453SOL    HW132431   5.524   1.346   6.617 -0.9149  0.6612  0.8961
10453SOL    HW232432   5.571   1.473   6.549 -0.7669 -0.1115 -0.4805
10454SOL     OW32433   8.097   7.159   2.525  0.6613  0.2295 -0.2820
10454SOL    HW132434   8.072   7.175   2.434 -3.0505 -1.7530  0.1761
10454SOL    HW232435   8.049   7.225   2.575  1.4570  0.3248  0.3862
10455SOL     OW32436   7.785   5.129   6.745 -0.1574  0.0946 -0.0291
10455SOL    HW132437   7.720   5.091   6.687  0.3006  1.9961 -1.9194
10455SOL    HW232438   7.756   5.220   6.758  0.8282  0.2817  1.0866
10456SOL     OW32439   0.788   3.012   6.995 -0.1738 -0.2591 -0.2399
10456SOL    HW132440   0.849   2.940   6.980  0.7176  0.3310  0.5108
10456SOL    HW232441   0.728   2.979   7.062  1.2107  0.2353  1.3014
10457SOL     OW32442   0.310   6.676   5.481 -0.1853  0.0409  0.4495
10457SOL    HW132443   0.361   6.637   5.551  1.0297  0.8622  0.0583
10457SOL    HW232444   0.318   6.771   5.495  1.1402  0.2765 -1.4825
10458SOL     OW32445   5.871   0.921   6.363  0.1089  0.4921 -0.1850
10458SOL    HW132446   5.943   0.874   6.320 -0.9260 -0.6904 -0.6935
10458SOL    HW232447   5.908   1.006   6.385  1.8945 -0.3480  0.2561
10459SOL     OW32448   6.642   1.407   6.403 -0.1991 -0.0938  0.7182
10459SOL    HW132449   6.566   1.450   6.363  0.5819 -0.7866 -1.7123
10459SOL    HW232450   6.633   1.315   6.379  2.1186  0.0275 -1.0257
10460SOL     OW32451   5.436   0.883   6.681 -0.1745  0.4901  0.0249
10460SOL    HW132452   5.516   0.903   6.633 -0.1765  0.5895  0.0610
10460SOL    HW232453   5.399   0.807   6.637  0.0074  0.3654  0.0903
10461SOL     OW32454   2.066   0.621   7.008 -0.2342 -0.4006 -0.0080
10461SOL    HW132455   2.138   0.570   6.971  0.0264 -0.1859  0.1889
10461SOL    HW232456   2.109   0.678   7.072 -0.7271 -1.1032  0.9813
10462SOL     OW32457   2.501   4.231   4.067  0.0664 -0.2135  0.4434
10462SOL    HW132458   2.489   4.136   4.058  0.7939 -0.3052  0.3305
10462SOL    HW232459   2.447   4.268   3.997 -2.1458 -0.3858  1.9531
10463SOL     OW32460   6.990   7.592   3.143  0.4691 -0.1679 -0.0462
10463SOL    HW132461   6.962   7.563   3.230  0.6214  1.7216  0.6691
10463SOL    HW232462   6.917   7.567   3.085  0.1354 -0.9691  0.6912
10464SOL     OW32463   1.931   2.859   7.281  0.2687  0.3022  0.4330
10464SOL    HW132464   1.948   2.849   7.187 -2.2462  1.9867 -0.3065
10464SOL    HW232465   1.870   2.789   7.302 -0.0476  0.5970  0.5138
10465SOL     OW32466   6.524   3.331   6.978 -0.1962 -0.3289  0.4175
10465SOL    HW132467   6.488   3.243   6.969  0.7477 -0.4940 -2.7284
10465SOL    HW232468   6.618   3.319   6.980 -0.0051  0.6557 -1.2879
10466SOL     OW32469   2.809   7.303   6.672 -0.0512  0.5838  0.1844
10466SOL    HW132470   2.726   7.301   6.624 -0.6623  2.2129  1.0895
10466SOL    HW232471   2.809   7.388   6.716  1.4399  0.0022  1.3890
10467SOL     OW32472   6.004   5.686   2.601 -0.1156 -0.3309 -0.0144
10467SOL    HW132473   6.087   5.687   2.553  1.0006  1.1489  1.7724
10467SOL    HW232474   5.964   5.771   2.582 -0.4929 -0.4281  0.3204
10468SOL     OW32475   7.792   4.669   7.702  0.0433 -0.5337  0.1735
10468SOL    HW132476   7.879   4.649   7.738  0.2991  1.1205  0.5630
10468SOL    HW232477   7.811   4.720   7.623 -0.5597 -2.3642 -1.2072
10469SOL     OW32478   6.430   8.048   2.217  0.2496 -0.2391  0.1465
10469SOL    HW132479   6.363   8.003   2.269 -0.2041  1.4913  1.1169
10469SOL    HW232480   6.501   8.066   2.279  0.1165  1.0078 -0.0469
10470SOL     OW32481   2.243   4.856   2.850 -0.4450 -0.2294 -0.1964
10470SOL    HW132482   2.226   4.821   2.762  1.4373 -0.8929 -0.3499
10470SOL    HW232483   2.167   4.910   2.870 -2.0126 -1.9369 -1.2623
10471SOL     OW32484   3.484   4.126   3.487  0.2724  0.2759  0.3829
10471SOL    HW132485   3.444   4.134   3.400  2.0150  2.8811 -0.3023
10471SOL    HW232486   3.418   4.161   3.547 -0.3799 -0.1433 -0.0835
10472SOL     OW32487   1.444   0.727   7.885 -0.5410  0.5101  0.3176
10472SOL    HW132488   1.530   0.724   7.844 -0.2318  0.7193  0.9421
10472SOL    HW232489   1.421   0.820   7.884 -0.0593  0.6528  1.5784
10473SOL     OW32490   4.989   6.845   6.568  0.3337  0.1627  0.4189
10473SOL    HW132491   5.077   6.873   6.594 -0.0757  1.1438  0.7971
10473SOL    HW232492   4.932   6.917   6.595 -0.4756 -0.0509 -0.6732
10474SOL     OW32493   6.358   3.902   1.439  0.0808 -0.1415  0.6009
10474SOL    HW132494   6.353   3.813   1.473 -0.3959 -0.9357 -1.3947
10474SOL    HW232495   6.391   3.892   1.349  1.2311  1.8126  0.7356
10475SOL     OW32496   0.124   7.975   7.925  0.1715 -0.3768 -0.1783
10475SOL    HW132497   0.094   8.062   7.955 -1.6315 -0.6757 -1.0007
10475SOL    HW232498   0.170   7.993   7.843 -0.6782 -0.2378 -0.6355
10476SOL     OW32499   5.357   0.389   5.886 -0.2067  0.1313  0.5963
10476SOL    HW132500   5.445   0.394   5.923 -0.6011  1.0334  1.4778
10476SOL    HW232501   5.360   0.316   5.824  1.2622  0.4040  0.3126
10477SOL     OW32502   1.237   2.457   7.273  0.0992  0.0650 -0.1250
10477SOL    HW132503   1.229   2.407   7.192 -0.0497 -0.7785  0.3911
10477SOL    HW232504   1.206   2.545   7.251  0.9331  0.1038 -1.2071
10478SOL     OW32505   2.127   0.748   3.659 -0.1815  0.0286  0.6034
10478SOL    HW132506   2.140   0.821   3.598  0.4514  0.0482  0.7539
10478SOL    HW232507   2.203   0.751   3.717  0.7969 -1.7911 -0.4674
10479SOL     OW32508   2.290   4.322   5.729 -0.3629 -0.5101 -0.4417
10479SOL    HW132509   2.380   4.353   5.718 -0.3098 -0.5862 -0.2125
10479SOL    HW232510   2.255   4.319   5.640 -0.7748  1.4279 -0.3879
10480SOL     OW32511   2.902   3.896   1.043 -0.0743  0.4603 -0.3198
10480SOL    HW132512   2.882   3.979   1.085  0.5781  0.1476  0.6600
10480SOL    HW232513   2.852   3.831   1.093  3.6821 -0.4526  2.7335
10481SOL     OW32514   1.549   5.737   5.838 -0.1655 -0.5646  0.5920
10481SOL    HW132515   1.540   5.791   5.916 -0.0398 -0.6674  0.6772
10481SOL    HW232516   1.562   5.648   5.871  0.2509 -0.5540  0.4605
10482SOL     OW32517   4.897   2.122   6.535 -0.1193  0.0369  0.4557
10482SOL    HW132518   4.927   2.199   6.486  0.4623  0.2212  1.0920
10482SOL    HW232519   4.823   2.089   6.483 -1.3415  1.8773  0.9164
10483SOL     OW32520   6.261   0.337   0.941 -0.1642 -0.2380  0.4589
10483SOL    HW132521   6.288   0.352   1.032 -0.2296  0.3520  0.3815
10483SOL    HW232522   6.198   0.406   0.923  1.4428  1.0099 -0.7301
10484SOL     OW32523   4.866   4.186   5.146  0.1970 -0.7440  0.3611
10484SOL    HW132524   4.918   4.124   5.197  2.3288 -0.8678 -1.7804
10484SOL    HW232525   4.826   4.133   5.077  0.3128 -0.0686 -0.2363
10485SOL     OW32526   3.842   1.415   6.540 -0.4817  0.1981  0.4733
10485SOL    HW132527   3.869   1.329   6.572  0.9443 -0.0377 -1.2192
10485SOL    HW232528   3.772   1.442   6.599 -2.4268 -3.0158 -0.1196
10486SOL     OW32529   5.739   7.838   1.401  0.2980  0.2771 -0.2945
10486SOL    HW132530   5.747   7.794   1.486  1.6491 -0.8383 -0.9574
10486SOL    HW232531   5.722   7.768   1.339 -0.8668  1.1045 -0.9422
10487SOL     OW32532   0.674   6.674   3.413 -0.2406  0.2172  0.2134
10487SOL    HW132533   0.692   6.763   3.443  1.0413  0.0071  0.1023
10487SOL    HW232534   0.700   6.618   3.485  0.7509 -0.1653 -0.4243
10488SOL     OW32535   0.004   1.942   5.774 -0.0030  0.7372  0.3834
10488SOL    HW132536   0.084   1.940   5.827  0.1202 -1.3444  0.2005
10488SOL    HW232537   0.011   2.022   5.723  0.6825  1.9469  2.2688
10489SOL     OW32538   6.428   6.166   1.824  0.3834 -0.3590 -0.4826
10489SOL    HW132539   6.429   6.070   1.829  3.3437 -0.4292 -0.9207
10489SOL    HW232540   6.502   6.194   1.878  0.0350  1.6689 -0.9667
10490SOL     OW32541   2.458   3.814   6.334 -0.0528  0.2094 -0.8658
10490SOL    HW132542   2.388   3.748   6.329  1.4586 -1.4415 -1.3777
10490SOL    HW232543   2.460   3.853   6.247 -0.2167  0.1330 -0.9044
10491SOL     OW32544   2.009   4.732   6.324  0.1648 -0.1007 -0.2699
10491SOL    HW132545   2.098   4.703   6.303  0.0753 -2.3740  2.0880
10491SOL    HW232546   1.954   4.657   6.305 -0.9139  0.4424  0.6237
10492SOL     OW32547   8.161   5.901   4.657  0.4369  0.2623  0.0584
10492SOL    HW132548   8.251   5.934   4.661  0.8894 -0.8250 -0.8883
10492SOL    HW232549   8.161   5.826   4.716 -0.0402  0.6324  0.5476
10493SOL     OW32550   6.450   4.378   3.853 -0.1309 -0.0158  0.0162
10493SOL    HW132551   6.504   4.334   3.787  0.3835  0.9337 -0.2137
10493SOL    HW232552   6.483   4.468   3.856 -1.4622  0.5032  0.1303
10494SOL     OW32553   0.708   1.688   5.664 -0.1762  0.5215  0.1374
10494SOL    HW132554   0.642   1.744   5.707 -0.5912  0.1147  0.0437
10494SOL    HW232555   0.690   1.697   5.571 -1.3902 -1.0985  0.1689
10495SOL     OW32556   6.305   1.562   1.055 -0.0336 -0.3447  0.3036
10495SOL    HW132557   6.400   1.552   1.050  0.0118  0.1886  0.0577
10495SOL    HW232558   6.284   1.627   0.988 -0.7075 -1.2967 -0.4347
10496SOL     OW32559   2.378   2.696   1.701 -0.1762  0.7925 -0.0402
10496SOL    HW132560   2.430   2.736   1.771 -0.9570  3.8040 -1.0288
10496SOL    HW232561   2.437   2.695   1.626  0.0325 -0.6241  0.1109
10497SOL     OW32562   5.127   0.647   0.955 -0.3525  0.2535  0.3346
10497SOL    HW132563   5.083   0.589   0.893  0.6147 -0.9487  0.7353
10497SOL    HW232564   5.093   0.734   0.935  0.4594  0.0188 -2.3374
10498SOL     OW32565   2.530   3.325   7.938 -0.1382 -0.1136  0.2255
10498SOL    HW132566   2.594   3.396   7.926  1.5586 -1.5022  0.6808
10498SOL    HW232567   2.449   3.360   7.902  0.8111  1.8049 -0.1965
10499SOL     OW32568   7.959   2.385   2.990  0.2410 -0.1340 -0.1714
10499SOL    HW132569   7.873   2.426   2.979 -0.2482 -1.4090 -1.4492
10499SOL    HW232570   8.009   2.448   3.042 -0.7000  1.7270 -1.4118
10500SOL     OW32571   4.416   8.164   1.845  0.1125 -0.2302 -0.2123
10500SOL    HW132572   4.399   8.155   1.751  0.3496  2.1720 -0.5320
10500SOL    HW232573   4.454   8.080   1.870 -1.2033 -1.4312 -1.9523
10501SOL     OW32574   5.416   5.897   4.777 -1.0426  0.4966  0.6900
10501SOL    HW132575   5.326   5.910   4.749 -0.7907 -0.6015 -0.7600
10501SOL    HW232576   5.409   5.868   4.868 -2.3197 -1.6519 -0.0315
10502SOL     OW32577   2.574   7.155   0.386  0.0190 -0.1200  0.1482
10502SOL    HW132578   2.627   7.075   0.392  0.8887  0.5036  1.3610
10502SOL    HW232579   2.576   7.191   0.475 -2.9460 -0.3480  0.3864
10503SOL     OW32580   8.028   7.521   0.636 -0.1815  0.1314 -0.3912
10503SOL    HW132581   8.099   7.582   0.613  0.7477  0.2861  2.4463
10503SOL    HW232582   8.073   7.438   0.653 -0.9428 -0.2713 -0.3206
10504SOL     OW32583   0.175   1.088   0.601  0.0326 -0.5009 -0.0783
10504SOL    HW132584   0.212   1.117   0.684 -1.2209  1.0113 -0.0100
10504SOL    HW232585   0.108   1.024   0.625  0.0549 -0.4785  0.0410
10505SOL     OW32586   5.491   6.408   2.340 -1.0426 -0.2053  0.0957
10505SOL    HW132587   5.522   6.488   2.298  0.4506 -1.5769 -1.5329
10505SOL    HW232588   5.457   6.355   2.269 -1.6898 -1.2098  1.1142
10506SOL     OW32589   6.197   6.936   4.618 -0.4484  0.2031  0.4191
10506SOL    HW132590   6.191   7.016   4.566 -0.6486  0.4275  0.7842
10506SOL    HW232591   6.242   6.874   4.561 -2.0517 -0.0535 -0.6317
10507SOL     OW32592   3.666   6.584   1.792 -0.1746  0.2070 -0.2149
10507SOL    HW132593   3.665   6.676   1.764 -0.1947  1.0448  2.3208
10507SOL    HW232594   3.590   6.546   1.747 -0.1120  1.3753 -1.3957
10508SOL     OW32595   3.451   4.544   1.763 -0.2504 -0.1967  0.1230
10508SOL    HW132596   3.366   4.569   1.725  0.0673 -0.6040 -0.8649
10508SOL    HW232597   3.504   4.518   1.689  0.0213 -2.1224  0.9285
10509SOL     OW32598   0.861   3.883   1.075 -0.0975 -0.1912 -0.1660
10509SOL    HW132599   0.894   3.885   1.165  2.0029 -2.3212 -0.7953
10509SOL    HW232600   0.777   3.837   1.081  0.1632 -0.5675  0.6771
10510SOL     OW32601   5.535   7.049   0.909  0.3704 -0.4731  0.5766
10510SOL    HW132602   5.496   7.086   0.988  0.1537  0.0656  0.2240
10510SOL    HW232603   5.469   7.062   0.840  0.1087 -1.8984  0.5158
10511SOL     OW32604   1.012   1.705   0.270 -0.1157  0.0170  0.8598
10511SOL    HW132605   1.060   1.766   0.214 -1.1794  1.8484  1.8213
10511SOL    HW232606   1.021   1.742   0.358  0.0562 -1.8251  1.6666
10512SOL     OW32607   1.452   0.273   0.489  0.3577  0.1609 -0.0373
10512SOL    HW132608   1.422   0.183   0.476 -1.2408  0.2407  2.3391
10512SOL    HW232609   1.387   0.327   0.443  1.0394  0.1584 -1.0414
10513SOL     OW32610   5.880   0.311   0.067 -0.0259  0.5351  0.1469
10513SOL    HW132611   5.961   0.289   0.112 -0.7452 -0.6690  0.9156
10513SOL    HW232612   5.832   0.227   0.061 -0.4702  0.8692 -1.8137
10514SOL     OW32613   2.982   4.518   3.361  0.8808  0.1566 -0.1221
10514SOL    HW132614   3.014   4.450   3.420  1.1824 -0.4850 -1.0061
10514SOL    HW232615   3.061   4.557   3.324  0.8139  2.5418  2.0287
10515SOL     OW32616   0.460   4.770   0.991  0.1166 -0.3084  0.0732
10515SOL    HW132617   0.526   4.730   0.934 -0.7007  0.9263 -1.8760
10515SOL    HW232618   0.386   4.710   0.987 -0.4226  0.3918 -1.3243
10516SOL     OW32619   5.456   0.894   5.425  0.6153 -0.5520 -0.6062
10516SOL    HW132620   5.441   0.800   5.432  0.7762 -0.5770 -0.6056
10516SOL    HW232621   5.385   0.933   5.475 -1.6506 -0.5397 -3.5563
10517SOL     OW32622   2.974   6.784   1.727  0.9166  0.0777  0.2493
10517SOL    HW132623   2.973   6.866   1.777  1.0223 -0.8617  1.8715
10517SOL    HW232624   2.884   6.773   1.697  0.8958  0.7575  0.0404
10518SOL     OW32625   2.858   6.671   6.965  0.1241  0.1336 -0.6310
10518SOL    HW132626   2.944   6.635   6.987  1.8341  3.6239 -0.8496
10518SOL    HW232627   2.877   6.754   6.921 -3.3768  1.2506 -0.3848
10519SOL     OW32628   2.887   5.054   5.442  0.0234 -1.0030 -0.5260
10519SOL    HW132629   2.843   5.108   5.508  2.1145  1.1631 -0.7538
10519SOL    HW232630   2.962   5.017   5.487 -0.4519 -2.4184 -0.8375
10520SOL     OW32631   6.178   2.104   5.743 -0.1089  0.5595  0.2656
10520SOL    HW132632   6.106   2.067   5.692  0.4453 -0.1848  0.0264
10520SOL    HW232633   6.139   2.182   5.784 -1.0351  0.2091  0.0890
10521SOL     OW32634   5.545   1.208   0.602  0.4054 -0.0405 -0.0995
10521SOL    HW132635   5.614   1.142   0.608  1.2514  0.8019 -0.3597
10521SOL    HW232636   5.573   1.276   0.663 -0.0132  0.4712 -0.4753
10522SOL     OW32637   8.038   1.503   4.580  0.4135  0.1799  0.3129
10522SOL    HW132638   8.050   1.540   4.493 -1.1614 -1.3497 -0.6287
10522SOL    HW232639   8.018   1.411   4.564 -1.5187  0.2048  2.1687
10523SOL     OW32640   4.616   2.154   5.864  0.5193  0.0307 -0.5755
10523SOL    HW132641   4.697   2.189   5.902  0.3771  0.1739 -0.4073
10523SOL    HW232642   4.570   2.115   5.938  0.6711 -0.5100 -0.7561
10524SOL     OW32643   6.867   6.387   0.638  0.7881 -0.3701  0.2911
10524SOL    HW132644   6.873   6.468   0.689  1.1633 -0.8173  0.9711
10524SOL    HW232645   6.937   6.394   0.573  0.7222 -0.0860  0.2498
10525SOL     OW32646   5.756   6.458   4.827 -0.4775 -0.4830  0.6074
10525SOL    HW132647   5.814   6.494   4.893  0.3370 -0.3106 -0.1819
10525SOL    HW232648   5.671   6.450   4.871 -0.3033  0.9563  1.2483
10526SOL     OW32649   6.316   0.206   1.391 -0.3873 -0.1404 -0.2341
10526SOL    HW132650   6.345   0.277   1.448 -2.1721  0.8850 -0.5319
10526SOL    HW232651   6.352   0.127   1.431  0.3285  0.7687  0.9990
10527SOL     OW32652   4.395   0.714   4.609  0.5244 -0.1998 -0.1060
10527SOL    HW132653   4.487   0.731   4.589  0.9199 -0.1600  1.5974
10527SOL    HW232654   4.381   0.623   4.580  0.4737  0.4387 -2.2917
10528SOL     OW32655   3.691   3.177   5.949 -0.5254  0.1066 -0.4930
10528SOL    HW132656   3.772   3.135   5.978 -1.5025 -2.6424 -1.4245
10528SOL    HW232657   3.624   3.147   6.010 -1.0655  1.5356 -0.3345
10529SOL     OW32658   7.527   4.313   2.887 -0.0400 -0.3618  0.0368
10529SOL    HW132659   7.559   4.223   2.879  1.2412  0.1713 -1.2784
10529SOL    HW232660   7.602   4.362   2.919  0.0970  0.6713 -1.7158
10530SOL     OW32661   7.053   0.268   8.057  0.0654 -0.4949 -0.7891
10530SOL    HW132662   7.101   0.294   8.135  0.4264 -0.7997 -0.9069
10530SOL    HW232663   6.961   0.278   8.081  0.1827  0.5462 -0.7176
10531SOL     OW32664   6.776   1.244   2.638  0.8073  0.2314 -0.0011
10531SOL    HW132665   6.748   1.332   2.661  1.1688  0.5559 -0.7748
10531SOL    HW232666   6.733   1.187   2.702 -1.1857  0.7436 -0.8362
10532SOL     OW32667   3.550   1.030   7.002 -0.4483  0.1981 -0.2050
10532SOL    HW132668   3.554   1.027   7.097  1.3148  1.6996 -0.1601
10532SOL    HW232669   3.639   1.007   6.973 -0.4176  1.6135 -1.3744
10533SOL     OW32670   4.056   4.252   3.396 -0.1163 -0.3486 -0.1091
10533SOL    HW132671   4.149   4.245   3.418 -0.2626 -1.5545  0.1981
10533SOL    HW232672   4.016   4.287   3.476  0.0694  0.1735 -0.2418
10534SOL     OW32673   6.887   2.685   4.028 -0.0937  0.1202  0.1216
10534SOL    HW132674   6.966   2.724   4.064  0.0615 -1.3602  1.4484
10534SOL    HW232675   6.851   2.631   4.098  0.0546 -2.6818 -1.7757
10535SOL     OW32676   3.368   5.085   5.102  0.0013 -0.3625  0.2078
10535SOL    HW132677   3.456   5.062   5.132 -0.3730  0.4925  2.1381
10535SOL    HW232678   3.330   5.002   5.073  0.5733 -1.2335  1.8132
10536SOL     OW32679   4.124   7.145   1.416 -0.3267  0.1207 -0.0436
10536SOL    HW132680   4.158   7.214   1.360 -0.5032  0.1423 -0.1260
10536SOL    HW232681   4.053   7.186   1.466 -1.1768 -0.2691 -0.8949
10537SOL     OW32682   3.847   0.848   0.999 -0.0104 -0.7740  0.4679
10537SOL    HW132683   3.824   0.845   1.092 -0.0678 -1.4353  0.4382
10537SOL    HW232684   3.942   0.854   0.998  0.2640 -3.6860  0.5879
10538SOL     OW32685   4.091   0.825   8.122  0.0642 -0.4182 -0.0568
10538SOL    HW132686   4.025   0.881   8.162  0.5405  0.3664 -0.3549
10538SOL    HW232687   4.150   0.885   8.076  0.4078 -1.1847 -0.6443
10539SOL     OW32688   7.508   1.059   7.486  0.4798  0.4588 -0.0155
10539SOL    HW132689   7.426   1.057   7.535  0.7910  1.8371  0.6174
10539SOL    HW232690   7.541   1.148   7.497  1.7246  0.1337 -0.8233
10540SOL     OW32691   6.880   6.332   2.114 -0.7493 -0.0685 -0.5491
10540SOL    HW132692   6.794   6.303   2.082 -0.2938 -1.3015 -0.7180
10540SOL    HW232693   6.908   6.263   2.173 -0.4324  0.9596  0.5428
10541SOL     OW32694   4.330   1.844   6.804 -0.0258 -0.1347  0.6234
10541SOL    HW132695   4.410   1.879   6.765  0.6775  0.0714  2.1667
10541SOL    HW232696   4.332   1.750   6.783  0.7690 -0.1801  0.8769
10542SOL     OW32697   4.066   1.830   4.735 -0.3269  0.3096  0.4942
10542SOL    HW132698   3.982   1.786   4.750  0.4550 -0.4658  2.9026
10542SOL    HW232699   4.105   1.783   4.661 -1.9153  0.5953 -0.5729
10543SOL     OW32700   7.000   5.961   2.993  0.1117  0.5438 -0.7760
10543SOL    HW132701   7.035   5.933   3.077  0.1326  0.0662 -0.9380
10543SOL    HW232702   6.930   5.898   2.975 -0.1011  0.8330 -0.9665
10544SOL     OW32703   7.759   0.580   5.862 -0.4077  0.2991 -0.0685
10544SOL    HW132704   7.854   0.577   5.873 -0.3106 -1.0529 -1.0458
10544SOL    HW232705   7.728   0.495   5.893 -1.4266  1.0678  1.1160
10545SOL     OW32706   3.727   3.002   0.231  0.0085 -0.0736 -0.0541
10545SOL    HW132707   3.729   2.955   0.148  0.3848 -0.3946  0.1344
10545SOL    HW232708   3.670   3.077   0.215 -0.1808 -0.3144 -0.5049
10546SOL     OW32709   5.177   5.047   2.573 -0.6806  0.1995 -0.3366
10546SOL    HW132710   5.158   4.960   2.539 -3.3158  0.0591  1.2016
10546SOL    HW232711   5.266   5.066   2.544 -0.0758 -2.9262 -0.8248
10547SOL     OW32712   1.863   4.710   3.778  1.1882  0.5251 -0.2810
10547SOL    HW132713   1.859   4.710   3.873  2.0697  3.4190 -0.1248
10547SOL    HW232714   1.951   4.679   3.757  0.8453 -0.5318 -0.2089
10548SOL     OW32715   7.402   6.130   1.184 -0.3260  0.4884 -0.6169
10548SOL    HW132716   7.446   6.187   1.121  1.1512  0.7931  0.6360
10548SOL    HW232717   7.468   6.065   1.208 -1.2831 -0.4080 -0.3472
10549SOL     OW32718   1.940   7.767   5.210  0.2585  0.4025 -0.1640
10549SOL    HW132719   1.889   7.753   5.290  0.7791  3.0864  0.7173
10549SOL    HW232720   2.011   7.702   5.216  0.4138  0.6788  1.6762
10550SOL     OW32721   0.063   0.796   4.244  0.2273 -0.3543 -0.7943
10550SOL    HW132722   0.074   0.735   4.171 -1.7856 -1.2652 -0.3808
10550SOL    HW232723  -0.030   0.817   4.245 -0.0744 -1.3723  2.2804
10551SOL     OW32724   0.955   4.192   5.620  0.2613 -0.3385  0.5179
10551SOL    HW132725   0.867   4.177   5.585  0.6006  0.3292 -0.6647
10551SOL    HW232726   0.969   4.120   5.682 -0.3057 -1.6866 -0.8510
10552SOL     OW32727   7.109   7.825   3.749  0.0450  0.7406 -0.9605
10552SOL    HW132728   7.125   7.802   3.658 -0.4339  0.3304 -0.9474
10552SOL    HW232729   7.145   7.913   3.759  0.8088  0.4752 -1.3361
10553SOL     OW32730   6.775   0.276   3.486  0.1091  0.0000  0.3554
10553SOL    HW132731   6.850   0.294   3.542  0.6957  1.8286 -0.9226
10553SOL    HW232732   6.704   0.328   3.524 -0.2341 -0.8146  0.8761
10554SOL     OW32733   2.417   7.364   3.879  0.2161 -0.1715  0.0805
10554SOL    HW132734   2.454   7.310   3.949  0.2999  1.3921  1.2816
10554SOL    HW232735   2.460   7.332   3.799  1.7195 -0.5696  1.0118
10555SOL     OW32736   2.223   7.802   1.306 -0.1628  0.1790 -0.0214
10555SOL    HW132737   2.226   7.877   1.247  0.4491  1.1012  1.1171
10555SOL    HW232738   2.189   7.838   1.388 -0.3999 -0.9227  0.3792
10556SOL     OW32739   5.899   1.473   4.862 -0.6251  0.5479 -0.1510
10556SOL    HW132740   5.947   1.417   4.802 -1.5615  0.1955 -0.5682
10556SOL    HW232741   5.959   1.484   4.936 -1.3533 -3.1625  1.2015
10557SOL     OW32742   7.368   1.365   5.709 -0.7921 -0.2700  0.0667
10557SOL    HW132743   7.345   1.353   5.801  0.0742 -1.2559  0.1709
10557SOL    HW232744   7.461   1.345   5.705 -0.4982  1.1210 -0.7922
10558SOL     OW32745   1.426   7.940   0.863  0.0269  0.2646 -0.5171
10558SOL    HW132746   1.505   7.991   0.844  0.8430 -0.6463  0.3569
10558SOL    HW232747   1.420   7.877   0.792 -1.1368  1.6695 -1.7548
10559SOL     OW32748   4.238   8.072   3.977 -1.0975  0.2463  0.0984
10559SOL    HW132749   4.289   7.994   3.954 -0.6589  1.1733 -2.3546
10559SOL    HW232750   4.179   8.042   4.046  0.8097 -1.5735  1.0416
10560SOL     OW32751   5.733   7.566   4.526 -0.1142 -0.0895 -0.1924
10560SOL    HW132752   5.738   7.624   4.450 -1.9256  0.4172  0.0347
10560SOL    HW232753   5.652   7.591   4.570  0.7303 -0.5860  1.7526
10561SOL     OW32754   3.731   5.887   5.904  0.6284 -0.1735 -0.0405
10561SOL    HW132755   3.674   5.812   5.916 -0.2583  0.6839  1.4055
10561SOL    HW232756   3.672   5.961   5.889  1.4650  0.3277 -1.0764
10562SOL     OW32757   6.009   2.325   2.103  0.1339  0.5653 -0.3830
10562SOL    HW132758   6.081   2.277   2.062 -1.2228 -1.1941 -0.8772
10562SOL    HW232759   6.004   2.289   2.191  0.5045  1.4324 -0.0045
10563SOL     OW32760   5.439   7.254   8.131 -0.1373  0.1202  0.5020
10563SOL    HW132761   5.408   7.180   8.183  0.6010 -0.2082  0.4850
10563SOL    HW232762   5.449   7.325   8.195 -1.3562  0.3818  0.4332
10564SOL     OW32763   6.585   2.628   3.028  0.3021 -0.0496  0.6725
10564SOL    HW132764   6.575   2.545   2.981  0.5464  0.3158 -0.0383
10564SOL    HW232765   6.524   2.688   2.985  1.6629  0.7240 -0.2350
10565SOL     OW32766   7.022   6.896   5.956  0.1344  0.1400 -0.5988
10565SOL    HW132767   7.066   6.979   5.975 -0.4238 -0.0316  1.7967
10565SOL    HW232768   7.093   6.837   5.933  0.7140  0.8894 -0.7961
10566SOL     OW32769   0.262   3.332   2.917 -0.1637 -0.3189 -0.2172
10566SOL    HW132770   0.288   3.372   3.000 -2.2958 -3.2414  2.0509
10566SOL    HW232771   0.344   3.303   2.877  0.8764  0.8220  1.0097
10567SOL     OW32772   1.299   7.567   7.885 -0.0240 -0.2875 -0.1450
10567SOL    HW132773   1.298   7.606   7.797  0.7644 -0.2389 -0.1464
10567SOL    HW232774   1.367   7.500   7.880 -0.9292 -1.2314  0.0465
10568SOL     OW32775   2.805   1.718   1.864 -1.0097  0.5807 -0.1760
10568SOL    HW132776   2.714   1.746   1.871 -1.1432 -0.0599  0.8559
10568SOL    HW232777   2.855   1.787   1.907 -0.8607  1.5375 -1.7977
10569SOL     OW32778   7.383   3.908   2.918  0.1103  0.8021 -0.1448
10569SOL    HW132779   7.343   3.841   2.972  0.1194  1.0417  0.1630
10569SOL    HW232780   7.416   3.973   2.980 -0.1639  1.2376 -0.4439
10570SOL     OW32781   0.682   1.153   5.511 -0.1195  0.3089 -0.0501
10570SOL    HW132782   0.591   1.133   5.532  0.3234  0.2033  1.9671
10570SOL    HW232783   0.727   1.069   5.520  0.4057  0.6331  0.4360
10571SOL     OW32784   6.000   2.739   7.710 -0.5258  0.5212  0.0005
10571SOL    HW132785   5.927   2.774   7.659 -1.6959 -0.7255  0.7588
10571SOL    HW232786   6.054   2.816   7.730 -1.2260  1.3524 -1.1974
10572SOL     OW32787   0.457   2.768   6.432 -0.3239  0.2159  0.4556
10572SOL    HW132788   0.429   2.847   6.478 -1.3375  0.1804 -0.0555
10572SOL    HW232789   0.422   2.696   6.485 -0.9123  0.1603  0.0032
10573SOL     OW32790   5.092   5.317   4.741  0.2587 -0.0616  0.0546
10573SOL    HW132791   5.074   5.288   4.651 -1.0437  1.1003 -0.0940
10573SOL    HW232792   5.018   5.284   4.792  0.6956 -0.2105  0.6073
10574SOL     OW32793   3.386   6.300   1.510 -0.1487 -0.2438  0.1593
10574SOL    HW132794   3.306   6.285   1.459 -0.1381  0.0676  0.0464
10574SOL    HW232795   3.436   6.362   1.457  0.4454 -0.9085 -0.0607
10575SOL     OW32796   6.579   3.970   3.653  0.0148 -0.0571 -0.5028
10575SOL    HW132797   6.598   3.925   3.571  0.4818 -0.3307 -0.2504
10575SOL    HW232798   6.565   3.900   3.716 -0.5778  0.1525 -0.3940
10576SOL     OW32799   0.155   3.881   2.313 -0.6041  0.6788  0.0548
10576SOL    HW132800   0.233   3.881   2.258 -0.7337  1.7856 -0.1529
10576SOL    HW232801   0.095   3.820   2.270 -0.5861  1.2988 -0.8645
10577SOL     OW32802   1.582   1.431   1.414  0.5989 -0.2827  0.2122
10577SOL    HW132803   1.524   1.502   1.387  1.8584  0.7359  0.0470
10577SOL    HW232804   1.526   1.355   1.422 -0.7667  0.6876  0.1792
10578SOL     OW32805   2.284   0.381   3.651  0.1432 -0.1639  0.0658
10578SOL    HW132806   2.338   0.431   3.589  0.1017  1.2914  1.1559
10578SOL    HW232807   2.195   0.388   3.617  0.2409 -0.1244 -0.1811
10579SOL     OW32808   6.061   0.027   5.450  0.5073 -0.3761  0.0487
10579SOL    HW132809   6.078   0.106   5.399 -0.0453 -2.1654 -3.2276
10579SOL    HW232810   6.029   0.059   5.535  0.4806  2.8652 -1.0380
10580SOL     OW32811   3.588   0.725   6.128  0.1668  0.9192 -0.6594
10580SOL    HW132812   3.602   0.760   6.216 -1.2654 -0.2044  0.0664
10580SOL    HW232813   3.639   0.645   6.126 -1.5452 -0.2370 -0.0063
10581SOL     OW32814   5.021   1.098   3.060  0.2159 -0.0195 -0.3068
10581SOL    HW132815   5.044   1.052   2.979 -0.8420  3.0445 -2.5274
10581SOL    HW232816   4.945   1.050   3.093 -0.6983 -0.0819 -2.3669
10582SOL     OW32817   6.239   8.149   3.145  0.1499 -0.0608  0.1268
10582SOL    HW132818   6.179   8.183   3.078 -0.8729 -2.6240 -0.4186
10582SOL    HW232819   6.324   8.185   3.123 -0.4396  0.2838 -1.7357
10583SOL     OW32820   4.776   6.995   3.744 -0.4212 -0.3625 -0.6299
10583SOL    HW132821   4.706   6.955   3.796  0.7354 -1.9278 -0.2128
10583SOL    HW232822   4.813   7.062   3.801  0.6877 -1.9130  0.5601
10584SOL     OW32823   7.135   0.038   2.574  0.5389  0.3624  0.0712
10584SOL    HW132824   7.190  -0.024   2.623  1.3832 -0.3003 -1.6147
10584SOL    HW232825   7.157   0.123   2.611  2.8027  0.1251 -0.5747
10585SOL     OW32826   6.643   4.806   2.752 -0.2225 -0.1521 -0.6274
10585SOL    HW132827   6.651   4.873   2.820 -0.6738 -0.5131 -0.2039
10585SOL    HW232828   6.593   4.736   2.794 -0.5163 -0.3775 -1.3395
10586SOL     OW32829   3.153   6.700   7.837  0.0798 -0.2851  0.7696
10586SOL    HW132830   3.068   6.680   7.876  0.0514  1.6575  1.7990
10586SOL    HW232831   3.171   6.790   7.862  2.0158 -0.3318 -0.2471
10587SOL     OW32832   7.157   6.494   7.775 -0.0066 -0.5593  0.0816
10587SOL    HW132833   7.239   6.447   7.789  0.9691  0.9838 -0.1613
10587SOL    HW232834   7.134   6.475   7.684  1.2039  0.5942 -0.5058
10588SOL     OW32835   5.626   5.236   6.861  0.3426 -0.4138 -0.2902
10588SOL    HW132836   5.635   5.178   6.785 -0.8797 -0.9253 -0.0687
10588SOL    HW232837   5.554   5.198   6.912 -0.4790  1.2864 -0.1207
10589SOL     OW32838   6.229   5.126   0.647 -0.0047  0.8283  0.0223
10589SOL    HW132839   6.265   5.090   0.566  0.2619  1.3992 -0.1126
10589SOL    HW232840   6.276   5.207   0.661  0.7026  0.2219  1.3237
10590SOL     OW32841   7.253   7.923   7.614 -0.2450  0.3128  0.0645
10590SOL    HW132842   7.285   7.927   7.704 -0.6883  0.3806  0.2274
10590SOL    HW232843   7.294   7.846   7.576 -0.3374  0.0775  0.4393
10591SOL     OW32844   6.099   0.203   2.754 -0.4427 -0.0399 -0.4840
10591SOL    HW132845   6.014   0.203   2.710 -1.7054  2.9705  1.6892
10591SOL    HW232846   6.159   0.239   2.689 -0.7770 -1.9266 -1.9437
10592SOL     OW32847   6.148   1.919   1.042 -0.1291  0.0602  0.2038
10592SOL    HW132848   6.128   1.880   1.127 -0.4310  0.5694  0.3685
10592SOL    HW232849   6.098   1.865   0.980 -2.8268  1.8161  0.6849
10593SOL     OW32850   5.503   0.170   4.974 -0.2518  0.0974  0.8161
10593SOL    HW132851   5.471   0.260   4.971 -1.1806 -0.1852  1.4694
10593SOL    HW232852   5.423   0.117   4.977  0.2550 -0.8094 -0.7212
10594SOL     OW32853   6.480   1.208   6.552 -0.0822 -0.2050 -0.0728
10594SOL    HW132854   6.550   1.255   6.597  0.6395  1.0444 -2.3327
10594SOL    HW232855   6.526   1.148   6.493 -0.9259 -0.4667 -0.4825
10595SOL     OW32856   4.876   2.269   1.256 -0.1921 -0.2970 -0.2340
10595SOL    HW132857   4.858   2.294   1.165  0.9615 -2.0105 -0.9952
10595SOL    HW232858   4.827   2.188   1.269 -1.5497  0.6907  1.2141
10596SOL     OW32859   2.790   5.092   7.913 -0.5085 -0.0869  0.2696
10596SOL    HW132860   2.860   5.155   7.900  2.0876 -2.5152  1.4636
10596SOL    HW232861   2.780   5.086   8.008 -0.0460 -2.0318  0.2395
10597SOL     OW32862   3.866   1.467   3.305  0.2887 -0.9606 -0.2732
10597SOL    HW132863   3.805   1.399   3.332  1.4230 -3.0117 -2.5489
10597SOL    HW232864   3.947   1.446   3.351  0.7254 -1.3448 -1.2070
10598SOL     OW32865   7.947   2.283   3.426 -0.1081  0.0674  0.4000
10598SOL    HW132866   8.041   2.274   3.416 -0.2674 -0.2694 -0.9693
10598SOL    HW232867   7.919   2.204   3.473 -0.0772 -1.3986 -1.8987
10599SOL     OW32868   0.938   3.353   3.781  0.4797  0.7441  0.7011
10599SOL    HW132869   0.959   3.338   3.688 -0.4421 -1.6315  0.7888
10599SOL    HW232870   1.018   3.331   3.827  0.5422  0.6282  0.5398
10600SOL     OW32871   7.498   6.855   0.939  0.0945 -0.6918 -0.1119
10600SOL    HW132872   7.541   6.770   0.927  2.5192  0.3589  0.6510
10600SOL    HW232873   7.446   6.866   0.860 -2.2777 -3.9184  0.7612
10601SOL     OW32874   0.497   4.260   2.579 -0.6889 -0.1688 -0.3770
10601SOL    HW132875   0.521   4.352   2.585  1.0568 -0.6098 -0.1825
10601SOL    HW232876   0.502   4.228   2.670 -1.3529 -0.4464 -0.4317
10602SOL     OW32877   7.348   1.597   2.586  0.3021  0.2660 -0.6514
10602SOL    HW132878   7.302   1.619   2.505  0.9364  0.5070 -0.9572
10602SOL    HW232879   7.377   1.682   2.620 -2.3706  0.5233  1.3464
10603SOL     OW32880   5.302   7.821   2.323 -0.2197  0.7452 -0.2599
10603SOL    HW132881   5.346   7.870   2.253 -1.9345 -0.1596 -2.0813
10603SOL    HW232882   5.258   7.889   2.375  1.2673  1.4535  0.1123
10604SOL     OW32883   5.954   1.945   7.211 -0.3193  0.3720  0.3228
10604SOL    HW132884   6.016   1.873   7.221 -1.2353 -0.1294  3.2384
10604SOL    HW232885   5.887   1.911   7.152  0.2623 -0.4560  0.1252
10605SOL     OW32886   0.982   3.423   0.482 -0.1896  0.3216 -0.4400
10605SOL    HW132887   0.947   3.334   0.473 -1.9396  1.0379 -1.1541
10605SOL    HW232888   0.984   3.438   0.577 -0.9875 -0.0791 -0.3519
10606SOL     OW32889   6.586   5.235   6.938 -0.2292 -0.2787  0.3481
10606SOL    HW132890   6.507   5.286   6.917  0.3839  0.5426 -0.0265
10606SOL    HW232891   6.610   5.193   6.855  0.1101  0.0325  0.2832
10607SOL     OW32892   1.873   6.485   2.936 -0.0459  0.3137 -0.0312
10607SOL    HW132893   1.793   6.439   2.911  0.7404 -1.9470  1.3047
10607SOL    HW232894   1.853   6.525   3.021 -0.5967  2.2417 -1.0040
10608SOL     OW32895   1.145   0.383   4.425  0.0890 -0.3374  0.2967
10608SOL    HW132896   1.163   0.293   4.396 -0.1414  0.4725 -2.7379
10608SOL    HW232897   1.063   0.406   4.381  0.5838  1.6171  0.2928
10609SOL     OW32898   4.569   7.686   3.082  0.5054 -0.2955  0.4617
10609SOL    HW132899   4.613   7.618   3.031 -2.3426 -2.1417  0.2353
10609SOL    HW232900   4.607   7.679   3.170  0.6142 -1.8874  0.3133
10610SOL     OW32901   4.350   0.515   3.942  0.0348  0.2422  0.0957
10610SOL    HW132902   4.354   0.599   3.897 -0.4579  0.5025  0.5318
10610SOL    HW232903   4.309   0.456   3.878 -1.1990  0.7460  0.3775
10611SOL     OW32904   0.174   7.246   1.282 -0.0283 -0.2933  0.2505
10611SOL    HW132905   0.217   7.315   1.232 -1.1130 -0.2312 -0.6453
10611SOL    HW232906   0.109   7.291   1.335  2.9643  0.0034  4.0269
10612SOL     OW32907   6.060   1.022   3.268  0.5343 -0.1250 -0.0974
10612SOL    HW132908   6.120   1.046   3.198  1.3808  0.0557  0.6785
10612SOL    HW232909   6.019   0.941   3.237 -1.0239  1.2587 -1.9362
10613SOL     OW32910   5.067   4.965   6.733  0.2358  0.7345 -0.3977
10613SOL    HW132911   5.078   5.051   6.691 -0.2860  0.9534 -0.0919
10613SOL    HW232912   5.156   4.939   6.756  0.4670  0.8838 -1.1056
10614SOL     OW32913   3.482   7.361   0.552 -0.1682 -0.8247  0.5543
10614SOL    HW132914   3.508   7.309   0.476 -1.7508 -0.9931  0.0802
10614SOL    HW232915   3.483   7.299   0.625  3.2403 -0.2529  1.1737
10615SOL     OW32916   3.773   7.263   4.015 -0.1788  0.0555  0.2036
10615SOL    HW132917   3.722   7.263   3.934 -1.1425 -1.7015  0.7658
10615SOL    HW232918   3.849   7.209   3.997 -0.3337 -0.2408  0.4314
10616SOL     OW32919   2.362   6.286   5.685 -0.1465  0.7528 -0.2972
10616SOL    HW132920   2.382   6.264   5.776  1.3142  0.3512 -0.6837
10616SOL    HW232921   2.413   6.223   5.634 -2.7484 -0.5947 -1.4185
10617SOL     OW32922   4.939   0.203   6.458  0.2033  0.1580  0.9472
10617SOL    HW132923   4.916   0.252   6.536  0.1085 -2.0583  2.4008
10617SOL    HW232924   4.864   0.215   6.399 -0.1682  1.0423  1.5815
10618SOL     OW32925   1.676   1.380   1.070 -0.2501  0.8272 -0.0036
10618SOL    HW132926   1.589   1.372   1.110  0.6898  0.3465  2.0662
10618SOL    HW232927   1.724   1.304   1.101  0.4486  0.1267 -2.5420
10619SOL     OW32928   0.043   0.083   7.964  0.2527 -0.6146  0.6374
10619SOL    HW132929   0.124   0.127   7.940 -0.5199  0.5121 -0.0184
10619SOL    HW232930  -0.025   0.128   7.913 -0.9025 -0.9754  1.8012
10620SOL     OW32931   2.169   6.730   1.039  0.0835 -0.1884 -0.6672
10620SOL    HW132932   2.128   6.650   1.070 -0.3900 -0.3705 -1.7219
10620SOL    HW232933   2.101   6.796   1.045  0.5318  0.1937  0.3885
10621SOL     OW32934   4.633   6.924   4.842 -0.0392 -0.4334  0.3614
10621SOL    HW132935   4.629   7.016   4.868  0.5202 -0.3319  0.1103
10621SOL    HW232936   4.655   6.926   4.749 -0.9502 -0.8103  0.1290
10622SOL     OW32937   6.829   8.138   7.036 -0.1759 -0.4708  0.0613
10622SOL    HW132938   6.864   8.129   7.125 -0.0472  1.7507  0.2825
10622SOL    HW232939   6.906   8.154   6.981 -0.5093  1.9846  0.1869
10623SOL     OW32940   5.692   0.608   0.557 -0.2894 -0.3784  0.3273
10623SOL    HW132941   5.717   0.548   0.486  1.2722 -1.3922  1.6508
10623SOL    HW232942   5.745   0.686   0.542 -2.9313  1.1790 -1.8862
10624SOL     OW32943   6.046   3.874   4.635 -0.1074 -0.0810 -0.3992
10624SOL    HW132944   6.049   3.778   4.643  1.2481 -0.1817 -1.6372
10624SOL    HW232945   6.136   3.902   4.650 -0.6044  1.0827  0.5508
10625SOL     OW32946   5.968   0.999   0.121  0.4653 -0.4355 -0.0377
10625SOL    HW132947   5.897   1.029   0.065  1.5624  2.3064 -0.1221
10625SOL    HW232948   6.043   0.989   0.062  0.9730 -0.0249  0.5167
10626SOL     OW32949   3.023   7.335   3.945  0.2536 -0.2630  0.6291
10626SOL    HW132950   3.075   7.393   3.889  0.1093  0.1911  0.9514
10626SOL    HW232951   3.087   7.277   3.985  0.6437  0.8326  1.6619
10627SOL     OW32952   6.821   3.334   4.697 -0.0519 -0.2173 -0.1275
10627SOL    HW132953   6.766   3.400   4.656 -1.3491 -0.6801  0.8034
10627SOL    HW232954   6.771   3.253   4.689  0.2201 -0.5429  1.2594
10628SOL     OW32955   0.529   7.784   5.883 -0.5663 -0.3134 -0.4337
10628SOL    HW132956   0.460   7.803   5.820 -0.6196  0.8283 -0.0539
10628SOL    HW232957   0.510   7.842   5.957 -1.1161 -2.3497  1.1027
10629SOL     OW32958   7.932   4.704   2.176 -0.2000  0.1533 -0.6755
10629SOL    HW132959   7.965   4.691   2.265 -1.4724  1.3805  0.0148
10629SOL    HW232960   7.981   4.779   2.143 -1.3909  1.2243 -0.0874
10630SOL     OW32961   0.176   7.476   4.019  0.1499  0.2549 -0.0660
10630SOL    HW132962   0.213   7.441   4.100 -0.5444  0.2350  0.2475
10630SOL    HW232963   0.136   7.401   3.976  1.0693  0.1354 -0.7567
10631SOL     OW32964   5.874   2.985   7.492  0.1693  0.0996  0.4370
10631SOL    HW132965   5.780   2.978   7.510 -0.0269 -0.9548 -0.8530
10631SOL    HW232966   5.896   2.903   7.449  1.3932  0.9038 -0.5410
10632SOL     OW32967   6.589   7.980   3.459 -0.1909 -0.1841  0.5130
10632SOL    HW132968   6.495   7.964   3.461 -0.1889 -0.5151 -0.8675
10632SOL    HW232969   6.597   8.075   3.457 -0.5553 -0.1599 -0.4896
10633SOL     OW32970   6.950   6.037   5.866 -0.1096  0.0065 -0.3604
10633SOL    HW132971   6.952   6.113   5.924  2.1749  0.3179 -0.7248
10633SOL    HW232972   7.014   5.976   5.904 -1.2266 -1.3701 -0.5839
10634SOL     OW32973   1.563   0.711   2.973  0.6953 -0.5144 -0.3720
10634SOL    HW132974   1.555   0.620   2.945 -0.9703 -0.8412  0.9706
10634SOL    HW232975   1.559   0.707   3.068 -2.2446  1.0861 -0.2800
10635SOL     OW32976   6.348   7.115   3.092 -0.0196  0.4186  0.5179
10635SOL    HW132977   6.286   7.188   3.084  0.1137  0.6898  1.7321
10635SOL    HW232978   6.413   7.146   3.155 -0.0909 -0.8295  1.2361
10636SOL     OW32979   2.770   3.206   0.680 -0.0754  0.2175  0.1834
10636SOL    HW132980   2.790   3.127   0.730  4.2601  0.0500 -1.3917
10636SOL    HW232981   2.746   3.175   0.593  0.5384  0.5643 -0.1206
10637SOL     OW32982   0.127   1.034   5.403  0.5174  0.1121  0.0691
10637SOL    HW132983   0.092   0.977   5.471 -0.3768 -0.0351 -0.4967
10637SOL    HW232984   0.151   1.115   5.449 -0.7283  0.2812  0.4672
10638SOL     OW32985   2.750   4.392   1.393 -0.2681  0.2242 -0.0741
10638SOL    HW132986   2.712   4.441   1.320 -1.0872 -1.3176 -0.7295
10638SOL    HW232987   2.827   4.443   1.418 -1.3289  2.0605 -0.4044
10639SOL     OW32988   6.738   3.507   6.052  0.5382  0.6857  0.1214
10639SOL    HW132989   6.729   3.512   5.956 -0.5602  0.8952  0.2168
10639SOL    HW232990   6.738   3.413   6.071 -0.7456  0.6399  0.0111
10640SOL     OW32991   2.122   1.330   6.977  0.5640 -0.2022 -0.3580
10640SOL    HW132992   2.114   1.421   7.005 -2.5345 -0.4123 -0.2668
10640SOL    HW232993   2.179   1.334   6.900 -0.0944  1.9379 -0.8107
10641SOL     OW32994   3.024   4.467   8.140  0.4475  0.1102 -0.7509
10641SOL    HW132995   3.101   4.466   8.084  0.2204 -0.2556 -1.0641
10641SOL    HW232996   3.055   4.436   8.225  0.4316 -1.1031 -1.1702
10642SOL     OW32997   2.581   7.319   5.308  0.4732  0.2841  0.3419
10642SOL    HW132998   2.549   7.233   5.336  1.4317  0.4523  2.0523
10642SOL    HW232999   2.534   7.336   5.226 -1.3378 -0.8961  1.0730
10643SOL     OW33000   6.162   1.509   4.033 -0.2457  0.0561 -0.2474
10643SOL    HW133001   6.181   1.427   4.078 -1.1158  0.4744  0.9499
10643SOL    HW233002   6.124   1.483   3.949 -1.3547 -0.8031  0.4866
10644SOL     OW33003   8.118   3.080   7.643 -0.1419 -0.0093 -1.3425
10644SOL    HW133004   8.065   3.010   7.604  0.8921  0.1498 -3.1607
10644SOL    HW233005   8.073   3.102   7.724 -3.4412  0.7612 -3.1956
10645SOL     OW33006   3.424   4.094   3.081 -0.3717 -0.1659  0.7584
10645SOL    HW133007   3.491   4.152   3.044 -0.9588 -0.0518 -0.1467
10645SOL    HW233008   3.347   4.150   3.092 -0.7689 -0.6372  0.4090
10646SOL     OW33009   4.184   5.113   6.116 -0.2258 -0.2634 -0.0009
10646SOL    HW133010   4.273   5.147   6.130 -0.0023 -0.8037 -0.0785
10646SOL    HW233011   4.149   5.103   6.205  0.6303 -2.2078  0.1787
10647SOL     OW33012   0.790   7.829   0.343 -0.1458 -0.4337  0.1720
10647SOL    HW133013   0.792   7.818   0.438 -0.8785 -1.9453  0.0384
10647SOL    HW233014   0.802   7.741   0.308  0.7915  0.1926 -1.1620
10648SOL     OW33015   3.308   0.970   3.372  0.2926 -0.3014 -0.6305
10648SOL    HW133016   3.300   1.059   3.407  0.0986 -0.7000  0.3599
10648SOL    HW233017   3.397   0.943   3.395 -0.1686 -0.9340  0.4573
10649SOL     OW33018   3.507   2.268   3.547 -0.3839  0.1341  0.3219
10649SOL    HW133019   3.422   2.313   3.549  0.2496  1.3992  2.5798
10649SOL    HW233020   3.569   2.335   3.520  0.1733 -0.1656  0.8255
10650SOL     OW33021   3.942   7.956   2.510 -0.2892 -0.1340  0.1885
10650SOL    HW133022   3.893   8.021   2.460  0.9486  1.0987  0.5160
10650SOL    HW233023   3.892   7.946   2.592  0.2589  1.5471  0.7764
10651SOL     OW33024   1.504   1.573   3.556 -0.1714  0.1594  0.2421
10651SOL    HW133025   1.524   1.585   3.463  0.7241 -0.0650  0.3997
10651SOL    HW233026   1.412   1.600   3.564 -0.5755 -0.7625 -0.8944
10652SOL     OW33027   3.819   2.961   2.315 -0.0138  0.0914  0.2450
10652SOL    HW133028   3.749   2.913   2.359  1.3927 -1.8230  0.5568
10652SOL    HW233029   3.841   2.906   2.239  1.1071  0.6513  0.1366
10653SOL     OW33030   3.174   3.174   5.656 -0.1122  0.0793  0.4523
10653SOL    HW133031   3.255   3.225   5.661 -1.2588  1.8288  3.0000
10653SOL    HW233032   3.118   3.224   5.595  0.3142 -0.5894 -0.5162
10654SOL     OW33033   1.228   7.250   1.719  0.2258 -0.5826  0.6146
10654SOL    HW133034   1.275   7.180   1.765 -0.9920 -1.3446  0.7530
10654SOL    HW233035   1.189   7.207   1.643 -0.1131  0.0626  0.4124
10655SOL     OW33036   6.436   6.131   0.474 -0.1571  0.0166  0.1942
10655SOL    HW133037   6.388   6.100   0.397 -1.3647 -0.1056  0.9631
10655SOL    HW233038   6.470   6.052   0.515  0.1686  0.0506 -0.0079
10656SOL     OW33039   1.460   8.034   7.976  0.1764 -0.1044  0.7933
10656SOL    HW133040   1.484   8.034   8.069  1.7822 -0.0762  0.3925
10656SOL    HW233041   1.538   8.063   7.930 -0.1765 -1.3505 -0.6882
10657SOL     OW33042   8.131   3.343   5.762 -0.1676  0.4559 -0.3303
10657SOL    HW133043   8.083   3.421   5.735 -0.8564  0.2240  0.1995
10657SOL    HW233044   8.100   3.274   5.704 -2.4594 -0.2978  1.6262
10658SOL     OW33045   3.584   6.302   3.852  0.0291  0.1492 -0.1871
10658SOL    HW133046   3.584   6.206   3.855 -1.8669  0.0678 -1.3515
10658SOL    HW233047   3.600   6.329   3.943 -1.1928 -1.2850  0.4910
10659SOL     OW33048   6.446   7.021   4.323  0.7589 -0.5201  0.2451
10659SOL    HW133049   6.402   7.061   4.247  0.3055 -0.8248  0.3479
10659SOL    HW233050   6.391   6.946   4.346  0.3412  0.1480  1.4992
10660SOL     OW33051   6.404   3.436   6.764 -0.2199 -0.2343  0.0736
10660SOL    HW133052   6.319   3.403   6.793  0.0064 -1.9381 -1.0704
10660SOL    HW233053   6.465   3.409   6.833 -0.3236 -0.5405  0.0439
10661SOL     OW33054   6.582   4.776   7.324  0.0717  0.1450  0.4003
10661SOL    HW133055   6.620   4.719   7.257 -0.9545 -1.0807  0.8174
10661SOL    HW233056   6.658   4.811   7.372  0.7409 -1.3213  0.4801
10662SOL     OW33057   4.169   5.216   0.498 -0.1941  0.5038  0.4129
10662SOL    HW133058   4.219   5.229   0.418  1.6472 -0.2811  1.3805
10662SOL    HW233059   4.204   5.135   0.536 -2.0282  0.0606  1.2891
10663SOL     OW33060   6.683   5.592   2.389  0.2103 -0.2336  0.1138
10663SOL    HW133061   6.631   5.615   2.466 -0.0140  1.6262 -0.5445
10663SOL    HW233062   6.626   5.533   2.338  1.0616 -3.0321  2.1717
10664SOL     OW33063   2.627   4.072   5.011  0.3348 -0.8168 -0.0367
10664SOL    HW133064   2.561   4.047   5.075 -0.8826  0.4712 -0.7453
10664SOL    HW233065   2.609   4.018   4.934  0.0974 -0.4810 -0.2224
10665SOL     OW33066   1.297   1.484   6.041  0.1536  0.5659  0.4320
10665SOL    HW133067   1.268   1.563   5.997  0.9852  0.5408 -0.1962
10665SOL    HW233068   1.245   1.414   6.003  0.9454  0.5293 -0.6324
10666SOL     OW33069   7.857   1.427   0.852 -0.3075 -0.3038 -0.3182
10666SOL    HW133070   7.882   1.511   0.814 -2.1671 -0.6001 -2.3952
10666SOL    HW233071   7.767   1.439   0.880 -0.4874 -1.4988 -0.3197
10667SOL     OW33072   6.209   1.011   3.892  0.8377  0.1915 -0.5009
10667SOL    HW133073   6.293   1.036   3.930 -0.1319  1.2889  1.0495
10667SOL    HW233074   6.176   1.091   3.851 -0.4001  0.3760  0.7865
10668SOL     OW33075   4.821   1.544   2.426  0.4729 -0.1923 -0.1331
10668SOL    HW133076   4.878   1.487   2.375  1.4113  0.6935 -0.0967
10668SOL    HW233077   4.880   1.602   2.472 -0.4807  1.5324 -0.9935
10669SOL     OW33078   3.692   4.140   0.553 -0.2310  0.0012 -0.0010
10669SOL    HW133079   3.665   4.048   0.551  0.2165 -0.3030  3.2000
10669SOL    HW233080   3.640   4.179   0.623  1.2764  1.5783  0.2971
10670SOL     OW33081   5.885   7.824   2.004 -0.0373  0.4095  0.1432
10670SOL    HW133082   5.836   7.809   2.085 -0.3127  0.3296 -0.0391
10670SOL    HW233083   5.898   7.919   2.002 -0.8941  0.5261 -0.2189
10671SOL     OW33084   7.851   3.010   5.341  0.6027  0.0756  0.3224
10671SOL    HW133085   7.761   3.025   5.312  1.0092  3.6049  0.4016
10671SOL    HW233086   7.846   3.009   5.437  0.6636  0.4225  0.3293
10672SOL     OW33087   0.019   5.959   3.955  0.0794 -0.1808 -0.1355
10672SOL    HW133088  -0.044   5.887   3.957  0.2221 -0.3778 -1.6169
10672SOL    HW233089  -0.024   6.027   3.902  0.0888  0.7060  0.9499
10673SOL     OW33090   8.112   7.126   3.938  0.6986 -0.1091 -0.3499
10673SOL    HW133091   8.080   7.155   3.852 -0.4073  0.5166  0.2432
10673SOL    HW233092   8.186   7.069   3.918  1.8058  1.6624 -1.6607
10674SOL     OW33093   3.203   3.027   2.093  0.5991  0.5517  0.1398
10674SOL    HW133094   3.159   3.072   2.021 -3.0935 -2.3100  0.3157
10674SOL    HW233095   3.212   3.094   2.161 -1.8095  1.8454 -0.6927
10675SOL     OW33096   0.019   5.355   3.643  0.4592  0.0591 -0.1136
10675SOL    HW133097   0.070   5.277   3.625 -0.3506 -0.7813  1.1144
10675SOL    HW233098   0.002   5.393   3.557  3.5998  0.7172 -0.5653
10676SOL     OW33099   7.688   6.917   6.417 -0.4882  0.2969  0.0379
10676SOL    HW133100   7.772   6.935   6.460 -0.2869 -0.6046  0.0405
10676SOL    HW233101   7.629   6.895   6.489 -0.8086  1.1981  0.0611
10677SOL     OW33102   0.364   3.414   3.506 -0.5574  0.1121 -0.5557
10677SOL    HW133103   0.441   3.363   3.480 -0.4754  0.8433 -1.8483
10677SOL    HW233104   0.355   3.480   3.437 -2.2706  0.1213 -0.3646
10678SOL     OW33105   0.765   7.378   3.462 -0.0871 -0.2145 -0.0058
10678SOL    HW133106   0.777   7.388   3.368  0.9542  1.4937  0.2663
10678SOL    HW233107   0.687   7.429   3.483 -1.3228 -1.9658 -0.1397
10679SOL     OW33108   3.093   3.485   1.390 -0.2012  0.4366  1.0304
10679SOL    HW133109   3.179   3.454   1.419 -0.3949 -0.4493  0.7093
10679SOL    HW233110   3.038   3.478   1.468 -0.5947 -1.4525  0.6515
10680SOL     OW33111   1.960   2.171   6.652 -0.3798  0.0398 -0.1489
10680SOL    HW133112   2.045   2.137   6.622 -1.0913 -0.1432 -2.0815
10680SOL    HW233113   1.921   2.098   6.700 -0.0585 -0.3784 -0.5152
10681SOL     OW33114   7.656   6.608   0.873 -0.1868  0.0065  0.3471
10681SOL    HW133115   7.629   6.585   0.962 -1.0612  0.6169  0.2504
10681SOL    HW233116   7.674   6.523   0.831 -2.6529 -0.5260  0.2117
10682SOL     OW33117   5.218   1.935   0.175  0.6382 -0.0488 -0.4859
10682SOL    HW133118   5.292   1.984   0.140  1.6851 -0.3771  1.1676
10682SOL    HW233119   5.253   1.849   0.196  0.4567  0.4855  2.4393
10683SOL     OW33120   1.658   6.718   6.106  0.2596 -0.3109 -0.0838
10683SOL    HW133121   1.664   6.658   6.031  1.2326  2.0708 -2.0273
10683SOL    HW233122   1.747   6.748   6.120 -0.2936  1.1497  0.4500
10684SOL     OW33123   5.387   1.053   1.193  0.0508 -0.2634  0.9889
10684SOL    HW133124   5.445   1.002   1.249 -0.6302 -2.6960 -0.3387
10684SOL    HW233125   5.336   0.987   1.145  0.8117  1.5662 -2.7148
10685SOL     OW33126   3.414   2.640   1.024 -0.2788  0.2546  0.1895
10685SOL    HW133127   3.418   2.613   0.932  2.0516  0.1545  0.2604
10685SOL    HW233128   3.373   2.726   1.022 -1.5729 -0.3428 -0.7563
10686SOL     OW33129   4.654   2.224   2.470 -0.0381  0.2848  0.7153
10686SOL    HW133130   4.720   2.169   2.513  0.9854  0.9301  0.0361
10686SOL    HW233131   4.705   2.295   2.430 -1.0394  0.2742 -0.6654
10687SOL     OW33132   5.645   4.108   8.101 -0.3056 -0.0916 -0.6740
10687SOL    HW133133   5.677   4.089   8.189 -0.6581 -0.0824 -0.5439
10687SOL    HW233134   5.638   4.022   8.059  2.4501  0.0374 -1.6205
10688SOL     OW33135   7.744   6.709   6.971  0.1867  0.7876  0.6307
10688SOL    HW133136   7.758   6.615   6.986  0.3816  0.8672  0.9674
10688SOL    HW233137   7.738   6.747   7.059  0.0641  1.0851  0.4961
10689SOL     OW33138   1.608   2.967   4.720  0.5960  0.2981  0.7048
10689SOL    HW133139   1.540   3.024   4.685  0.2665 -0.2152  0.4915
10689SOL    HW233140   1.564   2.883   4.734  1.1675 -0.0232  0.6111
10690SOL     OW33141   6.762   3.400   2.542  0.3859 -0.1622 -0.1535
10690SOL    HW133142   6.816   3.439   2.611 -1.0251  1.4421  0.1117
10690SOL    HW233143   6.820   3.337   2.499  1.1532 -1.6883  2.8328
10691SOL     OW33144   1.429   3.304   1.140  1.0163 -0.3600  0.8263
10691SOL    HW133145   1.407   3.218   1.103 -2.6126 -0.0711  1.9086
10691SOL    HW233146   1.353   3.327   1.194  1.4663  3.8770  0.0152
10692SOL     OW33147   1.417   1.882   4.211 -0.3758 -0.0704 -0.7137
10692SOL    HW133148   1.404   1.937   4.289 -1.8784 -1.1616 -0.1500
10692SOL    HW233149   1.490   1.825   4.235  0.8368  1.2474 -1.0997
10693SOL     OW33150   6.174   2.614   5.133 -0.7478  0.1082 -0.5167
10693SOL    HW133151   6.182   2.525   5.100  0.8486  0.2295 -0.5704
10693SOL    HW233152   6.265   2.642   5.148 -1.2896  0.9691  1.5576
10694SOL     OW33153   7.413   6.614   6.587  0.3542  0.1602  0.5253
10694SOL    HW133154   7.417   6.709   6.586 -0.4670  0.2039 -0.6019
10694SOL    HW233155   7.430   6.590   6.678  0.1557  1.4087  0.9048
10695SOL     OW33156   6.878   6.939   6.774 -0.0829  0.6039  0.4572
10695SOL    HW133157   6.947   6.938   6.707 -0.2664 -0.4981  0.2530
10695SOL    HW233158   6.805   6.986   6.733 -0.2055 -0.0920 -0.1503
10696SOL     OW33159   3.342   4.055   6.598  0.2190  0.1033 -1.0414
10696SOL    HW133160   3.372   3.969   6.568 -0.4152  0.0888 -1.6539
10696SOL    HW233161   3.316   4.101   6.518 -0.9842  0.2702 -0.5780
10697SOL     OW33162   6.819   4.622   7.216 -0.4762 -0.3364  0.5411
10697SOL    HW133163   6.854   4.579   7.294  0.4942  1.1436  0.9564
10697SOL    HW233164   6.794   4.549   7.158  3.3728 -1.6332  0.1624
10698SOL     OW33165   4.547   6.290   2.103 -0.2737 -0.3998  0.2091
10698SOL    HW133166   4.489   6.275   2.178 -0.2208 -1.2939  0.0789
10698SOL    HW233167   4.603   6.214   2.100 -0.4544 -0.5126 -0.9078
10699SOL     OW33168   2.481   7.038   0.709 -0.1572 -0.4201  0.3558
10699SOL    HW133169   2.411   6.983   0.672 -1.2133  0.7673  0.5331
10699SOL    HW233170   2.441   7.079   0.786  0.6602  0.4404  0.3333
10700SOL     OW33171   7.650   4.603   6.620 -0.1015 -0.3094 -0.2192
10700SOL    HW133172   7.614   4.529   6.669  0.6644 -0.9354 -0.5782
10700SOL    HW233173   7.729   4.628   6.668 -1.2533  1.4142  0.8736
10701SOL     OW33174   3.209   4.250   3.044  0.0920  0.0043 -0.5508
10701SOL    HW133175   3.122   4.246   3.083 -0.0737  1.1499 -0.7840
10701SOL    HW233176   3.194   4.232   2.951 -0.0276  1.0964 -0.7529
10702SOL     OW33177   0.802   5.497   6.404  0.5074 -0.3544  0.4264
10702SOL    HW133178   0.714   5.533   6.413  0.8475  0.3387  1.1576
10702SOL    HW233179   0.853   5.542   6.472  2.0315  1.1127 -1.5791
10703SOL     OW33180   6.181   0.515   3.239 -0.7777  0.2883  0.4891
10703SOL    HW133181   6.164   0.463   3.160  0.6505 -0.0246  0.3591
10703SOL    HW233182   6.276   0.510   3.251 -1.0075 -0.0008  2.4826
10704SOL     OW33183   0.055   0.270   6.153  0.2105  0.6401 -0.0021
10704SOL    HW133184   0.058   0.241   6.062  0.8296 -1.0648  0.5232
10704SOL    HW233185   0.138   0.315   6.167  0.3576  0.4124 -0.1309
10705SOL     OW33186   1.199   0.570   7.901 -0.0862  0.0872  0.3722
10705SOL    HW133187   1.201   0.586   7.995  1.3092 -0.5418  0.4738
10705SOL    HW233188   1.247   0.643   7.862 -0.4470  0.2177  0.1658
10706SOL     OW33189   3.473   5.418   2.203 -0.3164 -0.1412  0.4942
10706SOL    HW133190   3.473   5.466   2.285  1.4494  0.9152 -0.0799
10706SOL    HW233191   3.442   5.481   2.138  0.3133 -0.3063  0.0194
10707SOL     OW33192   0.602   3.205   4.969 -0.4359  0.0359 -0.0842
10707SOL    HW133193   0.687   3.215   5.011  0.2908  1.1543 -1.6972
10707SOL    HW233194   0.620   3.154   4.890 -0.9546  1.5614 -1.2337
10708SOL     OW33195   1.028   1.726   6.648 -0.3885 -0.3823 -0.6046
10708SOL    HW133196   0.986   1.662   6.705  0.4049  1.0224  1.7073
10708SOL    HW233197   1.119   1.731   6.679 -1.1351  4.1058  1.6436
10709SOL     OW33198   7.998   1.181   7.424  0.0673 -0.1067 -0.6869
10709SOL    HW133199   8.007   1.117   7.494 -1.1651  0.2220 -0.2079
10709SOL    HW233200   7.974   1.262   7.468 -3.9072 -0.5745 -1.5731
10710SOL     OW33201   7.399   7.510   3.067 -0.5186  0.1398 -0.2952
10710SOL    HW133202   7.369   7.534   3.155 -1.0981 -1.7176  0.0571
10710SOL    HW233203   7.381   7.587   3.013  1.0724  1.8253  1.4431
10711SOL     OW33204   4.211   5.600   7.164 -0.5717  0.4882 -0.0281
10711SOL    HW133205   4.176   5.627   7.249 -0.8652  1.5194 -0.4664
10711SOL    HW233206   4.171   5.515   7.147 -1.2544  0.7123  0.4302
10712SOL     OW33207   5.655   6.569   6.036 -0.1999  0.0309  0.0618
10712SOL    HW133208   5.597   6.535   6.104 -0.9753 -0.4119 -0.8020
10712SOL    HW233209   5.611   6.548   5.954  1.4464 -0.8119 -0.6451
10713SOL     OW33210   6.090   6.572   4.757  0.3610  0.0463  0.2404
10713SOL    HW133211   6.048   6.609   4.679 -0.0044 -1.7414 -0.4600
10713SOL    HW233212   6.173   6.538   4.725  0.0929 -0.9325  0.5507
10714SOL     OW33213   6.666   3.784   1.315 -0.0009 -0.2056 -1.1850
10714SOL    HW133214   6.662   3.851   1.383 -0.1187 -1.7313  0.3910
10714SOL    HW233215   6.580   3.788   1.273 -0.2144  0.2355 -0.7178
10715SOL     OW33216   3.192   7.446   7.258  0.0367 -0.2671  0.3367
10715SOL    HW133217   3.135   7.392   7.312 -0.9542  0.4193  0.0109
10715SOL    HW233218   3.143   7.527   7.246  1.0021  0.2622 -0.1296
10716SOL     OW33219   5.111   2.526   0.637 -0.3243  0.1531  0.1985
10716SOL    HW133220   5.141   2.606   0.594  0.1923 -0.9608 -1.5930
10716SOL    HW233221   5.110   2.460   0.568 -0.3928 -1.4949  1.7027
10717SOL     OW33222   3.951   8.135   6.112 -0.1862 -0.3850 -0.7974
10717SOL    HW133223   3.886   8.192   6.152  0.3115  0.4063 -1.1004
10717SOL    HW233224   3.958   8.166   6.022  3.7949  2.5629  0.2278
10718SOL     OW33225   6.769   7.069   5.659 -0.4921 -0.5854  0.0951
10718SOL    HW133226   6.710   7.128   5.611  1.5646  0.9459 -0.7361
10718SOL    HW233227   6.832   7.040   5.594 -0.6662 -2.7473  0.8015
10719SOL     OW33228   4.733   5.762   6.560  0.3984 -0.0038  0.5815
10719SOL    HW133229   4.719   5.806   6.476 -0.7530  1.1420  1.3324
10719SOL    HW233230   4.721   5.669   6.541  1.2838  0.1259 -0.7384
10720SOL     OW33231   1.989   2.664   1.243 -0.5225 -0.4287  0.0588
10720SOL    HW133232   1.906   2.621   1.223 -0.7659  1.2810 -3.3775
10720SOL    HW233233   1.980   2.752   1.206  2.0313  0.6219  1.6335
10721SOL     OW33234   6.288   1.795   7.887 -0.5552  0.1224 -0.1984
10721SOL    HW133235   6.218   1.731   7.875 -0.2021 -0.1449 -0.9060
10721SOL    HW233236   6.338   1.792   7.805 -0.9787  1.8588 -0.5728
10722SOL     OW33237   3.965   4.363   1.243 -0.0256 -0.0028 -0.6350
10722SOL    HW133238   3.871   4.368   1.226 -0.4150 -0.0478  1.2111
10722SOL    HW233239   3.998   4.302   1.178 -1.2172  0.2312 -1.5022
10723SOL     OW33240   1.963   3.704   7.437  1.1552  0.1756 -0.8095
10723SOL    HW133241   1.945   3.742   7.351 -1.1157 -2.1352 -1.5079
10723SOL    HW233242   2.002   3.619   7.417  0.3727 -0.4921  0.4050
10724SOL     OW33243   4.350   2.746   1.173 -0.2692  0.9724  0.1818
10724SOL    HW133244   4.373   2.710   1.087 -1.2885 -1.1237  0.7183
10724SOL    HW233245   4.301   2.676   1.216  0.2734  1.9272  2.5213
10725SOL     OW33246   6.446   2.408   2.715 -0.5559  0.5738 -0.2164
10725SOL    HW133247   6.394   2.473   2.763 -1.4499  1.0534 -1.7836
10725SOL    HW233248   6.497   2.364   2.783 -1.7220  1.2754  1.1675
10726SOL     OW33249   3.330   0.839   5.639  0.8043  0.1676 -0.7097
10726SOL    HW133250   3.395   0.810   5.703  1.2399 -0.1506 -1.2846
10726SOL    HW233251   3.279   0.906   5.685  0.6314 -0.5794  0.2103
10727SOL     OW33252   7.158   4.941   0.366  0.0503  0.7363  0.7001
10727SOL    HW133253   7.152   5.032   0.336  2.4842  1.3104  1.6966
10727SOL    HW233254   7.182   4.891   0.288 -0.4453  1.0678  0.3247
10728SOL     OW33255   7.702   0.484   6.911 -0.9315  0.1225  0.3168
10728SOL    HW133256   7.656   0.504   6.829 -1.0380 -0.9413  0.0961
10728SOL    HW233257   7.762   0.557   6.924 -1.6032  0.7771 -0.1999
10729SOL     OW33258   5.012   1.100   8.123 -0.3875  0.2944 -0.7384
10729SOL    HW133259   5.067   1.036   8.078  1.6582  0.9422  0.7075
10729SOL    HW233260   4.963   1.049   8.187  0.6073  0.0126 -0.1720
10730SOL     OW33261   8.021   4.527   1.904 -0.6670 -0.0602  0.2062
10730SOL    HW133262   7.999   4.452   1.848  0.1767 -1.2313  1.3555
10730SOL    HW233263   8.116   4.532   1.900 -0.7464  1.2844 -0.2357
10731SOL     OW33264   4.839   2.765   8.006 -0.0351 -0.4872  0.0673
10731SOL    HW133265   4.765   2.712   7.975  1.1595 -3.0130  1.2047
10731SOL    HW233266   4.907   2.753   7.940  0.3661 -0.7226  0.5078
10732SOL     OW33267   7.187   0.828   6.660  0.4953  0.1778  0.0243
10732SOL    HW133268   7.245   0.790   6.594  1.3029  0.8465  0.3315
10732SOL    HW233269   7.207   0.780   6.740 -0.7363 -0.8746 -0.2734
10733SOL     OW33270   4.814   0.834   7.392 -0.1454 -0.2535  0.2523
10733SOL    HW133271   4.881   0.896   7.363 -1.7819  1.9305  0.8602
10733SOL    HW233272   4.738   0.889   7.413 -1.6123 -2.4668  1.1104
10734SOL     OW33273   0.361   5.609   2.718  0.3638  0.5612 -0.3340
10734SOL    HW133274   0.325   5.521   2.709 -0.7302  0.9650 -0.1560
10734SOL    HW233275   0.453   5.601   2.692  1.0936 -1.2227  2.3683
10735SOL     OW33276   0.014   2.392   2.021 -0.3280 -0.3402  0.1181
10735SOL    HW133277  -0.022   2.343   1.947 -0.5863 -3.6394  2.2396
10735SOL    HW233278   0.104   2.411   1.997 -0.6393 -0.6254 -1.3425
10736SOL     OW33279   1.785   7.562   7.686 -0.8367 -0.3254 -0.1105
10736SOL    HW133280   1.734   7.524   7.757  0.0196 -0.9794  0.1705
10736SOL    HW233281   1.874   7.530   7.699 -0.6600 -0.4927 -1.4979
10737SOL     OW33282   5.853   4.896   5.751 -0.0784 -0.2223  0.1242
10737SOL    HW133283   5.935   4.867   5.790 -0.9413 -1.4138  1.1315
10737SOL    HW233284   5.853   4.859   5.663  0.6581  0.1841 -0.0530
10738SOL     OW33285   5.423   1.579   0.862  0.1805  0.4210  0.1858
10738SOL    HW133286   5.446   1.671   0.875 -0.7027  0.6768  0.0001
10738SOL    HW233287   5.342   1.582   0.810  0.5703 -0.4747 -0.4786
10739SOL     OW33288   3.127   4.787   1.390  0.7772 -0.4757 -0.3238
10739SOL    HW133289   3.175   4.856   1.344  2.9658 -0.7283  1.4404
10739SOL    HW233290   3.046   4.829   1.417  1.1417  0.7764 -1.0902
10740SOL     OW33291   5.381   3.616   3.895 -0.1093 -0.3640 -1.2316
10740SOL    HW133292   5.349   3.681   3.832  0.7538  2.3592  0.9657
10740SOL    HW233293   5.303   3.590   3.944 -0.2655 -0.0984 -1.3357
10741SOL     OW33294   5.486   3.325   7.533  0.0862  0.0142 -0.1100
10741SOL    HW133295   5.407   3.281   7.564  1.2568 -0.2948  2.7191
10741SOL    HW233296   5.535   3.256   7.488  0.2338 -0.6599  1.0538
10742SOL     OW33297   1.217   5.446   7.318 -0.1818  0.0242 -0.0861
10742SOL    HW133298   1.252   5.362   7.350 -0.3719  0.4482  1.2670
10742SOL    HW233299   1.244   5.510   7.384  1.0356  1.2807 -1.7017
10743SOL     OW33300   5.612   1.102   2.034  0.4782 -0.2228  0.2998
10743SOL    HW133301   5.573   1.125   1.950 -0.3704  1.2641  1.0640
10743SOL    HW233302   5.706   1.095   2.016  0.2875 -0.1654 -0.7997
10744SOL     OW33303   2.356   1.108   4.757  0.0382 -0.3510 -0.5874
10744SOL    HW133304   2.293   1.036   4.760 -0.6415  0.2504  0.1070
10744SOL    HW233305   2.309   1.180   4.717 -0.3224  0.6328  1.4605
10745SOL     OW33306   3.004   5.273   7.831  0.1219 -0.1466  0.2909
10745SOL    HW133307   3.054   5.244   7.907 -0.2017 -0.2022  0.4829
10745SOL    HW233308   3.013   5.368   7.831 -1.8955  0.1282  1.8447
10746SOL     OW33309   0.406   4.981   0.755  0.3654  1.0403  0.2482
10746SOL    HW133310   0.364   4.898   0.732  3.0992  0.1614 -2.2604
10746SOL    HW233311   0.345   5.048   0.726 -0.9440 -0.0880  0.2931
10747SOL     OW33312   4.911   5.404   5.656 -0.6117 -0.3591  0.2967
10747SOL    HW133313   4.964   5.325   5.660  0.2909  0.2232  0.0195
10747SOL    HW233314   4.857   5.392   5.577 -1.2922 -1.1766  0.8586
10748SOL     OW33315   1.767   0.813   2.605 -0.2103  0.4619  0.4458
10748SOL    HW133316   1.843   0.768   2.642 -1.9167 -1.5880  1.7221
10748SOL    HW233317   1.758   0.777   2.517 -0.2286 -0.0067  0.6340
10749SOL     OW33318   2.026   0.618   2.565  0.0131 -0.1975  0.1088
10749SOL    HW133319   2.105   0.613   2.511  1.7982 -0.4460  2.5394
10749SOL    HW233320   1.957   0.584   2.509  1.9926 -1.8557 -1.5312
10750SOL     OW33321   0.243   5.810   1.684 -0.1943 -0.0861 -0.0867
10750SOL    HW133322   0.245   5.842   1.774 -1.6281 -0.8853  0.2457
10750SOL    HW233323   0.296   5.874   1.636  0.2749  0.5719  1.2361
10751SOL     OW33324   5.021   3.605   1.431 -0.3436 -0.5487  0.3405
10751SOL    HW133325   4.939   3.640   1.395 -0.3195 -2.2968 -1.6207
10751SOL    HW233326   4.993   3.529   1.482 -0.0263 -0.3226  0.8605
10752SOL     OW33327   2.107   3.660   6.600  0.2642 -0.1367 -0.0080
10752SOL    HW133328   2.039   3.620   6.547  1.5063 -2.7798  0.2674
10752SOL    HW233329   2.159   3.712   6.538  0.1213 -1.0186 -0.8764
10753SOL     OW33330   5.047   3.856   7.427  0.1298  0.0466  0.2100
10753SOL    HW133331   5.075   3.908   7.351 -0.7572  0.4177  0.1207
10753SOL    HW233332   5.124   3.805   7.452  0.5646  0.2658 -0.6607
10754SOL     OW33333   2.788   1.430   6.980 -0.0405  0.0842  0.2323
10754SOL    HW133334   2.736   1.508   6.961  0.7030  0.6374  0.4027
10754SOL    HW233335   2.845   1.456   7.052 -0.2098 -0.8171  0.7093
10755SOL     OW33336   4.452   7.199   1.239 -0.1057 -0.5087 -0.7934
10755SOL    HW133337   4.457   7.121   1.184 -0.1080 -0.2535 -1.1582
10755SOL    HW233338   4.455   7.165   1.329 -2.2098 -1.0965 -0.8928
10756SOL     OW33339   4.840   5.377   0.019 -0.0883  0.3009  0.2748
10756SOL    HW133340   4.753   5.416   0.009  0.2926  1.1711  0.2822
10756SOL    HW233341   4.852   5.325  -0.061 -0.0666  1.2610 -0.3564
10757SOL     OW33342   6.687   4.617   7.731  0.1841  0.2907  0.0593
10757SOL    HW133343   6.705   4.525   7.714  0.4582  0.3645 -0.0542
10757SOL    HW233344   6.714   4.629   7.822 -0.7930  0.0228  0.3987
10758SOL     OW33345   5.093   3.926   0.149  0.3119 -0.1875  0.0326
10758SOL    HW133346   5.101   4.020   0.162  0.5029 -0.0794 -0.8436
10758SOL    HW233347   5.026   3.898   0.212  0.0787  0.5674  0.1190
10759SOL     OW33348   5.152   7.081   4.479 -0.4568 -0.0441  0.1525
10759SOL    HW133349   5.209   7.151   4.510  1.6929 -1.1616 -1.0418
10759SOL    HW233350   5.077   7.082   4.539  0.8320  1.4626  1.8299
10760SOL     OW33351   2.383   4.737   4.782  0.6898 -0.0435 -0.3499
10760SOL    HW133352   2.352   4.807   4.723  1.6019  0.2415 -0.4975
10760SOL    HW233353   2.365   4.656   4.733 -1.2522 -0.0135  0.2136
10761SOL     OW33354   1.666   5.267   7.094  0.2073  0.6968 -0.6836
10761SOL    HW133355   1.663   5.181   7.051  1.2404  0.4571 -0.2943
10761SOL    HW233356   1.706   5.249   7.179  0.5717  1.5912 -0.6637
10762SOL     OW33357   3.178   1.949   6.663 -0.2928  0.5130  0.0383
10762SOL    HW133358   3.163   1.869   6.715 -0.1358  0.0567 -0.6053
10762SOL    HW233359   3.243   1.998   6.712 -1.5851  1.0442  1.2991
10763SOL     OW33360   0.312   1.996   5.245 -0.9646 -0.6254  0.2328
10763SOL    HW133361   0.238   2.034   5.292  0.3240  0.4769  1.4701
10763SOL    HW233362   0.386   2.003   5.306  0.4228 -0.6498 -1.3630
10764SOL     OW33363   5.709   2.451   5.155 -0.5161  0.5987  0.3963
10764SOL    HW133364   5.652   2.441   5.079  1.0841  0.1999 -0.7901
10764SOL    HW233365   5.727   2.545   5.159 -0.2870  0.5692  0.0454
10765SOL     OW33366   0.978   0.006   5.823  0.2949 -0.6444  0.2508
10765SOL    HW133367   0.941   0.093   5.837  1.4758  0.3383 -2.1189
10765SOL    HW233368   1.072   0.017   5.840  0.4910 -1.3960 -0.3027
10766SOL     OW33369   7.700   0.351   6.617 -0.0869  0.0741 -0.2837
10766SOL    HW133370   7.643   0.287   6.661 -3.2820  2.9402  0.1425
10766SOL    HW233371   7.639   0.406   6.567  2.7295  1.4548 -2.4396
10767SOL     OW33372   2.899   0.599   7.511  0.4094  0.0937  0.8302
10767SOL    HW133373   2.812   0.605   7.471 -0.6002  0.6886  2.9764
10767SOL    HW233374   2.937   0.520   7.472 -1.3679 -0.5847  0.3309
10768SOL     OW33375   6.757   5.599   5.833  0.0996 -0.0252 -0.4113
10768SOL    HW133376   6.783   5.521   5.883  2.0805 -0.0580 -1.3987
10768SOL    HW233377   6.708   5.564   5.759  2.0230 -0.5251 -1.5260
10769SOL     OW33378   7.338   0.221   5.710 -0.3297  0.3509 -0.4636
10769SOL    HW133379   7.278   0.277   5.759 -0.3620 -0.2423  0.2050
10769SOL    HW233380   7.424   0.241   5.747 -0.2638  0.3854 -0.6350
10770SOL     OW33381   0.728   2.222   4.755  0.1218  0.8825 -0.0856
10770SOL    HW133382   0.711   2.223   4.849 -0.7547  1.1897 -0.2398
10770SOL    HW233383   0.737   2.129   4.733  0.1292  0.7983  0.2632
10771SOL     OW33384   4.697   5.575   5.454  0.3818  0.2586  0.7028
10771SOL    HW133385   4.665   5.486   5.470 -0.0285  0.5552  1.5394
10771SOL    HW233386   4.740   5.600   5.535  0.2464  0.9379  0.5682
10772SOL     OW33387   3.564   4.886   2.414 -0.4960 -0.2243  0.4830
10772SOL    HW133388   3.541   4.920   2.500 -3.4422  2.7473 -1.2183
10772SOL    HW233389   3.495   4.823   2.393 -0.3980 -0.1448 -0.1133
10773SOL     OW33390   1.851   6.925   4.175 -0.1400 -0.3316 -0.9398
10773SOL    HW133391   1.847   6.892   4.085  1.9261 -1.7646 -0.5889
10773SOL    HW233392   1.837   6.847   4.229  1.3297 -0.0147 -0.0591
10774SOL     OW33393   7.528   2.823   6.148  0.0063  1.2907 -0.2147
10774SOL    HW133394   7.497   2.910   6.121 -1.3507  0.4444 -1.5973
10774SOL    HW233395   7.609   2.840   6.195 -0.0990  3.2870 -0.6431
10775SOL     OW33396   3.054   6.033   6.272  0.5552 -0.2900  0.2137
10775SOL    HW133397   3.107   5.970   6.320  0.9443  0.9991  1.5610
10775SOL    HW233398   3.039   6.105   6.334 -1.8002 -0.0610 -0.4894
10776SOL     OW33399   3.429   1.513   1.213 -0.2014  0.3973 -0.1599
10776SOL    HW133400   3.381   1.596   1.222  1.1822  1.0171  2.2697
10776SOL    HW233401   3.521   1.538   1.214  0.3085 -1.2124  2.3372
10777SOL     OW33402   0.915   5.100   6.436  0.0086 -0.5422 -0.2854
10777SOL    HW133403   0.926   5.009   6.464  4.0499  0.1782  1.1761
10777SOL    HW233404   0.855   5.138   6.500  1.7283 -1.2286  1.8456
10778SOL     OW33405   3.220   7.116   1.249  0.1263 -0.1895 -0.4171
10778SOL    HW133406   3.131   7.096   1.220  0.1600 -1.2572  0.1601
10778SOL    HW233407   3.210   7.146   1.340  0.2675  0.6950 -0.6797
10779SOL     OW33408   6.309   6.673   5.276  0.0984  0.8659 -0.1718
10779SOL    HW133409   6.313   6.636   5.188  1.7298  1.1353 -0.2495
10779SOL    HW233410   6.252   6.750   5.268  1.7719  2.0474 -1.4835
10780SOL     OW33411   1.455   4.361   7.123  0.4483  0.8314  0.5057
10780SOL    HW133412   1.432   4.359   7.030 -0.1355  0.2791  0.6538
10780SOL    HW233413   1.384   4.314   7.166  0.8662  0.8274  1.2030
10781SOL     OW33414   1.636   0.852   6.133  0.3562 -0.7105  0.1123
10781SOL    HW133415   1.643   0.757   6.122 -1.1203 -1.1966  2.6876
10781SOL    HW233416   1.544   0.872   6.112  0.9666  0.4510 -1.7814
10782SOL     OW33417   6.161   1.423   2.664 -0.5208  0.5783  0.1383
10782SOL    HW133418   6.188   1.340   2.703  0.9482  1.0449  0.1383
10782SOL    HW233419   6.231   1.484   2.685  0.0066  1.0264 -2.6154
10783SOL     OW33420   1.635   3.723   0.139 -0.2306 -0.4659  0.0989
10783SOL    HW133421   1.639   3.770   0.055 -1.3039 -1.7054 -0.6850
10783SOL    HW233422   1.581   3.646   0.120 -0.8231 -0.5658  2.0271
10784SOL     OW33423   4.925   2.864   0.464 -0.8619 -0.2840 -0.0139
10784SOL    HW133424   4.929   2.820   0.549 -0.3258  1.2129  0.7735
10784SOL    HW233425   4.902   2.794   0.402 -1.2884 -1.4048  1.3443
10785SOL     OW33426   1.978   2.606   3.574 -0.0960  0.5802  0.0336
10785SOL    HW133427   2.035   2.532   3.554 -0.5218  0.2394  0.0616
10785SOL    HW233428   2.009   2.677   3.518  0.2271  0.3407 -0.0931
10786SOL     OW33429   6.591   2.080   3.862 -0.0150 -0.5733  0.4615
10786SOL    HW133430   6.554   2.052   3.946  2.0014  0.2136  1.6984
10786SOL    HW233431   6.598   2.175   3.870 -0.7357 -0.3766 -1.0372
10787SOL     OW33432   5.662   0.478   4.023 -0.0970 -0.0831  0.2528
10787SOL    HW133433   5.665   0.501   3.930  0.9820  1.6429  0.6706
10787SOL    HW233434   5.734   0.417   4.034 -0.0048 -0.0203  0.0189
10788SOL     OW33435   2.364   5.585   0.769 -0.6581 -0.1246 -0.1986
10788SOL    HW133436   2.376   5.511   0.710 -0.9448  1.5316 -2.4736
10788SOL    HW233437   2.286   5.562   0.820 -0.4324 -1.6024 -0.4787
10789SOL     OW33438   3.688   1.257   8.124  0.2277  0.1871 -0.0222
10789SOL    HW133439   3.638   1.338   8.121 -1.2028 -0.7047 -1.5627
10789SOL    HW233440   3.738   1.256   8.043  0.7948 -0.1427  0.3229
10790SOL     OW33441   5.741   6.420   6.963 -0.2241  0.0035  0.2228
10790SOL    HW133442   5.730   6.375   6.880 -0.5022 -0.4325  0.4891
10790SOL    HW233443   5.760   6.511   6.940  0.4711 -0.2740 -0.3248
10791SOL     OW33444   0.404   2.924   0.707 -0.2787  0.5807 -0.4019
10791SOL    HW133445   0.440   2.856   0.650  0.3164 -2.2075  2.9700
10791SOL    HW233446   0.311   2.926   0.685 -0.2366 -1.0639 -0.8758
10792SOL     OW33447   7.071   0.642   1.506 -0.2591 -0.5342  0.5100
10792SOL    HW133448   7.051   0.638   1.412  1.4442 -2.3660  0.1576
10792SOL    HW233449   7.072   0.735   1.526 -0.5289 -0.0926 -1.3188
10793SOL     OW33450   1.992   7.518   1.256 -0.2367  0.0875 -0.2314
10793SOL    HW133451   1.987   7.531   1.161 -1.5960  0.4005 -0.1432
10793SOL    HW233452   2.085   7.514   1.275  0.0752  0.8510 -1.4803
10794SOL     OW33453   0.995   6.326   0.281  0.2279 -0.0501  0.7549
10794SOL    HW133454   0.990   6.318   0.376 -0.0834  0.9815  0.8444
10794SOL    HW233455   0.959   6.413   0.263  0.2019 -0.2689 -0.3142
10795SOL     OW33456   6.673   4.091   6.592  0.2261  0.5060 -0.5589
10795SOL    HW133457   6.636   4.024   6.536  0.2446  0.6579 -0.7537
10795SOL    HW233458   6.763   4.062   6.608 -0.0717 -0.0296  0.1820
10796SOL     OW33459   0.611   1.666   5.389 -0.2932  0.3820 -0.7805
10796SOL    HW133460   0.644   1.691   5.302 -0.9320  0.8508 -0.9045
10796SOL    HW233461   0.517   1.654   5.375 -0.3973  0.4577 -0.1541
10797SOL     OW33462   5.254   7.925   3.974  0.0617  0.5297 -0.3448
10797SOL    HW133463   5.273   7.834   3.952  2.1789  1.0466 -0.8738
10797SOL    HW233464   5.327   7.953   4.028 -0.6124  1.9027 -0.0877
10798SOL     OW33465   4.549   6.339   1.513  0.1290  0.7666 -0.6470
10798SOL    HW133466   4.483   6.341   1.582  1.3474  1.3016  0.5458
10798SOL    HW233467   4.503   6.304   1.437 -1.5839  1.3237  0.0764
10799SOL     OW33468   4.686   1.530   3.286  0.2100 -0.0457 -0.0429
10799SOL    HW133469   4.668   1.600   3.224  1.6167  0.0981 -0.3388
10799SOL    HW233470   4.601   1.507   3.323 -0.8986 -0.9374 -2.8566
10800SOL     OW33471   7.961   6.754   8.014  0.5964  0.0781 -0.1235
10800SOL    HW133472   8.055   6.757   7.995  0.2617 -0.4068 -2.0548
10800SOL    HW233473   7.935   6.846   8.020  0.9433  0.2366 -0.9661
10801SOL     OW33474   5.035   0.459   0.092  0.2162  0.4677 -0.2244
10801SOL    HW133475   4.996   0.508   0.164 -0.3245  0.0085 -0.1957
10801SOL    HW233476   5.127   0.448   0.117 -0.3064 -1.1535  1.2447
10802SOL     OW33477   3.152   6.585   6.376  0.6157  0.5495  0.4330
10802SOL    HW133478   3.193   6.520   6.318 -0.5521  0.0289  0.1728
10802SOL    HW233479   3.064   6.552   6.391  0.5436  1.2323  1.6537
10803SOL     OW33480   4.607   1.605   0.133 -0.3119  0.0162  0.2092
10803SOL    HW133481   4.686   1.656   0.119 -0.5052 -0.0249 -1.2360
10803SOL    HW233482   4.635   1.529   0.184  0.4038  0.4383  0.4512
10804SOL     OW33483   4.537   4.007   5.925  0.5757 -0.0750  0.0249
10804SOL    HW133484   4.545   3.922   5.883  0.6374  0.2248 -0.5756
10804SOL    HW233485   4.617   4.017   5.976  1.2193  0.2189 -1.0121
10805SOL     OW33486   7.449   5.512   2.252 -0.4312 -0.6327  0.7309
10805SOL    HW133487   7.355   5.494   2.243 -0.1233 -2.7757  1.1990
10805SOL    HW233488   7.453   5.584   2.315 -1.7761 -0.0702  0.2217
10806SOL     OW33489   1.158   1.101   1.597 -0.1411  0.0307 -0.2321
10806SOL    HW133490   1.108   1.079   1.518  0.9215 -1.7838 -0.4688
10806SOL    HW233491   1.105   1.067   1.669 -0.4418  0.4054 -0.2752
10807SOL     OW33492   2.278   1.230   2.296 -0.1247 -0.6608 -0.1227
10807SOL    HW133493   2.238   1.240   2.382 -0.7670 -0.2588 -0.4537
10807SOL    HW233494   2.335   1.307   2.287  1.6876 -1.8275  0.8257
10808SOL     OW33495   3.905   1.642   8.014 -0.4306 -0.1623 -0.2012
10808SOL    HW133496   3.855   1.610   8.089 -3.5897  0.4654 -1.8662
10808SOL    HW233497   3.865   1.600   7.938  2.7146 -0.8587 -1.6587
10809SOL     OW33498   3.804   6.066   3.678 -0.0018  0.8748  0.3492
10809SOL    HW133499   3.819   6.091   3.769  1.7296 -0.5262  0.4944
10809SOL    HW233500   3.717   6.027   3.678  0.0208  0.7942  1.4411
10810SOL     OW33501   0.040   5.324   0.317  0.1482  0.5450  0.2088
10810SOL    HW133502  -0.030   5.305   0.379 -1.8724  1.0840 -1.7801
10810SOL    HW233503   0.063   5.239   0.280 -0.4837  0.5425 -0.1767
10811SOL     OW33504   1.727   5.881   4.826  0.4082  0.2765  0.5739
10811SOL    HW133505   1.782   5.937   4.771 -1.1885  1.5654  0.2275
10811SOL    HW233506   1.774   5.877   4.909  1.7745  0.0805 -0.1696
10812SOL     OW33507   5.629   0.688   7.130  0.1629  0.3257  0.5061
10812SOL    HW133508   5.589   0.630   7.065 -1.5872  1.4400  0.4991
10812SOL    HW233509   5.656   0.765   7.079  1.6888 -0.0934  0.6402
10813SOL     OW33510   3.622   2.348   0.441  0.2196  0.2917 -0.5129
10813SOL    HW133511   3.579   2.263   0.453  1.1150  0.1250  2.0012
10813SOL    HW233512   3.675   2.337   0.362 -0.5153 -1.1096 -0.8467
10814SOL     OW33513   1.473   0.439   4.734 -0.1856  0.0544  0.2629
10814SOL    HW133514   1.378   0.442   4.748 -0.2808  2.3981 -0.3937
10814SOL    HW233515   1.485   0.371   4.668 -1.7061  1.2486 -1.3326
10815SOL     OW33516   3.753   4.808   0.822  0.1365  0.3188 -0.3037
10815SOL    HW133517   3.665   4.784   0.792  0.1250 -2.1268  1.4107
10815SOL    HW233518   3.812   4.774   0.755 -0.1332  0.0099 -0.3817
10816SOL     OW33519   2.907   1.312   3.235 -0.2699 -0.0690 -0.0271
10816SOL    HW133520   2.944   1.332   3.321  0.5047  0.7702 -0.5298
10816SOL    HW233521   2.983   1.293   3.180 -0.6983  0.0579 -0.6817
10817SOL     OW33522   7.553   4.830   8.004 -0.0200  0.1762  0.3799
10817SOL    HW133523   7.472   4.857   7.960  0.5879  0.7041 -0.4578
10817SOL    HW233524   7.559   4.736   7.987  0.3300  0.4132 -0.9302
10818SOL     OW33525   5.564   1.153   6.467  0.3061  0.3375 -0.6993
10818SOL    HW133526   5.474   1.184   6.465 -0.1283 -0.8546 -0.3201
10818SOL    HW233527   5.616   1.232   6.485 -0.7493  0.8536  0.1840
10819SOL     OW33528   7.086   1.256   5.143 -0.5000 -0.3197  0.3449
10819SOL    HW133529   7.128   1.279   5.060 -1.0403 -0.4929  0.0180
10819SOL    HW233530   6.992   1.265   5.126 -0.9729 -4.6416 -0.4845
10820SOL     OW33531   1.609   4.709   4.981 -0.1449  0.0276 -0.5608
10820SOL    HW133532   1.552   4.638   4.951 -0.7947  1.7013 -3.8583
10820SOL    HW233533   1.568   4.740   5.062 -0.0661 -2.9460  0.7546
10821SOL     OW33534   1.069   2.914   4.619  0.7576 -0.2227  0.6691
10821SOL    HW133535   1.070   2.910   4.523  1.1688 -2.6085  0.7145
10821SOL    HW233536   0.978   2.895   4.643  0.5354  0.8881  0.7818
10822SOL     OW33537   3.031   1.584   5.481 -0.3287 -0.0776  0.1301
10822SOL    HW133538   2.947   1.538   5.480 -0.5259  0.1446  2.0902
10822SOL    HW233539   3.079   1.545   5.554  0.6487  0.8901  0.0405
10823SOL     OW33540   7.923   4.336   0.116  0.0106  0.2563  0.0490
10823SOL    HW133541   8.000   4.326   0.060 -1.1549 -2.7836 -1.2597
10823SOL    HW233542   7.947   4.403   0.179  2.3568  2.0172 -2.5099
10824SOL     OW33543   1.454   2.906   7.399  0.2264  0.3551 -0.3071
10824SOL    HW133544   1.389   2.962   7.356 -0.6147 -2.0280 -2.3816
10824SOL    HW233545   1.402   2.846   7.452  0.9935  0.3710  0.4903
10825SOL     OW33546   0.030   4.820   7.903  0.1490  0.1238 -0.3814
10825SOL    HW133547   0.114   4.815   7.856  0.1885 -0.2400 -0.2757
10825SOL    HW233548   0.039   4.896   7.960  1.0079 -0.7998  0.7817
10826SOL     OW33549   5.816   2.027   2.459 -0.5417 -0.3191 -0.0917
10826SOL    HW133550   5.892   1.971   2.469  0.3193  0.8560  0.1752
10826SOL    HW233551   5.789   2.049   2.549  0.1367  0.9766 -0.1765
10827SOL     OW33552   0.754   1.091   1.227 -0.0429 -0.3311 -0.0476
10827SOL    HW133553   0.789   1.076   1.140  0.2229 -0.1377  0.0229
10827SOL    HW233554   0.726   1.183   1.226 -2.3096 -0.9917 -0.7004
10828SOL     OW33555   5.208   0.762   7.706  0.0446  0.3564 -0.3926
10828SOL    HW133556   5.199   0.740   7.613 -2.1104  1.3631 -0.4845
10828SOL    HW233557   5.295   0.803   7.713  1.2768 -1.8912 -1.4510
10829SOL     OW33558   6.735   8.074   3.203  0.4223  0.0995  0.2397
10829SOL    HW133559   6.783   8.003   3.246 -0.4310 -0.9141 -0.4396
10829SOL    HW233560   6.748   8.059   3.110  0.5331  1.0643  0.0869
10830SOL     OW33561   2.676   3.350   1.234 -0.2082  0.4437 -0.4003
10830SOL    HW133562   2.755   3.394   1.267 -0.5786  1.3558 -0.7013
10830SOL    HW233563   2.618   3.422   1.207 -0.8938 -0.2320 -0.7563
10831SOL     OW33564   4.583   2.403   3.602 -0.1919 -0.1512  0.2085
10831SOL    HW133565   4.650   2.346   3.564  0.6487  1.5957 -1.0316
10831SOL    HW233566   4.629   2.455   3.667 -0.3619  0.8683 -0.4547
10832SOL     OW33567   3.707   6.975   4.716  0.0311  0.0160  0.0931
10832SOL    HW133568   3.714   6.885   4.684  1.1314 -0.5349  1.7430
10832SOL    HW233569   3.739   6.971   4.806 -1.1366  1.8271  0.6465
10833SOL     OW33570   5.498   1.436   5.758  0.0895 -0.5784  0.3101
10833SOL    HW133571   5.556   1.394   5.822 -0.6786 -1.9318  0.1581
10833SOL    HW233572   5.554   1.496   5.711  1.2906 -1.5400  0.4604
10834SOL     OW33573   7.821   0.585   2.000  0.2186  0.1155 -0.5454
10834SOL    HW133574   7.770   0.534   1.937 -1.6063 -0.7750  1.5010
10834SOL    HW233575   7.909   0.548   1.997 -0.0576 -0.4720 -1.9260
10835SOL     OW33576   0.681   1.106   4.839 -0.7417  0.2905  0.1711
10835SOL    HW133577   0.590   1.132   4.849 -0.6423  0.3518  1.0012
10835SOL    HW233578   0.731   1.180   4.874 -0.4342 -0.5005  1.4847
10836SOL     OW33579   6.203   0.520   7.817  0.1102 -0.1257  0.0040
10836SOL    HW133580   6.145   0.514   7.893 -0.5248  0.4390 -0.4261
10836SOL    HW233581   6.164   0.461   7.753 -1.0487  1.5777 -0.9470
10837SOL     OW33582   5.283   1.210   0.054  0.0413  0.2974  0.1868
10837SOL    HW133583   5.369   1.224   0.013 -0.4300  0.8773 -0.6330
10837SOL    HW233584   5.269   1.115   0.048  0.5489  0.2180  0.1747
10838SOL     OW33585   4.502   2.478   1.949  0.3500  0.0130 -0.0453
10838SOL    HW133586   4.574   2.511   1.896 -0.0157  0.8386 -0.0516
10838SOL    HW233587   4.465   2.556   1.990 -1.3468 -0.2035 -1.0468
10839SOL     OW33588   7.623   7.967   2.221 -0.5219 -0.0293 -0.1773
10839SOL    HW133589   7.714   7.977   2.249 -0.6777  0.2641  0.2268
10839SOL    HW233590   7.610   8.035   2.155 -0.1322 -0.7711 -1.0331
10840SOL     OW33591   5.700   6.221   6.784 -0.4216  0.2593 -0.1569
10840SOL    HW133592   5.607   6.200   6.774  0.0643 -2.3092 -0.0791
10840SOL    HW233593   5.735   6.149   6.837  0.8980  3.1767  3.3093
10841SOL     OW33594   1.389   1.459   2.291  0.0935  0.0373 -0.0988
10841SOL    HW133595   1.327   1.530   2.306  2.1382  1.8862 -0.0147
10841SOL    HW233596   1.388   1.446   2.196  0.9990  1.4677 -0.3355
10842SOL     OW33597   4.908   4.695   6.466 -0.4351 -0.0734  0.6152
10842SOL    HW133598   4.902   4.687   6.561  0.3774  0.1138  0.6891
10842SOL    HW233599   4.818   4.681   6.435 -0.5300 -1.1304  1.3293
10843SOL     OW33600   2.074   4.526   4.627  0.2275 -0.1233 -0.4583
10843SOL    HW133601   2.129   4.517   4.704 -0.0713  1.8844  0.0359
10843SOL    HW233602   2.123   4.481   4.557  1.7836  0.3350  0.2961
10844SOL     OW33603   2.712   3.202   3.758 -0.2322 -0.1809 -0.5671
10844SOL    HW133604   2.759   3.157   3.688  0.1102 -0.8439  0.0795
10844SOL    HW233605   2.763   3.281   3.775  0.9818 -1.1451  0.4896
10845SOL     OW33606   0.670   0.515   3.507  0.0570 -0.4021  0.3316
10845SOL    HW133607   0.584   0.488   3.475 -0.2326 -2.6637  2.6050
10845SOL    HW233608   0.726   0.438   3.493  1.4878  0.6967 -0.2500
10846SOL     OW33609   5.681   2.857   7.707  0.3199 -0.0424  0.4033
10846SOL    HW133610   5.722   2.918   7.770  0.5254 -1.5040  1.7458
10846SOL    HW233611   5.589   2.884   7.704 -0.2943 -1.4488  3.3257
10847SOL     OW33612   0.683   4.001   2.646  0.4827 -0.7466  0.2564
10847SOL    HW133613   0.745   4.073   2.657 -0.3165 -0.1962  1.3098
10847SOL    HW233614   0.648   4.013   2.558  1.0080 -0.3808  0.0927
10848SOL     OW33615   3.772   0.698   1.418 -0.0980  1.0444  0.4088
10848SOL    HW133616   3.858   0.698   1.461 -0.0744  2.2631  0.3780
10848SOL    HW233617   3.710   0.682   1.489  0.1094  0.7187  0.5203
10849SOL     OW33618   7.010   0.952   5.438 -0.0431  0.0269  0.7968
10849SOL    HW133619   6.923   0.955   5.478  0.2151 -0.5025  1.4179
10849SOL    HW233620   7.046   1.040   5.454 -1.3050  1.0256 -1.4659
10850SOL     OW33621   0.039   6.411   1.625 -0.1287 -0.0119 -0.4044
10850SOL    HW133622   0.078   6.324   1.629  0.6209  0.3309 -0.0952
10850SOL    HW233623  -0.054   6.396   1.640 -0.0566 -0.7952 -0.6969
10851SOL     OW33624   5.753   3.056   7.850 -0.0985  0.2582  0.0801
10851SOL    HW133625   5.741   3.150   7.866 -0.0942 -0.1265  2.9289
10851SOL    HW233626   5.835   3.035   7.894 -0.6369 -1.2742  0.4011
10852SOL     OW33627   0.208   3.259   7.682 -0.1035  0.3442  0.3057
10852SOL    HW133628   0.132   3.201   7.694  0.1627  0.1225  0.9441
10852SOL    HW233629   0.281   3.200   7.667 -0.2734  0.5768 -1.7930
10853SOL     OW33630   6.461   2.723   2.793  0.1981  0.7016  0.1235
10853SOL    HW133631   6.458   2.702   2.699 -2.2052 -2.2028  0.6844
10853SOL    HW233632   6.479   2.817   2.796  0.6151  0.8628 -3.2174
10854SOL     OW33633   2.693   6.737   1.618  0.1810 -0.2786  0.1234
10854SOL    HW133634   2.639   6.678   1.671 -0.8563 -0.5981 -1.2280
10854SOL    HW233635   2.659   6.726   1.529  0.8616  1.3840 -0.3649
10855SOL     OW33636   5.708   5.291   0.748 -0.2661  0.4180  0.3673
10855SOL    HW133637   5.716   5.380   0.713 -0.2841  0.0279 -0.6559
10855SOL    HW233638   5.743   5.235   0.679  0.4093 -0.3301  1.2921
10856SOL     OW33639   4.739   1.045   1.098 -0.2808 -0.2911 -0.5604
10856SOL    HW133640   4.776   0.979   1.040 -1.7859 -0.8217 -0.9722
10856SOL    HW233641   4.650   1.014   1.117 -0.2643  0.5014  1.0347
10857SOL     OW33642   0.984   4.227   1.438  0.7123  0.3932  0.3769
10857SOL    HW133643   1.070   4.261   1.462  2.9724 -2.5178 -2.6537
10857SOL    HW233644   0.967   4.263   1.351  0.3841 -1.3952 -0.3544
10858SOL     OW33645   0.988   5.652   5.408  0.6241  0.5555  0.3724
10858SOL    HW133646   0.973   5.723   5.347  0.4542  2.5257  2.5749
10858SOL    HW233647   1.084   5.645   5.413  0.6855  1.8571  1.4321
10859SOL     OW33648   7.488   6.564   7.171 -0.0756  0.2412  0.0866
10859SOL    HW133649   7.462   6.543   7.082 -2.2360  0.5300  0.5919
10859SOL    HW233650   7.544   6.641   7.163 -1.2343  1.0037 -0.9463
10860SOL     OW33651   6.493   2.028   7.564  0.4274 -0.6432  0.3481
10860SOL    HW133652   6.484   2.113   7.522 -1.0281 -1.4434 -1.0794
10860SOL    HW233653   6.486   1.965   7.492  0.9025 -1.9974  1.4438
10861SOL     OW33654   5.022   1.969   1.080 -0.1559 -0.4346 -0.2423
10861SOL    HW133655   4.934   1.963   1.118  0.1653  0.0436  0.5942
10861SOL    HW233656   5.020   1.906   1.007 -1.7368  0.8227 -1.3664
10862SOL     OW33657   7.022   0.963   3.684  0.0216  0.4357 -0.1314
10862SOL    HW133658   7.028   0.914   3.766  1.3643  2.6324  1.1958
10862SOL    HW233659   7.087   0.922   3.627 -2.2253 -2.3390 -0.9199
10863SOL     OW33660   1.810   6.094   0.390 -0.0669 -0.2717 -0.0091
10863SOL    HW133661   1.737   6.086   0.328 -0.0176  0.6902 -0.2081
10863SOL    HW233662   1.883   6.049   0.347 -0.1939 -0.1122 -0.4001
10864SOL     OW33663   1.033   2.524   0.686  0.4591 -0.5059  0.0641
10864SOL    HW133664   1.128   2.519   0.691  0.5543 -0.2874 -1.2068
10864SOL    HW233665   1.004   2.521   0.777  1.7549  1.1585  0.5782
10865SOL     OW33666   4.313   7.793   4.317 -0.3942 -0.1209 -1.0818
10865SOL    HW133667   4.246   7.727   4.299  0.5251 -1.3291 -0.2087
10865SOL    HW233668   4.290   7.827   4.404  0.5109 -1.0527 -0.4642
10866SOL     OW33669   3.703   3.543   3.435 -0.3442  0.3218  0.3879
10866SOL    HW133670   3.765   3.574   3.501 -1.0694 -1.4201  1.9820
10866SOL    HW233671   3.618   3.573   3.465 -0.5070  1.1173 -0.7971
10867SOL     OW33672   8.144   8.016   0.839  0.0606 -0.0909  0.0858
10867SOL    HW133673   8.160   7.934   0.793 -0.2688 -0.1971  0.1591
10867SOL    HW233674   8.230   8.058   0.844  0.1035 -0.0807 -0.6154
10868SOL     OW33675   3.491   3.791   3.717  0.4918 -0.1536  0.5334
10868SOL    HW133676   3.436   3.800   3.795 -0.1924  0.7785 -0.0333
10868SOL    HW233677   3.488   3.698   3.697  0.1478 -0.3073  1.2473
10869SOL     OW33678   5.902   7.180   2.226 -0.8225 -0.1448  0.4731
10869SOL    HW133679   5.919   7.116   2.156 -2.4489 -0.3324  0.2118
10869SOL    HW233680   5.989   7.203   2.258  0.1258  0.9031 -2.4681
10870SOL     OW33681   3.351   3.093   4.120  0.3021  0.3736 -1.1550
10870SOL    HW133682   3.347   3.036   4.196  1.3578  0.7648 -0.7912
10870SOL    HW233683   3.266   3.081   4.077  0.6128 -1.7653 -1.3069
10871SOL     OW33684   3.838   7.126   1.150  0.2563  0.0582  0.4961
10871SOL    HW133685   3.840   7.221   1.145  2.3882 -0.0371 -1.7120
10871SOL    HW233686   3.744   7.104   1.149 -0.2611  2.0787  0.8183
10872SOL     OW33687   3.693   0.848   5.886 -0.0074 -0.0156 -0.3764
10872SOL    HW133688   3.772   0.902   5.894 -0.3382  0.7821 -1.9960
10872SOL    HW233689   3.703   0.780   5.952  0.4737  1.9750  1.7073
10873SOL     OW33690   0.432   5.932   7.865 -0.3964  0.5584 -0.2838
10873SOL    HW133691   0.369   5.861   7.876  0.1167  0.1520  0.0161
10873SOL    HW233692   0.434   5.975   7.950  0.7349 -0.2596  0.1220
10874SOL     OW33693   7.664   0.916   0.896  0.2508 -0.0151  0.6445
10874SOL    HW133694   7.654   0.861   0.818 -0.9010 -1.8173  1.9946
10874SOL    HW233695   7.735   0.976   0.873 -1.0900  0.6285 -2.3920
10875SOL     OW33696   2.034   7.872   2.229  0.5373 -0.3591  0.2069
10875SOL    HW133697   2.012   7.779   2.216  0.5448 -0.1630 -1.3700
10875SOL    HW233698   1.979   7.918   2.166  1.5528  0.5918 -0.0111
10876SOL     OW33699   4.157   7.760   7.681 -0.2711  0.1250 -0.3846
10876SOL    HW133700   4.233   7.806   7.718 -1.2666  2.8822 -1.4830
10876SOL    HW233701   4.193   7.682   7.640  1.6692  0.2864  0.8943
10877SOL     OW33702   2.016   3.964   6.730 -0.0086  0.0677 -0.2033
10877SOL    HW133703   2.092   3.907   6.715  0.2161  0.2602  0.1938
10877SOL    HW233704   2.004   4.009   6.647 -0.4025 -0.8142 -0.6358
10878SOL     OW33705   4.896   0.983   7.168 -0.0367  0.0378 -0.2840
10878SOL    HW133706   4.842   1.049   7.123 -2.5008  0.0976  2.4553
10878SOL    HW233707   4.915   0.918   7.100 -1.2706  1.3863 -2.0353
10879SOL     OW33708   5.959   1.890   5.969  0.0011  0.0046  0.3337
10879SOL    HW133709   5.969   1.985   5.975  1.8159 -0.2394  2.4317
10879SOL    HW233710   6.016   1.856   6.038 -1.9121 -2.5524  0.7913
10880SOL     OW33711   2.888   4.166   0.689  0.2373 -0.3755 -0.6080
10880SOL    HW133712   2.843   4.233   0.741  0.6738  0.5264 -1.3597
10880SOL    HW233713   2.959   4.136   0.745 -0.8542 -1.3250  0.3246
10881SOL     OW33714   6.442   4.098   7.584  0.4554  0.8115  0.0368
10881SOL    HW133715   6.437   4.140   7.498  0.0731  0.9723  0.1358
10881SOL    HW233716   6.365   4.041   7.588  1.8498 -1.2421 -0.7798
10882SOL     OW33717   7.966   7.492   4.612 -0.2085  0.6111 -0.4860
10882SOL    HW133718   8.040   7.474   4.554 -0.5169 -0.8776 -0.4529
10882SOL    HW233719   7.985   7.578   4.649  0.8417  0.8323 -1.4845
10883SOL     OW33720   8.016   2.387   4.689 -0.0316  0.3098  0.4992
10883SOL    HW133721   7.969   2.466   4.716 -2.0398 -0.6175 -0.0900
10883SOL    HW233722   7.970   2.357   4.611  0.5867 -1.5081  0.7809
10884SOL     OW33723   6.834   5.903   6.313 -0.1900  0.3177  0.0229
10884SOL    HW133724   6.830   5.993   6.280 -0.7022 -0.0274 -0.8992
10884SOL    HW233725   6.778   5.853   6.253  0.3681 -0.6780  0.3096
10885SOL     OW33726   6.942   3.817   0.920  0.1677 -0.2755  0.3074
10885SOL    HW133727   6.898   3.842   1.001 -1.2529 -1.6400  0.0075
10885SOL    HW233728   6.970   3.726   0.934 -1.8252 -1.2398 -1.3364
10886SOL     OW33729   4.780   2.913   1.548  0.3734 -0.0342  0.0931
10886SOL    HW133730   4.824   2.837   1.586  0.4624 -0.1885 -0.3212
10886SOL    HW233731   4.846   2.954   1.492 -0.2000 -0.6700 -1.0927
10887SOL     OW33732   0.703   1.882   3.131 -0.0866  0.2370 -0.8162
10887SOL    HW133733   0.719   1.963   3.180  1.0166 -0.7521  0.5255
10887SOL    HW233734   0.638   1.835   3.183 -1.3809  0.6052 -2.0428
10888SOL     OW33735   8.009   4.065   4.115  0.0884 -0.3510 -0.2259
10888SOL    HW133736   7.939   4.065   4.181  0.7561  0.8261  0.5154
10888SOL    HW233737   7.963   4.068   4.031 -0.7813  1.5031  0.2657
10889SOL     OW33738   1.037   1.558   1.367  0.9231 -0.6755  0.2319
10889SOL    HW133739   1.118   1.508   1.360  0.6997 -0.7638 -2.5516
10889SOL    HW233740   1.027   1.600   1.282 -0.1337  2.2399  1.6566
10890SOL     OW33741   7.721   6.709   2.108 -0.2491 -0.4112 -0.3710
10890SOL    HW133742   7.669   6.631   2.089 -0.1028 -0.2289 -1.6042
10890SOL    HW233743   7.741   6.746   2.022 -0.3208  0.9908  0.1900
10891SOL     OW33744   0.910   5.525   3.272 -0.0206  0.2230 -0.3994
10891SOL    HW133745   0.992   5.487   3.242 -0.6772 -0.2796 -1.6576
10891SOL    HW233746   0.865   5.453   3.317  0.8544  0.9097  1.6820
10892SOL     OW33747   4.326   3.453   7.121  0.1470  0.5153 -0.0998
10892SOL    HW133748   4.390   3.503   7.173  2.4988 -0.6799 -1.6491
10892SOL    HW233749   4.373   3.432   7.040 -1.5635 -2.1042 -0.5134
10893SOL     OW33750   4.975   6.447   7.664 -0.3139 -0.1743  0.0881
10893SOL    HW133751   4.934   6.449   7.578  0.4557 -2.4263 -0.3791
10893SOL    HW233752   5.019   6.532   7.671  0.1822 -0.2017 -2.0352
10894SOL     OW33753   8.060   2.746   4.160 -0.2065 -0.2627  0.3108
10894SOL    HW133754   8.151   2.771   4.172 -0.2957  0.4999 -0.4659
10894SOL    HW233755   8.019   2.762   4.245  0.5032 -1.2332  0.8545
10895SOL     OW33756   2.972   3.073   4.750 -0.4936 -0.1995  0.2825
10895SOL    HW133757   3.012   3.153   4.785 -2.7558  1.3591 -0.4568
10895SOL    HW233758   2.943   3.025   4.827  0.9740 -0.3817  0.7419
10896SOL     OW33759   2.399   8.129   7.467  0.1225  0.2705  0.1241
10896SOL    HW133760   2.326   8.066   7.468 -0.2503  0.7004  1.5933
10896SOL    HW233761   2.445   8.109   7.386 -1.9005  0.2933 -1.1093
10897SOL     OW33762   6.378   3.322   6.514 -0.4026 -0.8850 -0.3709
10897SOL    HW133763   6.385   3.373   6.594 -0.2235 -0.1275 -0.8532
10897SOL    HW233764   6.454   3.264   6.514 -0.4111 -0.8953  0.0024
10898SOL     OW33765   0.019   1.762   7.022  0.1501  0.5957 -0.2331
10898SOL    HW133766   0.002   1.847   6.982 -1.9149  1.2348  1.8370
10898SOL    HW233767   0.031   1.780   7.115  1.7661 -1.1810 -0.0185
10899SOL     OW33768   1.859   5.697   4.489 -0.1443  0.1443  0.9907
10899SOL    HW133769   1.871   5.681   4.395 -1.0048 -0.1770  0.9235
10899SOL    HW233770   1.905   5.779   4.506  1.2294 -0.5235  0.5833
10900SOL     OW33771   7.066   7.157   5.323 -0.0932  0.0282  0.0664
10900SOL    HW133772   7.004   7.215   5.279  0.0492  0.2725  0.1809
10900SOL    HW233773   7.152   7.189   5.296 -0.0137 -1.2416 -1.2820
10901SOL     OW33774   0.351   0.057   4.881 -0.2342 -0.6370  0.2098
10901SOL    HW133775   0.377  -0.035   4.886 -0.6540 -0.7655  0.0652
10901SOL    HW233776   0.341   0.084   4.972 -0.6774 -0.8993  0.2398
10902SOL     OW33777   4.004   0.486   0.317 -0.2710  0.2566  0.2530
10902SOL    HW133778   3.945   0.432   0.371 -0.7013  0.8059  0.3351
10902SOL    HW233779   3.957   0.498   0.234 -1.9283  3.5840  1.4748
10903SOL     OW33780   3.865   2.369   7.461  0.1341 -0.0646  0.2113
10903SOL    HW133781   3.798   2.318   7.416  1.4555 -0.8100 -1.0116
10903SOL    HW233782   3.930   2.388   7.393  0.2109  2.3771  0.8644
10904SOL     OW33783   2.387   7.733   1.626 -0.4117  0.4781 -0.3289
10904SOL    HW133784   2.312   7.788   1.603 -0.1610  1.5981  1.3186
10904SOL    HW233785   2.359   7.686   1.704 -0.0311 -0.4990 -0.7701
10905SOL     OW33786   6.124   3.146   0.787 -0.3990 -0.1873  0.4414
10905SOL    HW133787   6.201   3.159   0.732 -0.8549 -1.2804 -0.5211
10905SOL    HW233788   6.155   3.088   0.857 -0.2921 -0.4819  0.1566
10906SOL     OW33789   7.592   4.805   3.744  0.0485 -0.1379  0.5973
10906SOL    HW133790   7.647   4.765   3.677 -1.0035 -1.2668  0.3878
10906SOL    HW233791   7.559   4.732   3.796 -0.3417  0.6068  1.4293
10907SOL     OW33792   3.704   1.972   5.199  0.1917  0.1851 -0.0358
10907SOL    HW133793   3.612   1.982   5.222  0.3519  1.2429  0.2107
10907SOL    HW233794   3.746   2.051   5.234  1.3106 -0.5926  0.4538
10908SOL     OW33795   4.413   0.480   1.290  0.1301  0.3666  0.3911
10908SOL    HW133796   4.405   0.489   1.195 -1.8360  2.8451  0.6837
10908SOL    HW233797   4.472   0.551   1.316 -0.2234  0.4042  1.1121
10909SOL     OW33798   6.145   5.481   0.102  0.3411  0.1839  0.8048
10909SOL    HW133799   6.084   5.554   0.112 -0.4683 -0.7257  3.1877
10909SOL    HW233800   6.094   5.414   0.055  1.3379  1.3399 -2.1048
10910SOL     OW33801   2.024   7.144   3.728 -0.4299 -0.1528 -0.5653
10910SOL    HW133802   2.079   7.175   3.656  1.8829  0.9877  1.4945
10910SOL    HW233803   2.026   7.049   3.722  3.8106 -0.3520  0.5671
10911SOL     OW33804   7.581   4.917   7.678 -0.3922  0.1453  0.2593
10911SOL    HW133805   7.638   4.895   7.752  0.2219 -0.9890 -0.5186
10911SOL    HW233806   7.627   4.987   7.632 -0.6617  0.6894  0.7933
10912SOL     OW33807   2.987   0.017   7.905  0.3301  0.1908  0.2233
10912SOL    HW133808   2.938   0.033   7.986 -0.1423  0.8431 -0.1863
10912SOL    HW233809   2.972  -0.075   7.886 -0.0455  0.1805  0.5579
10913SOL     OW33810   5.774   1.024   0.706 -0.1758 -0.4044  0.2182
10913SOL    HW133811   5.761   0.960   0.637 -2.3959 -0.6672  0.8244
10913SOL    HW233812   5.726   0.990   0.781 -0.4924  1.4037  0.9006
10914SOL     OW33813   4.816   0.285   5.141 -0.0345  0.1403  0.6623
10914SOL    HW133814   4.859   0.352   5.195  0.3128  0.3370  0.1493
10914SOL    HW233815   4.877   0.270   5.068 -1.9677  2.4604 -1.6484
10915SOL     OW33816   3.372   3.135   3.811 -0.9332 -0.4463 -0.4950
10915SOL    HW133817   3.308   3.065   3.804  0.6974 -1.8977 -1.9626
10915SOL    HW233818   3.339   3.204   3.753 -1.3391 -1.0402 -0.9849
10916SOL     OW33819   2.870   0.343   0.617  0.3945  0.7680 -0.0853
10916SOL    HW133820   2.875   0.321   0.710  0.7462  1.3573  0.0379
10916SOL    HW233821   2.960   0.362   0.592  0.6728 -1.5001 -1.0915
10917SOL     OW33822   4.290   5.340   3.029  0.1923 -0.6722 -0.2512
10917SOL    HW133823   4.379   5.365   3.005  0.2280 -0.9045 -0.3636
10917SOL    HW233824   4.268   5.270   2.968 -0.0672 -0.6159 -0.2219
10918SOL     OW33825   0.376   1.467   0.026  0.3588  0.1344 -0.3914
10918SOL    HW133826   0.282   1.485   0.019  0.7253  1.3834 -3.5058
10918SOL    HW233827   0.400   1.429  -0.058  2.7178  0.0713  0.2449
10919SOL     OW33828   0.839   3.200   1.713 -0.1127 -0.3248  0.6274
10919SOL    HW133829   0.909   3.216   1.776  1.7333 -2.6387 -0.7000
10919SOL    HW233830   0.837   3.278   1.658 -0.9315  1.2014  2.6667
10920SOL     OW33831   0.837   2.589   4.391 -0.3245 -0.1533 -0.5807
10920SOL    HW133832   0.814   2.553   4.305  0.7721 -1.1634 -0.4727
10920SOL    HW233833   0.757   2.577   4.443 -0.6027 -0.6699 -1.1106
10921SOL     OW33834   2.993   3.704   7.197  0.3976 -0.3557 -0.3554
10921SOL    HW133835   3.032   3.663   7.120 -1.8611 -2.7754 -0.3803
10921SOL    HW233836   2.908   3.737   7.167 -1.5076 -3.2260  1.3270
10922SOL     OW33837   5.787   0.858   2.452  0.1161  0.6232  0.2742
10922SOL    HW133838   5.716   0.801   2.422 -0.4424  0.4849  1.7319
10922SOL    HW233839   5.866   0.805   2.444  0.1222  0.8581 -1.5919
10923SOL     OW33840   3.460   2.057   7.524  0.0922 -0.1903 -0.2730
10923SOL    HW133841   3.463   1.965   7.499  0.9959  0.0961 -1.2873
10923SOL    HW233842   3.431   2.056   7.615  2.8842 -1.6786  0.7318
10924SOL     OW33843   0.766   0.819   4.893  0.3683 -0.9009  0.0847
10924SOL    HW133844   0.824   0.803   4.818 -0.9152 -0.4234 -1.0452
10924SOL    HW233845   0.734   0.908   4.880 -0.6451 -1.1663  0.6712
10925SOL     OW33846   5.776   2.215   4.095 -0.2344 -0.5668 -0.0050
10925SOL    HW133847   5.798   2.129   4.132 -1.4567 -0.2768  1.5332
10925SOL    HW233848   5.860   2.257   4.079  0.3862 -0.8246  2.2961
10926SOL     OW33849   6.806   1.551   7.914  0.2915  0.5973 -0.1062
10926SOL    HW133850   6.851   1.529   7.996  2.8875  0.1635 -1.5413
10926SOL    HW233851   6.717   1.518   7.926  0.8589 -0.3455  2.1384
10927SOL     OW33852   4.477   2.467   5.876 -0.3105 -0.0976  0.1827
10927SOL    HW133853   4.528   2.447   5.798  0.7263  0.3218  0.7414
10927SOL    HW233854   4.391   2.429   5.858  0.6023 -2.1268 -0.1723
10928SOL     OW33855   7.493   2.256   7.609  0.2396  0.0979  0.0962
10928SOL    HW133856   7.479   2.163   7.629 -1.1674 -0.0900 -1.5708
10928SOL    HW233857   7.513   2.296   7.694  0.4967 -1.6442  0.8998
10929SOL     OW33858   0.556   3.405   6.214 -0.0559 -0.0992  0.1017
10929SOL    HW133859   0.515   3.490   6.204  1.1465  0.4243 -0.7266
10929SOL    HW233860   0.613   3.414   6.290  1.4136  0.4422 -1.0170
10930SOL     OW33861   0.377   6.831   2.774 -0.0680 -0.6202 -0.0992
10930SOL    HW133862   0.394   6.739   2.757 -0.2186 -0.4715 -1.1642
10930SOL    HW233863   0.339   6.834   2.862  0.5970 -1.4859  0.2250
10931SOL     OW33864   3.564   0.289   3.442 -0.0087  0.0688  0.3170
10931SOL    HW133865   3.646   0.247   3.417  0.3890  1.5601 -1.0770
10931SOL    HW233866   3.545   0.254   3.528  0.7388 -2.2501 -0.3813
10932SOL     OW33867   2.590   7.297   6.498 -0.4103  0.3382 -0.3104
10932SOL    HW133868   2.617   7.387   6.477  1.0502 -0.0523 -0.2217
10932SOL    HW233869   2.608   7.247   6.419 -1.1659  0.1084 -0.3395
10933SOL     OW33870   8.139   5.222   2.456  0.0311 -0.1222  0.4368
10933SOL    HW133871   8.064   5.163   2.449 -0.2453  0.3073 -0.2827
10933SOL    HW233872   8.208   5.178   2.406  0.1992 -0.4110  0.9137
10934SOL     OW33873   1.100   2.876   1.547  0.2705  0.6603  0.2812
10934SOL    HW133874   1.094   2.782   1.562 -1.6000  0.2938 -2.1570
10934SOL    HW233875   1.188   2.889   1.512  0.3078 -0.3354 -0.0402
10935SOL     OW33876   6.886   0.944   2.080  0.0370 -0.0548 -0.4801
10935SOL    HW133877   6.948   0.889   2.033  0.2685 -0.4052  0.2328
10935SOL    HW233878   6.909   0.935   2.172  0.8603  2.1663 -0.3971
10936SOL     OW33879   2.753   6.025   1.737  0.1278  0.1410  0.4477
10936SOL    HW133880   2.700   5.996   1.811 -0.7528  0.1569 -0.1650
10936SOL    HW233881   2.769   6.118   1.753  0.3460  0.0333  0.8560
10937SOL     OW33882   6.063   4.529   4.203  0.0328 -0.4552  0.6160
10937SOL    HW133883   6.030   4.618   4.212  1.0042 -0.0182  0.0085
10937SOL    HW233884   6.072   4.496   4.293  0.3592  0.3191  0.8701
10938SOL     OW33885   1.280   1.794   1.611  0.7308  0.1381 -0.2212
10938SOL    HW133886   1.259   1.810   1.519 -0.5630  1.6228  0.2971
10938SOL    HW233887   1.285   1.698   1.618 -1.1529 -0.1005 -1.4185
10939SOL     OW33888   0.011   6.278   0.913  0.0604 -0.2285 -0.6323
10939SOL    HW133889   0.070   6.257   0.986  0.0278 -1.4342 -0.9210
10939SOL    HW233890  -0.031   6.360   0.938  1.0065  0.0457  0.1118
10940SOL     OW33891   3.488   2.364   0.855 -0.2895  0.1491 -0.0744
10940SOL    HW133892   3.574   2.356   0.814 -0.5010 -0.2233 -0.4556
10940SOL    HW233893   3.426   2.359   0.781 -0.7699 -2.2229  0.3887
10941SOL     OW33894   6.948   0.594   3.474 -0.5079  0.2923 -0.3777
10941SOL    HW133895   7.002   0.570   3.398 -0.7053  0.0198 -0.4328
10941SOL    HW233896   6.981   0.538   3.545  1.2382  2.1340  0.3600
10942SOL     OW33897   7.162   2.578   4.525 -0.1550  0.0598  0.0904
10942SOL    HW133898   7.237   2.632   4.501  0.3198 -0.3824  0.5169
10942SOL    HW233899   7.185   2.490   4.494  0.3766 -0.4805  1.8464
10943SOL     OW33900   3.278   1.956   2.632  1.0560 -0.1237  0.0160
10943SOL    HW133901   3.193   1.987   2.603  0.0370 -0.9799  1.9207
10943SOL    HW233902   3.287   1.869   2.594  0.6666 -0.3914  0.5263
10944SOL     OW33903   1.653   1.601   3.254 -0.4360  0.4297 -0.3022
10944SOL    HW133904   1.748   1.588   3.249 -0.0803  2.3661  0.5328
10944SOL    HW233905   1.630   1.642   3.171 -0.8557 -1.3913 -1.1513
10945SOL     OW33906   0.293   6.641   1.959  0.0928 -0.4767  0.3428
10945SOL    HW133907   0.311   6.563   2.011  0.1833 -0.2365  0.6768
10945SOL    HW233908   0.208   6.624   1.919  0.9360 -1.5320 -1.0934
10946SOL     OW33909   7.735   1.234   4.474  0.0563 -0.0642 -0.2686
10946SOL    HW133910   7.719   1.327   4.487 -0.4026  0.4601 -3.6758
10946SOL    HW233911   7.824   1.219   4.507  0.3135  1.6533 -0.1198
10947SOL     OW33912   5.593   3.484   2.492 -0.2841 -0.1538 -0.4112
10947SOL    HW133913   5.626   3.531   2.568 -0.4714 -1.4206  0.4835
10947SOL    HW233914   5.507   3.451   2.519  0.5883 -2.5548 -0.3185
10948SOL     OW33915   7.815   2.495   5.751  0.0399 -0.7986  0.3273
10948SOL    HW133916   7.726   2.529   5.758 -0.3649 -1.6892 -0.3643
10948SOL    HW233917   7.807   2.416   5.698  1.2501 -0.8707  0.2207
10949SOL     OW33918   7.825   6.833   2.662  0.3079 -0.2973 -0.6180
10949SOL    HW133919   7.755   6.784   2.704  0.5195  0.5553  0.8062
10949SOL    HW233920   7.796   6.846   2.572 -1.1174 -0.3746 -0.1799
10950SOL     OW33921   2.239   5.369   1.257 -0.7920 -0.3238  0.0378
10950SOL    HW133922   2.307   5.307   1.230 -0.6965 -0.1672 -0.0845
10950SOL    HW233923   2.272   5.455   1.229 -1.1591 -0.2751 -0.2572
10951SOL     OW33924   2.830   5.779   5.950  0.5810  0.5191 -0.7338
10951SOL    HW133925   2.753   5.732   5.917  0.2134 -0.1437  0.9606
10951SOL    HW233926   2.795   5.837   6.019  1.5586  0.3389 -0.0652
10952SOL     OW33927   6.999   5.744   5.425 -0.5266  0.6587  0.4058
10952SOL    HW133928   6.981   5.716   5.515 -0.8952 -0.4666 -0.0045
10952SOL    HW233929   6.912   5.760   5.387 -0.5170 -0.8883 -0.3583
10953SOL     OW33930   3.985   6.963   2.732  0.2602 -0.1152 -0.1245
10953SOL    HW133931   4.044   7.034   2.757  1.9658 -1.4546 -0.1041
10953SOL    HW233932   3.935   6.943   2.811 -1.0113  1.7082 -0.4167
10954SOL     OW33933   7.831   7.064   2.447  0.1296 -0.0382  0.6094
10954SOL    HW133934   7.846   6.980   2.405  4.0082  1.2591 -1.0589
10954SOL    HW233935   7.904   7.074   2.508 -0.4736  1.9252  1.0963
10955SOL     OW33936   2.090   0.253   6.148  0.5121  0.2890  0.2778
10955SOL    HW133937   2.181   0.222   6.152  0.1182 -1.0022 -0.2020
10955SOL    HW233938   2.058   0.244   6.237  0.7210  0.3291  0.3591
10956SOL     OW33939   5.896   3.840   3.773 -0.1412 -0.2202 -0.2188
10956SOL    HW133940   5.955   3.766   3.764  0.2124 -0.0687  0.7634
10956SOL    HW233941   5.841   3.818   3.849 -1.1639 -0.2279 -0.9338
10957SOL     OW33942   5.384   7.726   6.566  0.4036  0.2680 -0.1569
10957SOL    HW133943   5.351   7.800   6.514 -1.5161  0.9351  1.8744
10957SOL    HW233944   5.307   7.671   6.582  1.1459 -0.4508  1.0978
10958SOL     OW33945   0.984   0.292   2.134 -0.2598  0.0552 -0.1756
10958SOL    HW133946   1.072   0.319   2.159 -1.0338  0.7819  1.9625
10958SOL    HW233947   0.926   0.349   2.184 -1.9554 -1.0295 -0.8225
10959SOL     OW33948   7.761   5.380   5.112 -0.0926 -0.4193 -0.0088
10959SOL    HW133949   7.704   5.449   5.078  0.9662  0.5682  0.1180
10959SOL    HW233950   7.824   5.427   5.167  2.5927 -1.0327 -2.3315
10960SOL     OW33951   7.334   2.942   7.486 -0.2551  0.0012 -0.2409
10960SOL    HW133952   7.343   3.031   7.451  0.3637  0.6015  1.3508
10960SOL    HW233953   7.415   2.927   7.535 -0.6858 -1.1590  0.1536
10961SOL     OW33954   7.149   0.521   1.053  0.2307 -0.0086 -0.0360
10961SOL    HW133955   7.135   0.430   1.027 -1.1729  0.2579 -0.2764
10961SOL    HW233956   7.225   0.548   1.002 -1.8027  0.1903 -3.2516
10962SOL     OW33957   3.807   4.837   2.235 -0.2894 -1.0067 -0.6612
10962SOL    HW133958   3.832   4.917   2.189 -1.6422 -1.1377 -1.6852
10962SOL    HW233959   3.730   4.861   2.287  1.3830 -0.7858  1.8699
10963SOL     OW33960   3.452   4.604   4.874 -0.1154 -0.1096 -0.3224
10963SOL    HW133961   3.469   4.537   4.808 -2.8892 -0.5623 -0.6966
10963SOL    HW233962   3.417   4.678   4.824  0.1380  0.4946  0.3831
10964SOL     OW33963   2.821   2.911   2.097  0.4607 -0.5559  0.2983
10964SOL    HW133964   2.733   2.936   2.069  0.6356  0.2099  0.4325
10964SOL    HW233965   2.868   2.892   2.016  0.2262 -0.8161  0.2191
10965SOL     OW33966   1.106   2.074   7.448 -0.1516  0.2703  0.2848
10965SOL    HW133967   1.052   2.145   7.413  0.6989 -0.1869 -2.1276
10965SOL    HW233968   1.043   2.006   7.473 -0.8774  1.2051  1.0461
10966SOL     OW33969   2.405   4.011   4.304  0.2614 -0.2397  0.4125
10966SOL    HW133970   2.499   4.013   4.288  0.1027 -1.9946 -1.0026
10966SOL    HW233971   2.397   4.008   4.400  1.6130  0.0976  0.5499
10967SOL     OW33972   4.179   6.683   6.400 -0.1725 -0.0016  0.7881
10967SOL    HW133973   4.150   6.774   6.397 -1.4534 -0.3505  1.6715
10967SOL    HW233974   4.271   6.686   6.375 -0.4218  1.4247 -0.0740
10968SOL     OW33975   3.332   5.541   4.616  0.4604  0.8936 -0.2611
10968SOL    HW133976   3.334   5.621   4.667  0.0131  0.9548 -0.3362
10968SOL    HW233977   3.245   5.503   4.632  0.2678  0.9709 -1.0465
10969SOL     OW33978   7.569   7.027   6.186  0.2651 -0.2484 -0.0702
10969SOL    HW133979   7.615   6.988   6.260 -0.8229 -0.3284  0.5888
10969SOL    HW233980   7.549   6.953   6.128  1.1297 -0.1834 -0.4558
10970SOL     OW33981   4.152   3.290   5.253  0.0679  0.5664  0.0586
10970SOL    HW133982   4.063   3.325   5.256  0.0164  0.6294 -1.4094
10970SOL    HW233983   4.142   3.203   5.215  0.7248  1.0783 -1.3995
10971SOL     OW33984   0.909   2.772   6.953 -0.0645 -0.1861  0.1248
10971SOL    HW133985   0.999   2.742   6.943  0.2014  0.5862  0.1715
10971SOL    HW233986   0.862   2.729   6.881  0.7734  1.0995 -1.2485
10972SOL     OW33987   2.879   3.474   4.538 -0.2020 -0.0099  0.3273
10972SOL    HW133988   2.909   3.527   4.612  2.0761  0.0130 -0.5352
10972SOL    HW233989   2.877   3.535   4.465 -0.6776 -0.4317 -0.0158
10973SOL     OW33990   8.052   2.471   6.645  0.3207  0.0522 -0.2062
10973SOL    HW133991   8.038   2.422   6.564  0.9185 -0.7011  0.1351
10973SOL    HW233992   8.132   2.522   6.628  1.2509 -1.1560  0.3669
10974SOL     OW33993   0.134   2.409   3.251  0.2710 -1.0365  0.1994
10974SOL    HW133994   0.146   2.327   3.299  0.2184 -0.2563  1.6016
10974SOL    HW233995   0.203   2.408   3.186  1.3304 -1.4501  1.2860
10975SOL     OW33996   5.612   4.215   3.239  0.5228 -0.2858  0.5773
10975SOL    HW133997   5.620   4.310   3.251  2.3260 -0.2234 -0.8014
10975SOL    HW233998   5.690   4.179   3.280 -1.1404 -1.4427  2.9917
10976SOL     OW33999   4.254   7.505   5.218  0.1393 -0.0700  0.0094
10976SOL    HW134000   4.198   7.450   5.272 -0.2155  0.6574  0.4009
10976SOL    HW234001   4.195   7.543   5.153  0.7620 -1.9191 -1.7523
10977SOL     OW34002   7.551   3.012   0.079 -0.0347  0.1012 -0.1385
10977SOL    HW134003   7.526   3.012  -0.013 -2.2747 -1.0607  0.3982
10977SOL    HW234004   7.647   3.007   0.078 -0.0679 -1.2410 -2.4118
10978SOL     OW34005   2.023   0.109   7.093 -0.2600  0.4797 -0.2321
10978SOL    HW134006   1.989   0.197   7.073  0.2997  0.3949 -1.7305
10978SOL    HW234007   2.101   0.101   7.037  0.1673 -0.6641  0.4990
10979SOL     OW34008   2.442   1.180   3.142 -0.3723  0.1107  0.0944
10979SOL    HW134009   2.481   1.143   3.064  1.5720 -1.0870  1.5573
10979SOL    HW234010   2.493   1.259   3.160  0.0858 -0.3550  0.8916
10980SOL     OW34011   2.590   1.819   5.112 -0.6004  0.0274  0.1074
10980SOL    HW134012   2.629   1.739   5.148  0.2821  1.1122  1.6806
10980SOL    HW234013   2.628   1.827   5.025  1.0653 -0.0973  0.7875
10981SOL     OW34014   0.272   3.044   3.539 -0.0645  0.2739 -0.0845
10981SOL    HW134015   0.233   2.982   3.602 -0.0596 -0.7524 -1.0541
10981SOL    HW234016   0.354   3.070   3.581 -1.1495  1.4817  1.4049
10982SOL     OW34017   2.731   7.944   7.056 -0.0924  0.1257  0.2709
10982SOL    HW134018   2.724   7.870   7.116  0.3606 -1.3861 -1.4350
10982SOL    HW234019   2.816   7.983   7.076  0.4654 -0.9279  0.0629
10983SOL     OW34020   3.862   4.163   2.250 -0.2047  0.2196 -0.0083
10983SOL    HW134021   3.823   4.219   2.183 -1.1422  1.3657  1.4338
10983SOL    HW234022   3.833   4.201   2.333  0.2326 -1.6292  1.0549
10984SOL     OW34023   3.797   5.045   5.695 -0.5006  0.0576 -0.0242
10984SOL    HW134024   3.855   5.030   5.620 -0.1917 -2.2270  0.5834
10984SOL    HW234025   3.830   5.125   5.735  0.8622 -0.0097 -0.9434
10985SOL     OW34026   2.786   5.940   3.911 -0.5242  0.3193 -0.4595
10985SOL    HW134027   2.715   5.880   3.888  0.9113 -3.4379  3.4466
10985SOL    HW234028   2.865   5.888   3.899  1.0438  2.3053  0.7931
10986SOL     OW34029   7.174   6.968   0.199 -0.3150  0.4577 -0.0142
10986SOL    HW134030   7.252   7.008   0.239 -0.2162 -0.3086  0.5739
10986SOL    HW234031   7.125   6.932   0.273 -1.5988  1.5430 -0.3009
10987SOL     OW34032   7.530   6.363   1.801 -0.0654 -0.2196 -0.4925
10987SOL    HW134033   7.441   6.395   1.815 -0.2783  0.5901 -3.0770
10987SOL    HW234034   7.523   6.268   1.810 -1.1557 -0.1535 -0.5046
10988SOL     OW34035   6.978   7.668   1.823  0.0135 -0.0607 -0.3014
10988SOL    HW134036   6.916   7.609   1.780  0.5778 -0.8627 -0.0375
10988SOL    HW234037   6.974   7.643   1.916  1.9751 -1.3526 -0.4880
10989SOL     OW34038   5.942   2.030   5.038  0.2549 -0.1555 -0.0073
10989SOL    HW134039   5.894   2.010   4.958 -2.0489  0.4661  1.1188
10989SOL    HW234040   5.976   2.118   5.025  0.7047 -0.4169 -0.6401
10990SOL     OW34041   3.391   1.142   2.310 -0.0801  0.0223 -0.0739
10990SOL    HW134042   3.303   1.171   2.334  0.0904  1.0900 -0.6671
10990SOL    HW234043   3.377   1.069   2.250 -0.5206 -1.2258  1.4552
10991SOL     OW34044   0.923   8.081   2.784  0.6841 -0.1478  0.6842
10991SOL    HW134045   0.990   8.146   2.804  1.2149 -0.8326  1.1730
10991SOL    HW234046   0.905   8.093   2.690  0.0229  1.3736  0.9795
10992SOL     OW34047   2.616   6.891   3.952 -0.0568 -0.2356 -0.1697
10992SOL    HW134048   2.700   6.937   3.955  0.5677 -1.2198 -1.5152
10992SOL    HW234049   2.595   6.886   3.859 -2.2793  1.1115  0.1942
10993SOL     OW34050   3.558   3.007   3.991 -0.2962  0.6660 -0.2264
10993SOL    HW134051   3.549   3.053   3.907 -2.4007 -0.0588 -0.4449
10993SOL    HW234052   3.477   3.028   4.038  0.1495 -0.2398  0.9810
10994SOL     OW34053   5.301   1.127   1.837  0.5765  0.7652  0.6372
10994SOL    HW134054   5.308   1.217   1.869 -0.7885  1.1030  0.0913
10994SOL    HW234055   5.389   1.106   1.805  0.6535  2.3635 -0.3362
10995SOL     OW34056   3.888   1.936   8.021  0.2596 -0.3768  0.3997
10995SOL    HW134057   3.891   1.960   7.929 -0.7175 -0.0791  0.4404
10995SOL    HW234058   3.895   1.840   8.021  2.5541 -0.2776  0.1584
10996SOL     OW34059   2.094   0.103   7.895 -1.1811  0.3542  0.1544
10996SOL    HW134060   2.153   0.172   7.864 -1.1852  0.5585  0.5972
10996SOL    HW234061   2.147   0.052   7.956 -0.8521 -0.6799 -0.9403
10997SOL     OW34062   4.218   1.697   2.200  0.0159 -0.1262  0.4850
10997SOL    HW134063   4.272   1.774   2.219  0.0533  0.0224 -0.2203
10997SOL    HW234064   4.184   1.671   2.286  1.5914 -0.5219  1.0407
10998SOL     OW34065   2.319   1.795   6.209 -0.0085  0.1057 -0.3519
10998SOL    HW134066   2.316   1.744   6.128 -0.2375  0.3290 -0.4833
10998SOL    HW234067   2.309   1.886   6.181  1.5659  0.3447 -0.2276
10999SOL     OW34068   1.227   4.236   7.937 -0.3972  0.3972 -0.3440
10999SOL    HW134069   1.228   4.156   7.885  0.0508  0.9481 -1.2191
10999SOL    HW234070   1.264   4.211   8.022 -1.0261 -0.4914 -0.3193
11000SOL     OW34071   6.599   1.397   4.844  0.0091 -0.3882 -0.1409
11000SOL    HW134072   6.547   1.442   4.910  0.9917 -0.7609  0.9344
11000SOL    HW234073   6.624   1.465   4.781 -2.2953 -0.3317 -1.0723
11001SOL     OW34074   7.289   3.613   8.089  0.2989  0.3899 -0.4710
11001SOL    HW134075   7.361   3.562   8.051 -0.6163 -1.1644 -0.2153
11001SOL    HW234076   7.271   3.571   8.172 -1.1686  0.4891 -0.7158
11002SOL     OW34077   7.020   1.809   7.131  0.5923  0.3922  0.3638
11002SOL    HW134078   6.927   1.788   7.119  1.0444 -0.3931 -2.5882
11002SOL    HW234079   7.022   1.903   7.145 -0.5852  0.5713 -0.5415
11003SOL     OW34080   5.225   4.210   4.389 -0.8229 -0.2318 -0.0188
11003SOL    HW134081   5.166   4.211   4.464  0.1054 -1.2652  0.7729
11003SOL    HW234082   5.265   4.123   4.391 -0.1591  0.0202 -1.2239
11004SOL     OW34083   3.547   6.357   7.864  0.1283  0.3501 -0.1031
11004SOL    HW134084   3.604   6.295   7.818 -1.0423  0.4510 -1.7943
11004SOL    HW234085   3.539   6.321   7.953  0.3795 -1.3284 -0.7182
11005SOL     OW34086   1.687   7.102   1.563  0.4495  0.1293 -0.3347
11005SOL    HW134087   1.745   7.082   1.636  0.1999  0.0299 -0.1583
11005SOL    HW234088   1.618   7.157   1.602  0.1377 -0.1932 -0.4199
11006SOL     OW34089   3.853   4.372   2.974 -0.1721 -0.1942  0.2178
11006SOL    HW134090   3.905   4.453   2.977 -1.7451  0.8416  2.0261
11006SOL    HW234091   3.856   4.339   3.064  0.1709 -2.0038 -0.4277
11007SOL     OW34092   6.543   2.682   1.710 -0.1360  0.0479 -0.3578
11007SOL    HW134093   6.603   2.750   1.741 -0.9361  0.6632 -0.1095
11007SOL    HW234094   6.542   2.693   1.615 -0.1773  0.3228 -0.3276
11008SOL     OW34095   7.984   3.548   7.561 -0.7795  0.4543  0.0322
11008SOL    HW134096   8.060   3.598   7.530 -1.2763  1.2405  0.0695
11008SOL    HW234097   8.022   3.466   7.594 -0.1540 -0.0422 -1.8076
11009SOL     OW34098   1.719   1.040   6.920  0.5483  0.0088 -0.2910
11009SOL    HW134099   1.807   1.012   6.896  0.9897  0.0187  1.1758
11009SOL    HW234100   1.662   0.997   6.857  1.4605 -1.7419  0.0068
11010SOL     OW34101   0.544   5.751   3.637  0.3199  0.8952 -0.0106
11010SOL    HW134102   0.615   5.690   3.616 -0.6714 -0.3437  0.0898
11010SOL    HW234103   0.551   5.819   3.570  0.4269 -0.2250 -1.1770
11011SOL     OW34104   0.263   7.834   6.464 -0.0323 -0.1417 -0.6550
11011SOL    HW134105   0.237   7.816   6.555  0.3525  0.4952 -0.4049
11011SOL    HW234106   0.267   7.749   6.422  2.4945 -0.7781  0.6694
11012SOL     OW34107   1.414   0.934   2.912  0.0384  0.2872 -0.2653
11012SOL    HW134108   1.458   0.995   2.971 -0.5258 -1.4235  2.1272
11012SOL    HW234109   1.455   0.850   2.930  0.2299 -0.2441 -2.8339
11013SOL     OW34110   7.382   7.974   1.445 -0.3331 -0.3429 -0.0833
11013SOL    HW134111   7.420   7.891   1.416  0.9306 -0.2269  1.1804
11013SOL    HW234112   7.399   8.035   1.372 -0.1411 -0.8699 -0.4831
11014SOL     OW34113   0.804   3.944   5.379  0.8016 -0.7768 -0.2494
11014SOL    HW134114   0.863   4.013   5.350 -0.3661 -0.0365 -0.9721
11014SOL    HW234115   0.832   3.866   5.333  1.7528 -0.6517  0.0987
11015SOL     OW34116   6.815   3.418   7.896 -0.1866  0.7028  0.1056
11015SOL    HW134117   6.906   3.391   7.912 -0.8762 -1.8618  0.1901
11015SOL    HW234118   6.820   3.512   7.879  2.5185  0.5788 -0.2009
11016SOL     OW34119   2.091   2.776   7.505  0.8954 -0.3195  0.0042
11016SOL    HW134120   2.183   2.764   7.479  0.9875  0.6839 -0.1742
11016SOL    HW234121   2.044   2.787   7.423  0.5538 -1.1325  0.0791
11017SOL     OW34122   3.375   7.257   4.992 -0.0974 -0.8739 -0.0933
11017SOL    HW134123   3.348   7.201   4.919 -1.5498  0.0086 -0.2685
11017SOL    HW234124   3.416   7.332   4.950 -2.0892  0.2651 -0.1450
11018SOL     OW34125   8.146   3.947   3.566  0.2498  0.1303  0.1483
11018SOL    HW134126   8.115   3.868   3.522  0.1398  0.7685 -0.9631
11018SOL    HW234127   8.067   3.988   3.601  0.1300  0.4442 -0.4720
11019SOL     OW34128   2.367   3.422   7.361  0.1122 -0.0030 -0.4613
11019SOL    HW134129   2.435   3.367   7.323  3.4488  2.6794  1.0785
11019SOL    HW234130   2.378   3.411   7.456 -0.8406  1.3691 -0.1651
11020SOL     OW34131   5.015   1.954   3.726  0.0975  0.3428 -0.4654
11020SOL    HW134132   5.096   1.999   3.702 -0.2763  0.2250 -2.0776
11020SOL    HW234133   5.043   1.873   3.768  0.7792  1.1523  0.7057
11021SOL     OW34134   7.984   7.424   3.918 -0.0023  0.2977  0.0379
11021SOL    HW134135   7.981   7.345   3.864 -2.4232  1.1281 -1.1707
11021SOL    HW234136   7.996   7.495   3.856  1.3743  0.9997  1.0427
11022SOL     OW34137   7.362   0.313   3.997  0.1258 -0.1414 -0.1530
11022SOL    HW134138   7.442   0.259   3.995  0.8410  0.8733  0.0252
11022SOL    HW234139   7.385   0.387   4.054 -0.9336  0.1928 -0.1424
11023SOL     OW34140   3.639   6.674   4.912 -0.3201 -0.4483  0.5789
11023SOL    HW134141   3.569   6.609   4.901 -0.4314 -0.1520 -0.5432
11023SOL    HW234142   3.719   6.622   4.914 -0.3488 -0.6064 -0.9767
11024SOL     OW34143   6.887   2.270   3.600  0.0635 -0.1275 -0.1181
11024SOL    HW134144   6.802   2.311   3.616  0.7658  1.4839 -0.3142
11024SOL    HW234145   6.884   2.244   3.508  0.4909  1.8037 -0.7253
11025SOL     OW34146   1.436   2.965   7.852 -0.4113  0.0037 -0.1693
11025SOL    HW134147   1.351   2.934   7.822  0.7765 -2.5889 -1.1268
11025SOL    HW234148   1.471   3.015   7.778 -1.3840  1.8368  0.5428
11026SOL     OW34149   4.918   3.718   0.895  0.0653 -0.1008  1.0336
11026SOL    HW134150   4.914   3.751   0.984 -0.2659  0.5555  0.7834
11026SOL    HW234151   4.997   3.758   0.858 -1.1221  1.7212  0.2529
11027SOL     OW34152   6.993   6.264   6.033 -0.6993  0.2523 -0.0130
11027SOL    HW134153   7.060   6.328   6.007  0.4606 -0.9214  0.0161
11027SOL    HW234154   7.023   6.231   6.118 -1.1850 -0.4788 -0.1220
11028SOL     OW34155   7.803   5.527   2.941 -0.3311  0.2476  0.1906
11028SOL    HW134156   7.788   5.622   2.946 -3.3723 -0.0326 -1.1574
11028SOL    HW234157   7.735   5.490   2.996  0.7440 -1.2038  0.5879
11029SOL     OW34158   2.460   4.264   1.673 -0.1622 -0.4638 -0.0673
11029SOL    HW134159   2.407   4.195   1.713 -0.9111 -0.9433 -1.7815
11029SOL    HW234160   2.548   4.227   1.668  0.1989 -0.0102  1.9637
11030SOL     OW34161   7.692   0.610   1.319 -0.5123  0.2650 -0.4604
11030SOL    HW134162   7.698   0.595   1.225  0.7247 -1.2935 -0.1686
11030SOL    HW234163   7.740   0.692   1.332 -0.0863  0.1367 -1.1195
11031SOL     OW34164   4.183   0.468   0.517 -0.0206  0.2279  0.2031
11031SOL    HW134165   4.147   0.467   0.429 -0.8299  1.1290  0.5107
11031SOL    HW234166   4.265   0.517   0.509 -0.1398  0.3899 -0.0328
11032SOL     OW34167   7.248   2.420   0.519 -0.3874  0.1229  0.0631
11032SOL    HW134168   7.249   2.437   0.425 -0.4539  2.2987  0.3903
11032SOL    HW234169   7.208   2.499   0.557  2.4777  0.7579  2.1379
11033SOL     OW34170   1.669   7.321   6.169 -0.2123 -0.1561 -0.1330
11033SOL    HW134171   1.646   7.391   6.229 -0.3643 -1.0937  0.9380
11033SOL    HW234172   1.585   7.280   6.146  0.0293 -1.4821  1.1673
11034SOL     OW34173   2.782   4.233   6.083  0.5815 -0.3006  0.4356
11034SOL    HW134174   2.840   4.309   6.088 -2.2534  2.0954 -0.1791
11034SOL    HW234175   2.800   4.196   5.996  0.3641  1.1886 -0.2870
11035SOL     OW34176   4.143   6.307   4.130 -0.1025  0.2443  0.0099
11035SOL    HW134177   4.183   6.264   4.054  1.9617  0.4928  0.8954
11035SOL    HW234178   4.152   6.400   4.112  1.9414  0.3374  1.2538
11036SOL     OW34179   2.515   2.725   6.996  0.2260  0.6866 -0.2503
11036SOL    HW134180   2.593   2.702   6.946  0.2252 -0.0161  0.0634
11036SOL    HW234181   2.535   2.810   7.034  0.0275  1.4946 -1.8626
11037SOL     OW34182   2.959   3.419   4.004  0.8999  0.6840 -0.0899
11037SOL    HW134183   3.015   3.460   4.070 -0.8623  1.8248  0.7718
11037SOL    HW234184   2.903   3.359   4.053  2.0296 -1.2896 -1.0799
11038SOL     OW34185   1.284   3.468   5.000  0.5258  0.1242 -0.1658
11038SOL    HW134186   1.218   3.413   4.959 -0.8634  2.2627 -0.9501
11038SOL    HW234187   1.303   3.535   4.935  2.2911  0.5134  0.6883
11039SOL     OW34188   4.086   1.157   2.622 -0.6008  0.2252 -0.0746
11039SOL    HW134189   4.093   1.195   2.534 -0.9293 -0.3140 -0.3382
11039SOL    HW234190   4.112   1.228   2.681 -0.2292  0.5440 -0.6160
11040SOL     OW34191   2.362   4.126   0.733 -0.4593  0.2007 -0.2936
11040SOL    HW134192   2.389   4.040   0.702  0.0183  0.3937 -0.4190
11040SOL    HW234193   2.273   4.113   0.765 -0.9200 -0.0299 -1.6069
11041SOL     OW34194   7.942   5.532   7.761 -0.4917 -0.2852 -0.2058
11041SOL    HW134195   8.025   5.485   7.757 -0.1088  0.3157  0.5824
11041SOL    HW234196   7.963   5.621   7.732 -1.0867 -0.4046 -1.0616
11042SOL     OW34197   5.993   3.156   4.765 -0.4072  0.3634  0.2032
11042SOL    HW134198   6.071   3.101   4.773  0.8564  1.9162 -0.8424
11042SOL    HW234199   5.928   3.099   4.723  0.8120 -0.4107 -0.7064
11043SOL     OW34200   4.345   5.287   7.556 -0.2873 -0.1690 -0.1381
11043SOL    HW134201   4.381   5.353   7.497  1.2970 -1.1940 -0.3689
11043SOL    HW234202   4.326   5.212   7.501 -0.6211 -0.4621  0.3626
11044SOL     OW34203   5.321   6.784   2.074 -0.5026 -0.2768  0.0326
11044SOL    HW134204   5.277   6.705   2.105 -2.3662  0.9777  0.7609
11044SOL    HW234205   5.251   6.848   2.064  0.9743  1.3602 -0.3462
11045SOL     OW34206   2.638   6.632   7.109  0.3230 -0.0375 -0.1819
11045SOL    HW134207   2.645   6.695   7.181 -2.2948  1.5621 -1.1750
11045SOL    HW234208   2.726   6.629   7.071  1.4120  0.1382  2.1632
11046SOL     OW34209   7.282   3.529   2.307 -0.2776  0.0818  0.1976
11046SOL    HW134210   7.359   3.475   2.326 -0.1144  0.1048 -0.3902
11046SOL    HW234211   7.222   3.512   2.380 -0.1985 -0.8378  0.0490
11047SOL     OW34212   3.174   7.044   7.070 -0.5898 -0.4072 -0.0812
11047SOL    HW134213   3.093   7.084   7.102 -0.3110 -0.2812  0.4898
11047SOL    HW234214   3.242   7.106   7.097 -0.3811 -0.0411 -1.3752
11048SOL     OW34215   6.939   3.307   3.817 -0.0140 -0.2709  0.4798
11048SOL    HW134216   7.005   3.294   3.885  0.4931 -0.8190 -0.1020
11048SOL    HW234217   6.968   3.252   3.745 -0.9375 -0.2609  0.0858
11049SOL     OW34218   4.578   3.841   3.707  0.5812 -0.1951  0.1543
11049SOL    HW134219   4.496   3.853   3.659 -0.1304  0.1088  1.4117
11049SOL    HW234220   4.611   3.930   3.722  1.3803 -0.3256 -0.7061
11050SOL     OW34221   2.036   7.292   2.182  0.4616  0.6478 -0.0754
11050SOL    HW134222   1.995   7.305   2.096  0.4693 -0.3735 -0.2484
11050SOL    HW234223   2.119   7.249   2.162 -0.5549 -1.7716  0.5539
11051SOL     OW34224   3.566   5.665   3.255 -0.8774  0.0482  0.3066
11051SOL    HW134225   3.556   5.642   3.162  0.2166 -0.4996  0.3109
11051SOL    HW234226   3.526   5.751   3.263 -0.6726  0.2555 -0.7601
11052SOL     OW34227   6.331   0.813   3.476 -0.4243  0.2408  0.2334
11052SOL    HW134228   6.292   0.856   3.552 -0.0895  2.6233 -0.8581
11052SOL    HW234229   6.351   0.884   3.416  1.5068 -1.3373 -1.1189
11053SOL     OW34230   2.312   1.560   6.068 -0.1060 -0.1548 -0.3523
11053SOL    HW134231   2.354   1.570   5.983  0.2192  0.5872 -0.1169
11053SOL    HW234232   2.221   1.537   6.048 -0.0992  0.2867 -0.9081
11054SOL     OW34233   8.006   7.126   0.439 -0.1368  0.0567 -0.1464
11054SOL    HW134234   8.042   7.150   0.524  0.9643  0.4545 -0.7084
11054SOL    HW234235   7.977   7.035   0.450 -0.0773  0.1283  0.6590
11055SOL     OW34236   6.767   2.632   8.048  0.1216 -0.3547 -0.6494
11055SOL    HW134237   6.758   2.540   8.071  0.3947 -0.4002 -0.7183
11055SOL    HW234238   6.814   2.671   8.121 -1.5961  0.1237  0.2584
11056SOL     OW34239   5.458   1.683   5.153 -0.0707 -0.4750  0.1297
11056SOL    HW134240   5.425   1.725   5.232 -1.9932  0.6561 -1.1731
11056SOL    HW234241   5.381   1.645   5.111  0.9737 -1.5468 -0.9297
11057SOL     OW34242   7.718   4.612   6.328  0.4243 -0.1524  0.3862
11057SOL    HW134243   7.698   4.519   6.318  0.1215 -0.5830  3.7002
11057SOL    HW234244   7.643   4.648   6.376  1.4533  1.3143  0.9796
11058SOL     OW34245   7.742   7.266   2.284  0.4231  0.0228  0.0801
11058SOL    HW134246   7.742   7.205   2.210  1.9794  0.4678 -0.3252
11058SOL    HW234247   7.773   7.214   2.358  1.6241  0.2657 -0.2362
11059SOL     OW34248   5.908   5.526   2.810 -0.1257  0.5787  0.3258
11059SOL    HW134249   5.936   5.445   2.767 -1.3808  0.2085  0.1583
11059SOL    HW234250   5.945   5.596   2.756  1.2793  0.1379  0.6789
11060SOL     OW34251   8.009   0.751   3.634 -0.1810  0.6026 -0.0457
11060SOL    HW134252   7.924   0.705   3.637  0.3510 -0.3835  0.3807
11060SOL    HW234253   8.011   0.804   3.713 -0.1532  0.1753  0.2408
11061SOL     OW34254   5.196   6.598   2.529 -0.0109 -0.0315 -0.3091
11061SOL    HW134255   5.248   6.520   2.549 -0.4243 -0.5931 -1.3029
11061SOL    HW234256   5.252   6.671   2.553  0.7803 -0.6334 -0.2696
11062SOL     OW34257   2.919   7.306   5.279  0.2273 -0.5202  0.1810
11062SOL    HW134258   2.972   7.311   5.199 -0.6474  0.5699 -0.3516
11062SOL    HW234259   2.829   7.306   5.248 -0.1176 -1.1418  1.1369
11063SOL     OW34260   0.424   6.234   0.985 -0.2306 -0.6810 -0.4524
11063SOL    HW134261   0.512   6.238   0.948 -0.3316  0.3432 -0.6063
11063SOL    HW234262   0.417   6.145   1.020  1.2065 -0.4940  0.4058
11064SOL     OW34263   3.764   2.908   4.549  0.5763 -0.1871 -0.1647
11064SOL    HW134264   3.848   2.948   4.573 -0.3451  1.2029  0.9335
11064SOL    HW234265   3.703   2.982   4.541 -0.1690 -0.9797 -2.8146
11065SOL     OW34266   7.496   3.831   0.006 -0.2353  0.8088 -0.4869
11065SOL    HW134267   7.449   3.784   0.076  0.5035 -1.2900 -1.3184
11065SOL    HW234268   7.557   3.888   0.053  0.2623 -0.5683  0.6089
11066SOL     OW34269   5.174   2.612   4.649  0.2001  0.5785 -0.2363
11066SOL    HW134270   5.099   2.623   4.590  0.0145  1.0745  0.0801
11066SOL    HW234271   5.229   2.545   4.607 -0.4937  0.0964 -0.3986
11067SOL     OW34272   5.485   7.130   6.681 -0.6407  0.9596 -1.1943
11067SOL    HW134273   5.511   7.118   6.772 -1.6129 -1.2365 -1.1554
11067SOL    HW234274   5.422   7.201   6.682 -1.6439  0.0863  0.0727
11068SOL     OW34275   2.455   3.442   2.709  0.0542  0.3745  0.2770
11068SOL    HW134276   2.517   3.508   2.739  0.4129  1.0216 -1.7152
11068SOL    HW234277   2.469   3.438   2.614 -1.5053 -0.9711  0.0670
11069SOL     OW34278   5.040   5.186   1.623 -0.4015  0.3873 -0.1386
11069SOL    HW134279   5.021   5.274   1.656 -1.4742  0.2038 -0.2435
11069SOL    HW234280   4.974   5.170   1.556  0.9699  0.2464 -1.5038
11070SOL     OW34281   1.718   6.768   3.313 -0.2796  0.5868 -0.1814
11070SOL    HW134282   1.696   6.719   3.393 -0.1825  0.7233 -0.0704
11070SOL    HW234283   1.702   6.860   3.336 -0.1157  0.6389 -0.2736
11071SOL     OW34284   6.599   7.894   8.022 -0.4872 -0.3060  0.0376
11071SOL    HW134285   6.674   7.947   7.994  0.4162 -0.5491  1.8386
11071SOL    HW234286   6.617   7.806   7.987 -0.2027 -0.2373  0.0112
11072SOL     OW34287   2.255   1.742   3.797 -0.4398 -0.6261  0.1679
11072SOL    HW134288   2.195   1.729   3.871 -0.6358  0.7215  0.2591
11072SOL    HW234289   2.205   1.792   3.733 -0.2378 -1.7043 -0.8610
11073SOL     OW34290   2.725   1.784   2.207  0.4339  0.4774 -0.4455
11073SOL    HW134291   2.800   1.725   2.201  2.9488  3.5382 -1.9884
11073SOL    HW234292   2.723   1.829   2.123 -2.3784  1.5067  0.0626
11074SOL     OW34293   3.168   6.836   3.348 -0.6795 -0.6506 -0.6914
11074SOL    HW134294   3.124   6.893   3.285 -1.9703 -1.0056 -0.1558
11074SOL    HW234295   3.240   6.888   3.382 -2.8722  1.4262  1.1143
11075SOL     OW34296   5.768   7.036   3.811  0.4387  0.7919  0.0508
11075SOL    HW134297   5.692   7.083   3.846 -1.5828 -0.7189 -1.9782
11075SOL    HW234298   5.733   6.952   3.783  2.7936  0.1897 -1.3886
11076SOL     OW34299   3.376   7.988   7.258 -0.0921  0.2934 -0.3152
11076SOL    HW134300   3.440   7.921   7.282 -0.3222 -0.4032 -1.5492
11076SOL    HW234301   3.427   8.068   7.250  0.8798 -0.4610 -2.3582
11077SOL     OW34302   3.855   7.908   1.941 -0.2489 -0.1568  0.6444
11077SOL    HW134303   3.856   7.935   2.033  1.4367 -1.2093  0.9878
11077SOL    HW234304   3.765   7.877   1.926 -0.5391 -0.0173  1.9597
11078SOL     OW34305   5.520   3.528   7.074 -0.3040 -0.3594  0.3482
11078SOL    HW134306   5.545   3.480   6.994 -0.6548  1.3068 -0.8221
11078SOL    HW234307   5.518   3.620   7.046 -1.7806  0.1346  1.9515
11079SOL     OW34308   3.529   0.709   8.114 -0.6780  0.0311 -0.3855
11079SOL    HW134309   3.584   0.774   8.157 -0.6432  0.3223 -0.8643
11079SOL    HW234310   3.511   0.644   8.183  2.4451 -1.5116 -0.8201
11080SOL     OW34311   2.725   2.930   1.574  0.2729  0.2783 -0.6425
11080SOL    HW134312   2.638   2.918   1.536  0.2416  1.5847 -1.0308
11080SOL    HW234313   2.784   2.883   1.515 -0.1703 -0.6830 -0.3332
11081SOL     OW34314   0.299   2.978   7.616 -0.3054 -0.9073 -0.0536
11081SOL    HW134315   0.355   2.945   7.686  0.9710  0.1554 -0.5267
11081SOL    HW234316   0.212   2.942   7.635 -0.3004  0.3145  2.7661
11082SOL     OW34317   2.817   2.247   3.262  0.0920 -0.2230  0.1728
11082SOL    HW134318   2.893   2.304   3.254 -0.4821  0.5146 -0.0354
11082SOL    HW234319   2.818   2.194   3.182 -0.3830  0.7324 -0.4764
11083SOL     OW34320   0.113   6.872   3.922  0.0721 -0.8701  0.4817
11083SOL    HW134321   0.085   6.852   3.833  0.2877  1.8782 -0.3138
11083SOL    HW234322   0.046   6.834   3.978 -1.4149 -0.5589 -1.0168
11084SOL     OW34323   7.830   3.998   6.869  0.1754  0.6115  0.2747
11084SOL    HW134324   7.916   4.015   6.908  1.1322  0.7859 -1.7845
11084SOL    HW234325   7.816   4.071   6.809  0.5286 -1.4347 -2.5052
11085SOL     OW34326   5.087   6.899   5.245 -0.4131 -0.0792  0.4856
11085SOL    HW134327   5.142   6.932   5.316  1.8184 -0.8374 -0.7553
11085SOL    HW234328   5.115   6.808   5.234 -1.3529 -0.2423 -0.7402
11086SOL     OW34329   5.090   4.324   1.987  0.1884 -0.1746  0.3019
11086SOL    HW134330   5.124   4.310   2.076  0.8774  0.2901  0.1218
11086SOL    HW234331   5.066   4.236   1.957  1.0127 -0.4943  0.5358
11087SOL     OW34332   4.231   8.034   2.434 -0.2510 -0.1788  0.5570
11087SOL    HW134333   4.201   8.122   2.454 -1.8457 -0.1091 -1.7563
11087SOL    HW234334   4.326   8.042   2.426 -0.3934  1.4132  0.0789
11088SOL     OW34335   2.699   0.217   6.702 -0.6060 -0.2753  0.5695
11088SOL    HW134336   2.686   0.307   6.732  0.0371 -0.4978  1.5612
11088SOL    HW234337   2.785   0.217   6.661 -0.4918 -0.4998  0.8078
11089SOL     OW34338   6.869   5.393   2.023 -0.5065 -0.0852  0.7583
11089SOL    HW134339   6.879   5.303   2.056 -0.2207 -0.6730 -0.8243
11089SOL    HW234340   6.949   5.410   1.975 -0.7210  0.9016  0.7245
11090SOL     OW34341   1.795   3.909   0.295  0.1194  0.1265  0.5078
11090SOL    HW134342   1.878   3.923   0.250  0.5789  0.3986  1.4165
11090SOL    HW234343   1.755   3.835   0.250  1.4628 -0.8663  0.8945
11091SOL     OW34344   4.344   0.156   6.407  0.0746 -0.3050  0.6823
11091SOL    HW134345   4.315   0.239   6.368 -0.8359 -0.5003  0.9172
11091SOL    HW234346   4.285   0.143   6.481  1.5550 -0.1239  1.9295
11092SOL     OW34347   3.105   1.429   5.134  0.2790  0.3200 -0.0230
11092SOL    HW134348   3.019   1.411   5.097 -0.2077  0.1637  1.1411
11092SOL    HW234349   3.154   1.348   5.119  1.0575  1.1860 -2.8015
11093SOL     OW34350   6.684   3.185   5.841  0.2408  0.1215 -0.1120
11093SOL    HW134351   6.722   3.099   5.823  2.1803  1.0789 -0.9481
11093SOL    HW234352   6.648   3.213   5.756 -0.7145 -0.0189  0.2454
11094SOL     OW34353   6.784   1.700   2.849 -0.7579  0.1510 -0.1142
11094SOL    HW134354   6.735   1.765   2.898  2.2750  0.1757  3.3576
11094SOL    HW234355   6.834   1.652   2.916  2.4602 -1.0394 -3.0422
11095SOL     OW34356   6.492   7.518   1.616  0.4899  0.6570  0.2495
11095SOL    HW134357   6.425   7.566   1.665  0.7448 -0.8624  2.2205
11095SOL    HW234358   6.451   7.501   1.531 -0.5827  2.0776  0.4482
11096SOL     OW34359   6.480   0.675   7.266 -0.3406 -0.6957 -0.1515
11096SOL    HW134360   6.419   0.602   7.279 -1.6102  0.5209  1.1788
11096SOL    HW234361   6.563   0.643   7.299 -1.1486 -1.1786  1.5123
11097SOL     OW34362   6.398   5.400   5.395  0.1679  0.9207  0.2918
11097SOL    HW134363   6.351   5.462   5.338 -0.8753 -0.0988 -0.0030
11097SOL    HW234364   6.345   5.320   5.391  3.0844 -1.0913 -1.8454
11098SOL     OW34365   7.319   6.074   1.603  0.8324 -0.1335  0.1889
11098SOL    HW134366   7.231   6.100   1.631  0.4254 -1.1142 -0.1195
11098SOL    HW234367   7.304   6.019   1.526  1.9081  2.3753 -1.9725
11099SOL     OW34368   0.415   1.782   4.206 -0.5794 -0.0888  0.1790
11099SOL    HW134369   0.356   1.710   4.182  0.5906 -1.1570  0.3519
11099SOL    HW234370   0.442   1.761   4.296  0.0002  0.4174  0.1262
11100SOL     OW34371   4.148   1.024   7.491  0.1574 -0.0012 -0.1951
11100SOL    HW134372   4.070   0.977   7.521  0.0450  0.4378  0.2169
11100SOL    HW234373   4.199   1.039   7.571  0.1402  0.6620 -0.3032
11101SOL     OW34374   0.865   2.688   8.138  0.1728 -0.3861 -0.8065
11101SOL    HW134375   0.807   2.617   8.112 -1.7316  0.8198 -0.0794
11101SOL    HW234376   0.807   2.754   8.176  1.9595  1.1806 -0.6206
11102SOL     OW34377   6.652   2.607   7.604  0.3189  0.2410  0.5490
11102SOL    HW134378   6.716   2.613   7.533  1.0765 -0.9671  1.0996
11102SOL    HW234379   6.592   2.679   7.588  0.0107 -0.4420 -1.7656
11103SOL     OW34380   3.082   3.495   3.768 -0.1729 -0.1593  0.2471
11103SOL    HW134381   3.156   3.520   3.824 -0.4189 -1.9586  1.4725
11103SOL    HW234382   3.014   3.466   3.829 -1.0045 -0.8158 -0.9324
11104SOL     OW34383   5.169   5.667   7.345  0.1051 -0.6419 -0.2322
11104SOL    HW134384   5.095   5.726   7.358  0.7263 -0.1812  1.4100
11104SOL    HW234385   5.207   5.693   7.261 -1.6369 -0.9694 -1.1643
11105SOL     OW34386   1.626   7.778   1.477  0.1282  0.3171 -0.4048
11105SOL    HW134387   1.696   7.834   1.443 -1.8353  3.5258  0.3968
11105SOL    HW234388   1.557   7.783   1.412 -0.6081 -0.0756  0.3255
11106SOL     OW34389   2.284   3.138   6.513 -0.3898  0.6469 -0.3885
11106SOL    HW134390   2.189   3.148   6.519 -0.3077  3.0565 -1.6154
11106SOL    HW234391   2.314   3.222   6.477  2.1343 -0.3266 -0.7462
11107SOL     OW34392   2.737   4.540   2.292 -0.8286 -0.3920  0.5538
11107SOL    HW134393   2.689   4.494   2.223  0.7708 -0.5767 -0.5112
11107SOL    HW234394   2.672   4.597   2.333 -1.4107  1.7061 -2.8503
11108SOL     OW34395   1.855   3.288   5.587  0.0158  0.2744  0.0395
11108SOL    HW134396   1.815   3.374   5.571  1.1887  0.9193  0.4726
11108SOL    HW234397   1.847   3.242   5.504  0.1105  1.1164 -0.4470
11109SOL     OW34398   7.868   8.029   4.341  0.6719 -0.2288 -0.3572
11109SOL    HW134399   7.868   8.117   4.304  0.4004  0.2435  0.7192
11109SOL    HW234400   7.955   7.994   4.321  2.1325  1.6126  2.1474
11110SOL     OW34401   2.116   2.707   1.571 -0.1857 -0.6648 -0.0948
11110SOL    HW134402   2.116   2.770   1.499 -0.8121 -0.9855 -0.3817
11110SOL    HW234403   2.202   2.718   1.612  0.7208 -1.4297 -1.7081
11111SOL     OW34404   4.649   7.533   4.795  0.3010 -0.6372 -0.2989
11111SOL    HW134405   4.558   7.506   4.784  0.2012 -0.9078  0.9810
11111SOL    HW234406   4.660   7.541   4.890  1.6588 -0.7804 -0.4239
11112SOL     OW34407   5.477   2.940   2.539 -0.0008 -0.1753 -0.4005
11112SOL    HW134408   5.488   2.847   2.555  1.6039  0.1077  0.3396
11112SOL    HW234409   5.542   2.982   2.595  1.2798  1.2335 -2.7674
11113SOL     OW34410   4.666   0.783   4.561  0.2837 -0.0549  0.4514
11113SOL    HW134411   4.706   0.846   4.621  0.5320  0.4195 -0.1951
11113SOL    HW234412   4.713   0.701   4.576 -0.0989 -0.1200  1.3643
11114SOL     OW34413   0.027   2.660   6.092  0.2434  0.0237 -0.4716
11114SOL    HW134414   0.010   2.605   6.016  0.2523 -0.5217 -0.0828
11114SOL    HW234415  -0.001   2.608   6.167  0.9698  0.2388 -0.0325
11115SOL     OW34416   4.384   1.623   3.170 -0.0492  0.6142  0.0609
11115SOL    HW134417   4.359   1.697   3.225  0.6931  0.2670  0.8749
11115SOL    HW234418   4.407   1.553   3.231 -2.7326 -1.0533 -0.6130
11116SOL     OW34419   4.451   6.950   7.533 -0.4513 -0.4156 -0.2373
11116SOL    HW134420   4.481   6.971   7.444  1.0280  0.3550  0.4008
11116SOL    HW234421   4.375   6.894   7.520 -0.9397  0.5720 -2.0011
11117SOL     OW34422   2.339   1.789   5.215  0.1301 -0.1865  0.4013
11117SOL    HW134423   2.311   1.864   5.268  0.1015  0.1282 -0.0545
11117SOL    HW234424   2.423   1.816   5.179 -0.2132 -0.0947 -0.3315
11118SOL     OW34425   3.157   0.058   5.815  0.4159  0.3190  0.3473
11118SOL    HW134426   3.203   0.019   5.889  0.1209  0.0135  0.3703
11118SOL    HW234427   3.110   0.133   5.852 -2.1596 -1.5491  1.0858
11119SOL     OW34428   3.275   5.972   7.974  0.1392  0.1864  0.5314
11119SOL    HW134429   3.361   5.999   7.943  0.0492 -0.4208 -0.2826
11119SOL    HW234430   3.259   6.027   8.050  1.2839  0.2397  0.7552
11120SOL     OW34431   1.130   2.945   3.741 -0.5530 -0.1748  0.4191
11120SOL    HW134432   1.155   2.857   3.713 -0.0904  0.4980 -1.3767
11120SOL    HW234433   1.037   2.951   3.723 -0.8607 -0.6819  1.6965
11121SOL     OW34434   6.864   5.509   2.588 -0.4594  0.1267 -0.1611
11121SOL    HW134435   6.936   5.569   2.573 -1.3459  1.2257 -0.1896
11121SOL    HW234436   6.804   5.525   2.514 -0.7923 -0.6727 -0.0760
11122SOL     OW34437   3.994   2.566   7.077  0.4373 -0.0816 -0.4361
11122SOL    HW134438   4.013   2.577   6.984  0.9723 -0.9120 -0.4283
11122SOL    HW234439   3.990   2.656   7.111 -0.5208  0.2659 -1.3957
11123SOL     OW34440   5.741   3.300   0.118 -0.0364  0.5414  0.1143
11123SOL    HW134441   5.765   3.223   0.170  3.2903  0.9227 -0.6452
11123SOL    HW234442   5.812   3.362   0.133 -0.1040  1.5667 -3.0616
11124SOL     OW34443   0.877   5.215   2.686  0.0819  0.0176 -0.4252
11124SOL    HW134444   0.906   5.240   2.598  0.6277 -0.6340 -0.4378
11124SOL    HW234445   0.931   5.140   2.708  0.1155  0.3256  0.5692
11125SOL     OW34446   1.725   7.022   6.220 -0.0168  0.4895 -0.3560
11125SOL    HW134447   1.702   7.111   6.192 -3.0097 -0.6424 -1.8205
11125SOL    HW234448   1.753   6.978   6.141 -1.0289 -0.5635 -0.1525
11126SOL     OW34449   3.384   7.445   6.361 -0.4386 -0.3641 -0.2036
11126SOL    HW134450   3.399   7.521   6.305  1.2182 -0.0081  0.6414
11126SOL    HW234451   3.394   7.370   6.302  0.9950  0.0156 -0.4975
11127SOL     OW34452   3.315   2.122   5.620  0.3120 -0.0605  0.1657
11127SOL    HW134453   3.376   2.196   5.622 -0.9054  0.9781 -0.2924
11127SOL    HW234454   3.303   2.099   5.712 -0.6202  1.4483  0.4485
11128SOL     OW34455   4.416   2.769   4.240  0.6812  0.0036  0.3729
11128SOL    HW134456   4.374   2.755   4.155 -2.8349  0.6473  1.8504
11128SOL    HW234457   4.367   2.714   4.301  3.0550 -0.3802  2.0733
11129SOL     OW34458   1.330   4.619   8.136 -0.5788 -0.6269 -0.7973
11129SOL    HW134459   1.335   4.529   8.170  0.5842 -0.1796  0.3215
11129SOL    HW234460   1.356   4.611   8.044 -0.2118 -1.4072 -0.6383
11130SOL     OW34461   1.448   7.805   4.005 -0.7157  0.2255  0.5305
11130SOL    HW134462   1.487   7.892   4.013 -0.2631 -0.0100  0.9475
11130SOL    HW234463   1.502   7.749   4.061 -1.3690 -0.2068  0.7394
11131SOL     OW34464   2.316   7.720   0.634 -0.2666  0.0119 -0.0207
11131SOL    HW134465   2.252   7.750   0.699 -2.4349  1.9777 -2.7683
11131SOL    HW234466   2.354   7.641   0.671 -2.1296  0.4346  3.0987
11132SOL     OW34467   0.519   7.889   8.044  0.0358  0.0148 -0.1470
11132SOL    HW134468   0.479   7.944   7.976 -0.4632 -2.3589 -1.9013
11132SOL    HW234469   0.613   7.895   8.027  0.2226  2.0850  1.1885
11133SOL     OW34470   1.844   4.839   4.687 -0.3276  0.0611 -0.2941
11133SOL    HW134471   1.775   4.846   4.620 -0.6187 -0.2357 -0.0272
11133SOL    HW234472   1.925   4.835   4.637 -0.5757 -0.6582 -0.6588
11134SOL     OW34473   2.180   0.493   6.639 -0.0685  0.2083  0.4556
11134SOL    HW134474   2.154   0.414   6.592 -0.9541  0.0225  1.2196
11134SOL    HW234475   2.198   0.462   6.728  1.9745  0.4823  0.1827
11135SOL     OW34476   4.553   5.264   2.422  0.6218 -0.2080 -0.3279
11135SOL    HW134477   4.500   5.210   2.479 -0.6346  0.0484 -1.2169
11135SOL    HW234478   4.508   5.348   2.418  2.4493  0.9033  0.8901
11136SOL     OW34479   4.528   8.150   6.302  0.0633 -0.2759 -0.0130
11136SOL    HW134480   4.481   8.222   6.344  0.3269  0.2736 -0.6452
11136SOL    HW234481   4.475   8.072   6.322  0.4435 -0.1276  1.7415
11137SOL     OW34482   3.680   7.419   6.158  0.3985 -0.1628 -0.6975
11137SOL    HW134483   3.669   7.330   6.190 -1.9325  0.2661 -0.1101
11137SOL    HW234484   3.741   7.460   6.220 -0.0971 -0.7874  0.2177
11138SOL     OW34485   1.622   6.816   4.964 -0.2645  0.1433 -0.1658
11138SOL    HW134486   1.541   6.808   5.014 -1.5807  1.1439 -1.9971
11138SOL    HW234487   1.593   6.828   4.873  1.9106  1.6515 -0.7458
11139SOL     OW34488   2.363   0.869   7.042  0.7735 -0.1661 -0.0049
11139SOL    HW134489   2.362   0.818   6.961  0.5712 -0.3354  0.1023
11139SOL    HW234490   2.306   0.820   7.101  0.5159  0.2235  0.0751
11140SOL     OW34491   3.527   6.292   0.284 -0.2536 -0.5618 -0.3934
11140SOL    HW134492   3.598   6.331   0.334 -1.2463  0.7002  0.0944
11140SOL    HW234493   3.480   6.367   0.246 -1.7284 -1.3139 -0.1246
11141SOL     OW34494   0.394   7.766   7.204 -0.2593  0.0141 -0.2376
11141SOL    HW134495   0.425   7.702   7.139 -0.5262 -1.3874  0.9495
11141SOL    HW234496   0.466   7.827   7.216  0.3865 -0.6538 -0.6849
11142SOL     OW34497   0.243   5.569   4.218  0.8765 -0.1216  0.3118
11142SOL    HW134498   0.225   5.606   4.132  1.3658 -0.6814 -0.0380
11142SOL    HW234499   0.291   5.638   4.264 -1.2658  1.0398  0.9408
11143SOL     OW34500   1.613   1.083   4.193 -0.1992  0.0230  0.1056
11143SOL    HW134501   1.567   1.000   4.205  0.6736 -0.3812  0.8238
11143SOL    HW234502   1.704   1.063   4.213 -0.0049  1.2114  0.5148
11144SOL     OW34503   0.763   2.317   1.615 -0.1298  0.5509 -0.1895
11144SOL    HW134504   0.791   2.325   1.707 -1.4236 -0.1110  0.2941
11144SOL    HW234505   0.784   2.402   1.576  0.9250  0.6571  0.5801
11145SOL     OW34506   7.172   4.683   4.283  0.6699  0.1493 -0.1873
11145SOL    HW134507   7.249   4.693   4.227  1.0557  0.0244  0.3158
11145SOL    HW234508   7.108   4.639   4.228  0.6162  1.1131 -0.9197
11146SOL     OW34509   2.107   6.483   3.816 -0.1453  0.3292 -0.2129
11146SOL    HW134510   2.060   6.512   3.895 -0.1570 -0.0420 -0.0819
11146SOL    HW234511   2.136   6.394   3.837  0.1042  0.3385 -0.5193
11147SOL     OW34512   2.937   5.113   1.039 -0.3042 -0.5890  0.2272
11147SOL    HW134513   2.955   5.184   1.100  0.6265 -0.3459 -0.3189
11147SOL    HW234514   2.859   5.141   0.991 -0.6060 -0.4551  0.7813
11148SOL     OW34515   2.425   2.201   3.436 -0.2752 -0.0054 -0.6655
11148SOL    HW134516   2.369   2.156   3.373 -1.5601  3.4147 -2.2489
11148SOL    HW234517   2.381   2.191   3.520  0.1155 -2.5025 -0.6911
11149SOL     OW34518   2.568   1.328   6.582 -0.0292 -0.7208  0.1208
11149SOL    HW134519   2.521   1.403   6.546 -0.5395 -1.2492 -0.3305
11149SOL    HW234520   2.556   1.335   6.677 -0.2160 -0.3246  0.0677
11150SOL     OW34521   5.218   3.579   0.838  0.6139  0.0065  0.2893
11150SOL    HW134522   5.175   3.662   0.818  1.5985  0.7516  1.1801
11150SOL    HW234523   5.225   3.535   0.753 -0.6531  0.4439 -0.0734
11151SOL     OW34524   7.943   1.126   5.598 -0.4409  0.1169 -0.5126
11151SOL    HW134525   7.978   1.177   5.671  1.5249 -2.5531  0.5694
11151SOL    HW234526   7.983   1.165   5.521  3.0324 -1.0830  0.4706
11152SOL     OW34527   4.660   2.841   5.065 -0.9397 -0.3735  0.2286
11152SOL    HW134528   4.676   2.801   4.979 -1.5658 -0.5920  0.2087
11152SOL    HW234529   4.714   2.920   5.066 -2.1536  0.5152 -1.0050
11153SOL     OW34530   0.320   2.667   3.618  0.7651  0.0156 -0.7558
11153SOL    HW134531   0.276   2.623   3.690 -1.5547  0.7969 -1.6103
11153SOL    HW234532   0.382   2.727   3.660 -0.9543  0.8928  0.6393
11154SOL     OW34533   3.832   4.216   7.026  0.9797 -0.0064 -0.4700
11154SOL    HW134534   3.751   4.264   7.044  2.0220  2.4871 -1.8627
11154SOL    HW234535   3.878   4.215   7.110  0.3581  0.3279 -0.1195
11155SOL     OW34536   7.309   6.472   4.195 -0.7110 -0.0955  0.0279
11155SOL    HW134537   7.330   6.560   4.164 -1.9320  1.0328  2.1549
11155SOL    HW234538   7.383   6.447   4.250  1.0364 -1.7267 -2.8419
11156SOL     OW34539   3.227   1.896   3.453 -0.1284  0.4670 -0.4525
11156SOL    HW134540   3.293   1.911   3.385  0.9704 -0.8440  0.2549
11156SOL    HW234541   3.252   1.811   3.491 -0.2838  1.4541  2.0303
11157SOL     OW34542   0.616   7.492   5.218  0.6485  0.0407 -0.0809
11157SOL    HW134543   0.534   7.462   5.181  0.5805 -0.2458  0.2970
11157SOL    HW234544   0.674   7.504   5.143  0.2921  0.1568 -0.3367
11158SOL     OW34545   3.472   0.332   7.437 -0.1439 -0.1739 -0.0362
11158SOL    HW134546   3.387   0.330   7.482  0.1601  1.8625  0.7705
11158SOL    HW234547   3.490   0.425   7.424  1.8781 -0.5504 -0.3548
11159SOL     OW34548   6.875   2.816   0.095 -0.0535  0.5267  0.4496
11159SOL    HW134549   6.950   2.867   0.063 -0.6095  1.0051 -0.1212
11159SOL    HW234550   6.882   2.821   0.191  0.2433  1.1708  0.4020
11160SOL     OW34551   6.207   1.972   7.601  0.1429  0.1775  0.0969
11160SOL    HW134552   6.300   1.991   7.611  0.0172  2.2282 -1.7627
11160SOL    HW234553   6.164   2.057   7.615 -1.3805 -0.5603  0.1148
11161SOL     OW34554   2.648   8.086   2.096 -0.1849 -0.1016  0.5502
11161SOL    HW134555   2.678   7.995   2.084  0.3502  0.2137 -0.6177
11161SOL    HW234556   2.566   8.091   2.046  0.4248  0.3758 -0.4295
11162SOL     OW34557   7.616   7.261   4.120  0.2293  0.1032  0.6423
11162SOL    HW134558   7.643   7.261   4.029  1.7724 -2.4932  0.9744
11162SOL    HW234559   7.688   7.303   4.167  0.4113 -0.3983  0.8278
11163SOL     OW34560   7.613   3.589   2.402 -0.3157  0.2387 -0.1760
11163SOL    HW134561   7.697   3.556   2.433 -0.3585  0.6114  0.3505
11163SOL    HW234562   7.629   3.619   2.313  0.0623  0.1385 -0.1400
11164SOL     OW34563   1.698   2.561   2.663  0.1442  0.2904  0.2786
11164SOL    HW134564   1.652   2.517   2.591  0.1323 -0.6183  0.8248
11164SOL    HW234565   1.778   2.595   2.623 -0.9050  1.7837 -0.6556
11165SOL     OW34566   0.393   5.661   4.912  0.4125  0.0783 -0.0676
11165SOL    HW134567   0.348   5.651   4.828  1.5236  1.2391 -0.8314
11165SOL    HW234568   0.343   5.728   4.958 -0.2606 -0.6354  0.2633
11166SOL     OW34569   5.901   6.165   4.370  0.2527  0.1227  0.0620
11166SOL    HW134570   5.929   6.215   4.293 -1.0606  1.5412  0.4577
11166SOL    HW234571   5.823   6.118   4.341  0.4212 -0.2461  0.2036
11167SOL     OW34572   4.319   1.541   5.075 -0.2254  0.1768 -0.3490
11167SOL    HW134573   4.381   1.609   5.047 -1.9595  1.8560 -0.3090
11167SOL    HW234574   4.266   1.523   4.998 -2.2147  1.6768  0.5875
11168SOL     OW34575   3.179   7.883   6.828 -0.6488 -0.2678  0.2883
11168SOL    HW134576   3.198   7.882   6.922  0.0069 -3.0328  0.2111
11168SOL    HW234577   3.098   7.832   6.820  0.0498 -1.2552 -0.7397
11169SOL     OW34578   7.813   3.455   4.368 -0.0539  0.0769  0.3167
11169SOL    HW134579   7.734   3.402   4.365 -1.3674  1.9853 -1.2995
11169SOL    HW234580   7.885   3.391   4.368 -1.5597 -1.6900  0.0079
11170SOL     OW34581   4.956   1.648   0.537  0.2468 -0.3306 -0.3938
11170SOL    HW134582   4.873   1.694   0.551  0.4505 -0.1693  0.3173
11170SOL    HW234583   5.014   1.715   0.500  0.2244 -0.3052 -0.3832
11171SOL     OW34584   8.024   6.765   0.241  0.1181 -0.2372  0.0323
11171SOL    HW134585   7.963   6.729   0.178 -0.3124 -1.0373  0.8757
11171SOL    HW234586   7.971   6.782   0.319  0.5641  1.0553  0.0765
11172SOL     OW34587   6.730   5.860   1.271 -0.0832  0.1944  0.1512
11172SOL    HW134588   6.733   5.925   1.341  0.7602  0.9974 -0.6074
11172SOL    HW234589   6.806   5.879   1.217 -1.1129  0.0702 -1.4111
11173SOL     OW34590   7.905   0.983   6.972  0.2732 -0.7198  0.2398
11173SOL    HW134591   7.887   1.005   7.063 -2.4583  0.1340 -0.3965
11173SOL    HW234592   7.936   0.892   6.975  1.4587 -0.2965  2.0759
11174SOL     OW34593   5.421   5.387   6.642 -0.1565 -0.5842  0.3888
11174SOL    HW134594   5.387   5.330   6.573 -0.6071  1.1257 -0.8396
11174SOL    HW234595   5.374   5.359   6.721 -1.4100 -0.9616 -0.4646
11175SOL     OW34596   1.416   7.198   8.044  0.0344  0.4500 -0.1776
11175SOL    HW134597   1.390   7.240   8.127 -0.2230  0.6781 -0.3725
11175SOL    HW234598   1.447   7.111   8.070 -0.2127  0.4538  0.1400
11176SOL     OW34599   4.304   4.520   5.202 -0.3206  0.4956 -0.2808
11176SOL    HW134600   4.365   4.542   5.273 -0.2161 -0.0939 -0.1790
11176SOL    HW234601   4.218   4.527   5.242 -0.3239  1.3727 -0.4364
11177SOL     OW34602   7.011   5.555   1.608  0.0029 -0.3541 -0.7202
11177SOL    HW134603   6.930   5.595   1.641 -0.1042  0.1229 -1.5438
11177SOL    HW234604   6.983   5.469   1.575 -0.1824 -0.1642 -1.0626
11178SOL     OW34605   6.492   0.831   6.918 -0.1531 -0.4681 -0.3125
11178SOL    HW134606   6.564   0.777   6.886  1.0001  0.2420  0.9962
11178SOL    HW234607   6.525   0.921   6.911 -1.0713 -0.0981 -0.0534
11179SOL     OW34608   7.319   7.497   7.251 -0.9077 -0.2113 -0.2641
11179SOL    HW134609   7.265   7.529   7.323 -0.2763  0.6104 -0.1489
11179SOL    HW234610   7.404   7.479   7.290 -0.7366 -0.3435 -0.6848
11180SOL     OW34611   6.249   2.047   7.958  0.1262 -0.2406 -0.6141
11180SOL    HW134612   6.252   1.955   7.931 -1.6480 -0.7617  0.7464
11180SOL    HW234613   6.263   2.045   8.053  1.4404  1.0537 -0.7389
11181SOL     OW34614   7.664   8.136   7.726 -0.2632 -0.0678 -0.1561
11181SOL    HW134615   7.627   8.203   7.668 -0.8144 -0.1010  0.1556
11181SOL    HW234616   7.691   8.066   7.667 -0.0642  0.2471 -0.4469
11182SOL     OW34617   6.014   3.527   7.609  0.6961 -0.3686  0.7906
11182SOL    HW134618   6.001   3.547   7.516  1.9030 -0.9529  0.4734
11182SOL    HW234619   5.927   3.536   7.648 -0.0881 -1.3480 -0.6300
11183SOL     OW34620   3.301   4.900   3.865  0.0873 -0.1315 -0.4261
11183SOL    HW134621   3.260   4.923   3.781 -0.4600 -1.2217 -0.4710
11183SOL    HW234622   3.247   4.944   3.931 -2.1141 -2.6780 -0.3801
11184SOL     OW34623   4.546   6.556   7.609 -0.4326 -0.2952 -0.1689
11184SOL    HW134624   4.565   6.475   7.561 -0.1855 -1.1699  1.3601
11184SOL    HW234625   4.453   6.572   7.592  0.2559  1.1305 -3.3959
11185SOL     OW34626   1.405   2.714   1.175  0.4319  0.2966  0.5698
11185SOL    HW134627   1.373   2.706   1.265  2.7614  1.6840  1.6174
11185SOL    HW234628   1.458   2.636   1.162  1.4972  0.9060  1.0833
11186SOL     OW34629   1.602   1.322   4.088  0.1814 -0.2988  0.8104
11186SOL    HW134630   1.513   1.326   4.051 -0.4743  2.0387  2.4509
11186SOL    HW234631   1.602   1.241   4.140 -0.4389 -1.1146 -0.3922
11187SOL     OW34632   2.674   7.497   1.548  0.2088  0.4375  0.0803
11187SOL    HW134633   2.698   7.590   1.543  0.7072  0.3339  0.3740
11187SOL    HW234634   2.752   7.451   1.516  0.2011  0.1013  0.5379
11188SOL     OW34635   2.721   1.386   1.273 -0.5464 -0.2066 -0.3436
11188SOL    HW134636   2.683   1.383   1.361  0.2071 -1.8644 -0.0344
11188SOL    HW234637   2.678   1.460   1.231 -1.3817  0.2409  1.2105
11189SOL     OW34638   7.258   4.355   3.616 -0.3398 -0.0624  1.2030
11189SOL    HW134639   7.275   4.449   3.607  0.6381 -0.3177  0.1061
11189SOL    HW234640   7.320   4.327   3.684  0.2001 -0.1086  0.7025
11190SOL     OW34641   8.012   0.968   0.961 -0.3821  0.3805  0.1037
11190SOL    HW134642   8.100   1.002   0.974 -0.3117 -0.0090  0.6891
11190SOL    HW234643   8.024   0.893   0.902 -0.4585  0.9772 -0.6760
11191SOL     OW34644   5.800   7.633   0.301 -0.1259 -0.2218 -0.5856
11191SOL    HW134645   5.782   7.549   0.257  0.7010 -1.4322  1.2653
11191SOL    HW234646   5.715   7.678   0.301 -1.1136 -1.9832  0.2068
11192SOL     OW34647   1.172   6.874   5.241 -0.3505  0.2092  0.5223
11192SOL    HW134648   1.212   6.845   5.322 -1.2699 -0.9881  0.5618
11192SOL    HW234649   1.098   6.927   5.268  0.2866  1.1698  0.4443
11193SOL     OW34650   2.399   2.248   6.990  0.8234  0.0703 -0.2502
11193SOL    HW134651   2.348   2.285   7.062  0.1577  0.0004 -0.6810
11193SOL    HW234652   2.475   2.306   6.983  1.1010 -0.1644  0.7746
11194SOL     OW34653   6.125   0.073   8.089 -1.2141 -0.2130  0.7593
11194SOL    HW134654   6.149   0.153   8.136  1.2170 -0.3953 -0.0445
11194SOL    HW234655   6.202   0.053   8.036 -1.4443 -3.5034  1.4944
11195SOL     OW34656   1.994   0.034   0.387  0.3653  0.0978 -0.1129
11195SOL    HW134657   2.086   0.061   0.392  0.0359  1.1027  3.0765
11195SOL    HW234658   1.945   0.116   0.393 -0.6826 -0.5823  1.1544
11196SOL     OW34659   7.324   5.551   4.933 -0.5852 -0.2174  0.4249
11196SOL    HW134660   7.419   5.559   4.938 -0.5609  0.0993 -0.4312
11196SOL    HW234661   7.300   5.500   5.011  0.6008 -2.9825 -0.8881
11197SOL     OW34662   6.287   0.750   2.512 -0.5527 -0.2817 -0.4070
11197SOL    HW134663   6.200   0.713   2.496 -1.8238  2.2917  0.0424
11197SOL    HW234664   6.311   0.792   2.429 -0.6389  0.6592  0.0267
11198SOL     OW34665   2.487   4.283   7.100 -0.6621 -0.6287 -0.3764
11198SOL    HW134666   2.559   4.345   7.092 -1.0101 -0.2645 -0.7714
11198SOL    HW234667   2.422   4.329   7.153  0.0415 -1.5671  1.3798
11199SOL     OW34668   7.725   0.223   5.169 -0.0321  0.0851 -0.3194
11199SOL    HW134669   7.772   0.207   5.087 -0.0924 -0.2046 -0.2990
11199SOL    HW234670   7.770   0.168   5.233 -1.4036 -1.4740 -0.6371
11200SOL     OW34671   1.032   2.854   8.001 -0.0423 -0.4244  0.9609
11200SOL    HW134672   0.966   2.799   8.044 -0.8908 -0.2309 -0.0723
11200SOL    HW234673   1.085   2.888   8.074 -1.5441  0.0301  1.8931
11201SOL     OW34674   4.944   1.312   0.840 -0.1700  0.1982 -0.0575
11201SOL    HW134675   4.956   1.246   0.772  0.2253 -0.4586  0.6331
11201SOL    HW234676   4.978   1.392   0.802 -0.4608 -0.0362 -0.8329
11202SOL     OW34677   2.106   0.014   5.232 -0.3610 -0.2728 -0.5428
11202SOL    HW134678   2.127  -0.059   5.291 -1.9730  0.5216  1.1043
11202SOL    HW234679   2.016   0.038   5.253 -0.5593  0.9241 -2.4528
11203SOL     OW34680   0.128   1.083   3.537 -0.3480  0.5430 -0.7221
11203SOL    HW134681   0.155   1.172   3.513 -1.1041  0.9607 -0.0631
11203SOL    HW234682   0.033   1.083   3.525 -0.5068  0.1885  0.4276
11204SOL     OW34683   2.000   1.545   6.764  0.4213  0.2367  0.2434
11204SOL    HW134684   2.091   1.572   6.780  0.1812  1.7064 -0.6761
11204SOL    HW234685   1.987   1.560   6.670 -0.4852 -0.8750  0.1824
11205SOL     OW34686   6.646   4.962   4.083  0.2337  0.2689  0.0860
11205SOL    HW134687   6.726   4.940   4.035  0.9101  0.2115  1.2088
11205SOL    HW234688   6.637   5.056   4.072 -0.3966  0.0775 -1.2930
11206SOL     OW34689   2.326   7.081   4.187 -0.0071  0.4072 -0.2989
11206SOL    HW134690   2.379   7.160   4.197 -1.4542  1.1214  2.9091
11206SOL    HW234691   2.272   7.098   4.110 -1.3323  3.2995  1.1097
11207SOL     OW34692   0.635   3.716   0.381  0.0032  0.2803 -0.6972
11207SOL    HW134693   0.609   3.634   0.338  0.6808 -0.2383 -0.1485
11207SOL    HW234694   0.676   3.768   0.312 -1.2313  0.5403 -1.2526
11208SOL     OW34695   5.384   2.600   5.855  0.4108  0.3928  0.1351
11208SOL    HW134696   5.302   2.610   5.807  2.0357  0.8617 -2.7899
11208SOL    HW234697   5.378   2.663   5.927 -1.1732  1.5669 -0.9623
11209SOL     OW34698   1.860   6.948   2.801  0.1364  0.6885  0.3917
11209SOL    HW134699   1.783   6.892   2.815 -0.6833  1.7152  0.1971
11209SOL    HW234700   1.822   7.033   2.777  1.3516  1.1502  0.0645
11210SOL     OW34701   1.706   0.320   0.645  0.0956 -0.0745  0.0713
11210SOL    HW134702   1.749   0.273   0.574 -0.6210 -0.0561 -0.3779
11210SOL    HW234703   1.616   0.331   0.616  0.2059  1.4667  0.2231
11211SOL     OW34704   5.630   3.571   1.352  0.1649 -0.0206  0.2129
11211SOL    HW134705   5.669   3.601   1.269 -1.4582 -0.8346 -0.8990
11211SOL    HW234706   5.652   3.640   1.415  1.8559  0.3888 -0.7607
11212SOL     OW34707   0.876   6.951   5.038  0.8091 -0.4746  0.6408
11212SOL    HW134708   0.959   6.968   4.993 -0.5709  0.6984 -1.6699
11212SOL    HW234709   0.884   6.999   5.121  2.0292  0.5593 -0.0285
11213SOL     OW34710   6.935   5.247   2.625  0.1364 -0.1096  0.3255
11213SOL    HW134711   6.879   5.199   2.564  0.3126  0.5109 -0.3423
11213SOL    HW234712   6.910   5.338   2.613  1.0473  0.1370  0.2793
11214SOL     OW34713   3.482   3.551   8.014 -0.5332  0.6861 -0.1537
11214SOL    HW134714   3.427   3.628   8.002  0.0672  0.9451 -1.4767
11214SOL    HW234715   3.557   3.566   7.956  0.0270 -0.4898  0.2286
11215SOL     OW34716   6.638   0.901   1.982 -0.1318  0.0812  0.0864
11215SOL    HW134717   6.719   0.904   2.033 -0.0049 -1.4467  0.0096
11215SOL    HW234718   6.622   0.992   1.957  1.6818  0.3843 -0.0770
11216SOL     OW34719   1.203   7.427   1.373  0.4368 -0.3554  0.0981
11216SOL    HW134720   1.108   7.431   1.380  0.2659 -1.4216 -1.2498
11216SOL    HW234721   1.220   7.410   1.280  1.9832  0.7615  0.1337
11217SOL     OW34722   0.164   7.431   6.566  0.3157  0.9860  0.4454
11217SOL    HW134723   0.256   7.433   6.542  0.4821 -0.2211  0.9035
11217SOL    HW234724   0.118   7.466   6.490  1.1227  1.2333  0.0634
11218SOL     OW34725   1.489   6.265   5.652  0.1710  0.0213  0.0128
11218SOL    HW134726   1.484   6.192   5.591 -1.0857 -0.1507  0.3022
11218SOL    HW234727   1.578   6.299   5.642  0.0390 -0.0999 -1.7886
11219SOL     OW34728   0.379   3.045   4.574  0.0379  0.1673  0.0337
11219SOL    HW134729   0.380   3.125   4.522  1.6901  0.1575  0.0148
11219SOL    HW234730   0.409   2.976   4.514  2.6363  0.2675  1.0700
11220SOL     OW34731   7.767   2.027   1.787 -0.0174  0.5832 -0.5422
11220SOL    HW134732   7.803   1.938   1.781  0.5292  0.7718 -0.1255
11220SOL    HW234733   7.719   2.027   1.870 -0.7558  0.4231 -0.9552
11221SOL     OW34734   1.853   0.021   5.377  0.1543  0.4830  0.0370
11221SOL    HW134735   1.867  -0.072   5.393 -0.5191  0.3766  0.0392
11221SOL    HW234736   1.903   0.066   5.446  1.9898  0.1913 -1.0329
11222SOL     OW34737   0.417   3.804   3.281  0.3064 -0.1683 -0.2646
11222SOL    HW134738   0.325   3.821   3.303  0.2800 -0.7015  0.0472
11222SOL    HW234739   0.466   3.867   3.334  0.0286  2.3394 -2.6940
11223SOL     OW34740   6.306   3.641   1.492 -0.5333  0.2007  0.4044
11223SOL    HW134741   6.216   3.638   1.526 -1.1424  0.4708 -1.0928
11223SOL    HW234742   6.348   3.564   1.531 -1.6910 -0.4552  0.4293
11224SOL     OW34743   0.848   3.313   4.686  0.0038  0.0826  0.5120
11224SOL    HW134744   0.933   3.269   4.691  0.0757  0.0571 -0.7553
11224SOL    HW234745   0.785   3.245   4.711  0.4022  0.4662  2.8630
11225SOL     OW34746   7.321   7.842   5.448  0.3831  0.5100 -0.0125
11225SOL    HW134747   7.280   7.802   5.371  0.0488  0.2150  0.3175
11225SOL    HW234748   7.364   7.768   5.493 -0.1891  0.5233  0.5696
11226SOL     OW34749   2.344   4.514   7.212 -0.2464  0.2707  0.4658
11226SOL    HW134750   2.332   4.573   7.138  1.4565  0.5099  0.3448
11226SOL    HW234751   2.259   4.514   7.256  0.2249  4.6695  1.8427
11227SOL     OW34752   2.115   0.459   7.323  0.2181 -0.1231  0.2430
11227SOL    HW134753   2.168   0.423   7.251 -0.5855 -0.9396  0.0370
11227SOL    HW234754   2.088   0.382   7.373  0.7967  0.4430  1.4552
11228SOL     OW34755   6.712   0.676   5.484 -0.4508  0.4814 -0.4860
11228SOL    HW134756   6.722   0.747   5.422  0.0439  0.6855 -0.1869
11228SOL    HW234757   6.690   0.600   5.431  1.1326  0.3797 -1.0704
11229SOL     OW34758   6.419   2.489   1.383  0.2661  0.0815  0.2562
11229SOL    HW134759   6.505   2.488   1.341  0.2587 -0.3534  0.2473
11229SOL    HW234760   6.406   2.399   1.413 -0.0216  0.2349  0.5912
11230SOL     OW34761   3.971   1.044   1.469  0.3610  0.4328 -0.5887
11230SOL    HW134762   4.036   0.981   1.500  0.1501  0.5999  0.2212
11230SOL    HW234763   3.938   1.006   1.387 -1.0648 -1.4551  0.7646
11231SOL     OW34764   5.464   6.954   4.359 -0.2663  0.0088 -0.4702
11231SOL    HW134765   5.516   6.999   4.292 -0.4847  0.1870 -0.5233
11231SOL    HW234766   5.509   6.972   4.441  1.5568 -2.4174 -0.8125
11232SOL     OW34767   0.132   0.835   1.282 -0.0620 -0.4771 -0.4520
11232SOL    HW134768   0.129   0.927   1.254 -0.6627 -0.6524 -0.9829
11232SOL    HW234769   0.225   0.812   1.278  0.0211 -0.0766 -0.9178
11233SOL     OW34770   6.514   1.764   2.073  0.2011  0.0532 -0.0750
11233SOL    HW134771   6.486   1.808   2.154 -0.6281  2.6261 -1.6483
11233SOL    HW234772   6.433   1.752   2.024  0.5747 -2.3151 -0.2198
11234SOL     OW34773   0.916   3.159   2.252  0.0328 -0.6971 -0.5896
11234SOL    HW134774   0.965   3.241   2.260 -2.3064  0.8160 -0.9324
11234SOL    HW234775   0.867   3.152   2.334 -1.1286 -0.8180 -1.2767
11235SOL     OW34776   7.329   2.231   0.915 -0.8642 -0.2953  0.0045
11235SOL    HW134777   7.320   2.323   0.937 -1.1242 -0.2834 -0.1511
11235SOL    HW234778   7.346   2.187   0.998  0.7059  0.0776 -0.0920
11236SOL     OW34779   2.859   3.167   2.221  0.2981  0.2909 -0.6645
11236SOL    HW134780   2.789   3.224   2.254  0.4329 -0.0361  0.2155
11236SOL    HW234781   2.831   3.079   2.246  1.2360  0.1971  0.0863
11237SOL     OW34782   6.483   3.081   6.865  0.0302 -0.3393  0.4021
11237SOL    HW134783   6.388   3.079   6.862  0.0580 -0.9366 -0.2854
11237SOL    HW234784   6.511   3.010   6.808  0.8940  0.1235  0.2276
11238SOL     OW34785   4.975   0.917   1.716 -0.1012  0.2189 -0.0650
11238SOL    HW134786   4.990   0.992   1.774 -0.1932  2.7936 -3.0514
11238SOL    HW234787   4.944   0.847   1.773  3.3866  1.1886  3.5125
11239SOL     OW34788   4.465   5.683   7.808  0.5315  0.1099 -0.2162
11239SOL    HW134789   4.553   5.645   7.809  0.9151  0.8462 -2.2292
11239SOL    HW234790   4.461   5.733   7.726 -1.8574 -0.1351 -0.3107
11240SOL     OW34791   3.943   0.560   7.626 -0.2516  0.4012 -0.0594
11240SOL    HW134792   3.904   0.642   7.594 -0.3929  0.2358 -0.3089
11240SOL    HW234793   3.883   0.530   7.694 -0.1631  0.5396  0.0823
11241SOL     OW34794   8.064   5.984   6.908 -0.1486 -0.2490 -0.4387
11241SOL    HW134795   8.125   5.962   6.837  0.8425  1.1998 -0.0781
11241SOL    HW234796   7.994   6.033   6.865  0.3221  0.4106 -0.4697
11242SOL     OW34797   3.346   0.356   2.387  0.4297  0.4862  0.2639
11242SOL    HW134798   3.327   0.428   2.326 -0.1020  0.2522  0.1540
11242SOL    HW234799   3.432   0.324   2.359  0.3675  0.6438 -0.1149
11243SOL     OW34800   3.275   2.641   5.668  0.1173  0.5101  0.2807
11243SOL    HW134801   3.255   2.725   5.628 -0.3773 -0.1302 -0.8892
11243SOL    HW234802   3.315   2.662   5.752 -1.1128  1.8865  0.5444
11244SOL     OW34803   3.739   6.903   3.255  0.7272 -0.3033  0.3262
11244SOL    HW134804   3.816   6.869   3.210  0.7096  0.3863 -0.2310
11244SOL    HW234805   3.719   6.986   3.211 -1.6845 -1.5155 -1.0673
11245SOL     OW34806   4.209   1.314   7.445 -0.3712 -0.1766 -0.4476
11245SOL    HW134807   4.131   1.369   7.454  0.8494  1.2280  2.8171
11245SOL    HW234808   4.176   1.225   7.453 -1.7751  0.3162 -0.4332
11246SOL     OW34809   5.159   7.698   4.827  0.9516 -0.3998  0.4603
11246SOL    HW134810   5.104   7.773   4.806  3.2390  1.0963 -0.6717
11246SOL    HW234811   5.115   7.655   4.900 -0.5661  1.9254  1.0266
11247SOL     OW34812   1.670   1.231   7.148 -0.5635  0.1719  0.2546
11247SOL    HW134813   1.690   1.172   7.075  0.4505  0.5932  0.1751
11247SOL    HW234814   1.576   1.247   7.141 -0.9902 -1.8869  0.6342
11248SOL     OW34815   6.306   1.079   0.720  0.4000 -0.0882 -0.1631
11248SOL    HW134816   6.301   1.169   0.689 -0.4920  0.2266  0.8249
11248SOL    HW234817   6.400   1.061   0.726  0.5862  0.7406 -0.4549
11249SOL     OW34818   6.633   6.825   7.321  0.3981 -0.7297 -0.0593
11249SOL    HW134819   6.604   6.811   7.411 -0.4215  0.1456 -0.1716
11249SOL    HW234820   6.689   6.750   7.302 -1.3804 -2.2224  0.3491
11250SOL     OW34821   3.410   7.159   2.704  0.0277 -0.4341  0.0370
11250SOL    HW134822   3.458   7.188   2.627 -0.6922 -1.3189 -0.7729
11250SOL    HW234823   3.356   7.234   2.729  0.2289 -0.1586 -0.3544
11251SOL     OW34824   6.171   4.847   4.682  0.0380 -0.3635 -0.3160
11251SOL    HW134825   6.259   4.869   4.710 -0.4655 -0.2033  1.2370
11251SOL    HW234826   6.114   4.882   4.751 -1.2058 -0.8269 -1.0714
11252SOL     OW34827   6.883   3.870   1.186 -0.3180 -0.1947  0.4501
11252SOL    HW134828   6.906   3.911   1.270 -0.4383 -1.0724  0.9229
11252SOL    HW234829   6.805   3.818   1.205 -0.3333 -0.4222 -0.2047
11253SOL     OW34830   4.130   4.611   7.850  0.5421 -0.0303 -0.0921
11253SOL    HW134831   4.172   4.537   7.895 -1.3710 -0.7131  0.6504
11253SOL    HW234832   4.065   4.570   7.793  1.5250  0.9563 -2.0253
11254SOL     OW34833   0.974   5.939   8.091  0.0987  0.0933  0.2305
11254SOL    HW134834   1.044   6.003   8.080 -1.7993  2.4851  1.1616
11254SOL    HW234835   0.898   5.980   8.051 -1.3599 -1.2938  1.4424
11255SOL     OW34836   1.185   7.072   4.273 -0.1457 -0.3505 -0.1604
11255SOL    HW134837   1.113   7.121   4.233 -2.0655 -3.0277 -0.2771
11255SOL    HW234838   1.258   7.080   4.211 -0.2988  2.3179 -0.1088
11256SOL     OW34839   4.338   1.051   7.046 -0.1869 -0.3330 -0.0949
11256SOL    HW134840   4.265   1.064   7.107 -0.0607 -0.8821  0.1797
11256SOL    HW234841   4.402   1.000   7.096  0.1740 -0.2788 -0.4958
11257SOL     OW34842   5.259   7.844   2.961  0.0973 -0.5590  0.0912
11257SOL    HW134843   5.288   7.755   2.978 -0.4117 -0.8202 -0.3589
11257SOL    HW234844   5.163   7.839   2.967  0.0676 -0.0472  0.0639
11258SOL     OW34845   5.436   1.727   3.989  0.4232  0.0694  0.7714
11258SOL    HW134846   5.384   1.799   3.953  1.4716  1.9063  2.7338
11258SOL    HW234847   5.437   1.743   4.083  0.0112 -3.0343  1.4132
11259SOL     OW34848   1.515   1.935   0.005 -0.1582  0.1885 -0.0480
11259SOL    HW134849   1.544   1.865  -0.053  3.1821 -0.3156  1.9671
11259SOL    HW234850   1.491   1.891   0.086 -1.5911  1.1322  0.0699
11260SOL     OW34851   0.373   1.329   2.120 -0.0994  0.1468  0.0956
11260SOL    HW134852   0.413   1.414   2.101 -1.2606  0.5568 -0.5855
11260SOL    HW234853   0.320   1.309   2.042  1.4988 -2.0318 -0.5341
11261SOL     OW34854   1.316   2.682   6.957 -0.4541  0.4605 -0.0109
11261SOL    HW134855   1.281   2.673   7.045 -1.2391  0.1151 -0.3463
11261SOL    HW234856   1.374   2.759   6.961 -1.3543  1.1224  0.5318
11262SOL     OW34857   7.430   2.681   7.288  0.0370  0.1546  0.3319
11262SOL    HW134858   7.420   2.740   7.363 -0.9909  0.3961  0.0220
11262SOL    HW234859   7.373   2.607   7.308 -2.6595  1.5605 -1.4861
11263SOL     OW34860   4.804   1.614   6.976 -0.1087 -0.2568 -0.2706
11263SOL    HW134861   4.792   1.672   7.051 -2.1241 -0.4908 -0.3786
11263SOL    HW234862   4.770   1.529   7.005  2.4723 -1.3799 -0.2342
11264SOL     OW34863   7.960   2.893   7.523  0.2837 -0.0521 -0.2750
11264SOL    HW134864   7.921   2.806   7.532  1.5858 -0.7735 -1.2217
11264SOL    HW234865   7.982   2.900   7.430  0.3581  1.2269 -0.1815
11265SOL     OW34866   3.866   4.693   1.679  0.2203 -0.8572 -0.1203
11265SOL    HW134867   3.927   4.700   1.605 -0.9314 -0.9127 -1.1087
11265SOL    HW234868   3.886   4.769   1.734 -0.4845  0.5739 -1.7424
11266SOL     OW34869   5.621   6.790   3.400 -0.2864  0.1819 -0.0003
11266SOL    HW134870   5.551   6.725   3.392  0.1879 -0.2542 -0.7466
11266SOL    HW234871   5.662   6.792   3.314  1.2739 -0.3243  0.6759
11267SOL     OW34872   4.408   5.071   0.885 -0.7670 -0.7355  0.0595
11267SOL    HW134873   4.416   5.055   0.790  1.3400  0.4745 -0.0395
11267SOL    HW234874   4.440   4.990   0.925  1.0050 -0.2828 -0.3374
11268SOL     OW34875   1.778   1.499   3.972 -0.0689  0.5694 -0.4712
11268SOL    HW134876   1.727   1.580   3.981  0.0282  0.7724 -1.6204
11268SOL    HW234877   1.729   1.434   4.022  0.3135  1.5158  1.2486
11269SOL     OW34878   1.664   1.951   5.392 -0.4203  0.6083 -0.7660
11269SOL    HW134879   1.615   2.027   5.425 -1.6762 -0.1238 -0.8692
11269SOL    HW234880   1.756   1.977   5.399 -0.8147  2.0810 -0.6741
11270SOL     OW34881   4.225   6.743   6.791  0.2592  0.0762 -0.3436
11270SOL    HW134882   4.308   6.784   6.814 -0.1945  1.0610 -0.4143
11270SOL    HW234883   4.172   6.814   6.755 -0.3050 -0.7159 -1.1292
11271SOL     OW34884   1.304   4.025   3.207 -0.2470  0.4873  0.0761
11271SOL    HW134885   1.308   3.930   3.198 -0.3825  0.0030  3.5008
11271SOL    HW234886   1.215   4.042   3.239 -0.0599  1.7079 -0.0022
11272SOL     OW34887   1.853   0.176   8.002  0.2519 -0.3300  0.1579
11272SOL    HW134888   1.908   0.181   7.924  0.3047 -1.2566  0.1279
11272SOL    HW234889   1.901   0.119   8.062 -0.4413 -0.7496  0.3238
11273SOL     OW34890   5.783   0.514   4.748  0.5825  0.1869  0.3920
11273SOL    HW134891   5.808   0.580   4.683 -0.4827  0.1563 -0.0731
11273SOL    HW234892   5.759   0.437   4.696  2.1192 -0.6994  0.9470
11274SOL     OW34893   6.608   4.013   3.257 -0.4257 -0.1709  0.2919
11274SOL    HW134894   6.549   4.081   3.290 -0.4952  0.2566 -0.6838
11274SOL    HW234895   6.623   4.036   3.165 -1.1792 -1.9853 -0.3390
11275SOL     OW34896   1.973   5.964   3.574  0.1838  0.1979 -0.2965
11275SOL    HW134897   1.950   6.057   3.570  1.6066  0.6921  1.5796
11275SOL    HW234898   1.915   5.927   3.641  0.9359  0.2138  0.3906
11276SOL     OW34899   4.566   1.339   1.884 -0.0031 -0.7592  0.7511
11276SOL    HW134900   4.604   1.265   1.837  0.0125  0.0653 -0.5856
11276SOL    HW234901   4.642   1.393   1.908 -0.0915 -0.6512  0.7894
11277SOL     OW34902   5.500   3.830   2.326  0.5340  0.0803 -0.3596
11277SOL    HW134903   5.461   3.743   2.331  1.1528 -0.2003 -0.2662
11277SOL    HW234904   5.590   3.814   2.296  0.6343  0.6923 -0.3995
11278SOL     OW34905   0.673   6.888   5.432  0.1190 -0.1960  0.0133
11278SOL    HW134906   0.637   6.853   5.351  0.8506 -1.6272  0.2621
11278SOL    HW234907   0.713   6.812   5.475  1.6819  0.9409  0.6600
11279SOL     OW34908   2.630   0.497   4.288  0.2572 -0.0414 -0.1729
11279SOL    HW134909   2.598   0.558   4.221  0.6412 -0.5156 -0.8093
11279SOL    HW234910   2.725   0.511   4.290  0.0099  1.7029  2.0512
11280SOL     OW34911   5.792   0.050   1.825 -0.4770 -0.3319  0.0516
11280SOL    HW134912   5.738   0.049   1.746  0.2825  1.7799 -0.5536
11280SOL    HW234913   5.882   0.044   1.793 -0.1675  0.4921  0.7243
11281SOL     OW34914   7.610   6.656   3.620 -0.4186  0.2226  0.2709
11281SOL    HW134915   7.629   6.749   3.629 -0.1948  0.4517 -2.0049
11281SOL    HW234916   7.671   6.625   3.553 -1.9632 -1.0544 -0.6305
11282SOL     OW34917   2.740   5.773   4.479  0.1558 -0.3127  0.1880
11282SOL    HW134918   2.798   5.706   4.442 -0.3087  0.0269 -1.1988
11282SOL    HW234919   2.654   5.731   4.482 -0.2574  0.3740 -1.2288
11283SOL     OW34920   7.415   2.772   1.545  0.1087 -0.2324  0.1175
11283SOL    HW134921   7.476   2.731   1.606  0.1055 -0.2152  0.1324
11283SOL    HW234922   7.336   2.788   1.597  0.1069 -0.2155  0.1090
11284SOL     OW34923   6.376   3.189   1.919  0.3524  0.8968  0.2873
11284SOL    HW134924   6.431   3.164   1.993  1.2438  1.6420 -0.1069
11284SOL    HW234925   6.381   3.285   1.917 -0.0108  0.9016 -0.4673
11285SOL     OW34926   5.411   4.629   3.317  0.9377  0.4031  0.0866
11285SOL    HW134927   5.380   4.557   3.261  0.2394 -0.1482  1.1488
11285SOL    HW234928   5.482   4.590   3.368  0.8196  0.5818  0.3841
11286SOL     OW34929   0.150   1.816   2.876 -0.5848 -0.1070  0.4056
11286SOL    HW134930   0.142   1.746   2.812 -0.7195  0.7735 -0.5617
11286SOL    HW234931   0.219   1.786   2.935  0.3698 -0.4380 -0.8333
11287SOL     OW34932   5.575   4.971   5.363  0.6056 -0.5202  0.5974
11287SOL    HW134933   5.565   4.961   5.268 -1.4215  0.0530  0.7048
11287SOL    HW234934   5.630   5.048   5.373 -1.8859  1.5226 -0.1910
11288SOL     OW34935   7.438   1.210   0.759 -0.0421  0.4295 -1.0547
11288SOL    HW134936   7.409   1.119   0.746 -0.6084  0.3719  0.4842
11288SOL    HW234937   7.405   1.256   0.682 -1.6015 -0.2596 -0.8433
11289SOL     OW34938   1.869   5.656   3.552 -0.8456  0.4501 -0.6268
11289SOL    HW134939   1.895   5.649   3.644  2.1875  0.4248 -1.3919
11289SOL    HW234940   1.774   5.668   3.555 -0.7084  1.6901  2.5614
11290SOL     OW34941   0.207   0.363   0.303  0.2055 -0.3767 -0.6292
11290SOL    HW134942   0.146   0.437   0.302  0.3292 -0.2427  0.4820
11290SOL    HW234943   0.264   0.378   0.228 -0.5369  0.0021 -1.1284
11291SOL     OW34944   0.763   6.038   0.369 -0.6549  0.4532 -0.3136
11291SOL    HW134945   0.801   6.095   0.437  2.6707 -1.9179  0.0648
11291SOL    HW234946   0.674   6.021   0.399  0.0723  1.0236  2.4777
11292SOL     OW34947   4.812   6.000   1.601  0.1347 -0.4842  0.1644
11292SOL    HW134948   4.835   5.917   1.561  2.1304 -1.7944  3.5948
11292SOL    HW234949   4.729   5.982   1.646  0.1508 -0.3693  0.2400
11293SOL     OW34950   3.055   3.647   2.283  0.5191 -0.2860  0.0339
11293SOL    HW134951   3.045   3.729   2.233 -1.0028  0.3106  1.2667
11293SOL    HW234952   3.149   3.642   2.299  0.7939  0.5835 -1.0939
11294SOL     OW34953   6.165   3.040   5.739  0.7337 -0.2888 -0.2263
11294SOL    HW134954   6.213   3.102   5.685  0.5662 -0.6487 -0.7922
11294SOL    HW234955   6.131   2.975   5.678  0.0008 -0.3521  0.2247
11295SOL     OW34956   0.817   0.801   6.523  0.0899 -0.1543  0.0833
11295SOL    HW134957   0.759   0.876   6.512 -1.0282 -1.1835 -1.5984
11295SOL    HW234958   0.899   0.838   6.556 -0.8172  1.6201  0.4762
11296SOL     OW34959   4.730   2.894   2.906 -0.4589 -0.7126  1.0026
11296SOL    HW134960   4.791   2.944   2.852 -0.8184 -0.0875  1.1676
11296SOL    HW234961   4.645   2.932   2.888 -0.4872  0.0872  2.6446
11297SOL     OW34962   2.953   6.046   0.526  0.5611 -0.1919 -0.1368
11297SOL    HW134963   2.963   6.135   0.491  1.1951 -0.4085 -0.5377
11297SOL    HW234964   2.986   5.989   0.457 -0.0229 -0.7594  0.0391
11298SOL     OW34965   1.653   1.532   7.005  0.1480 -0.9059 -0.4059
11298SOL    HW134966   1.686   1.456   6.956  3.0437  0.6531 -1.1312
11298SOL    HW234967   1.701   1.530   7.088  0.0480 -0.0464 -0.3159
11299SOL     OW34968   8.045   4.921   6.447  0.4562  0.0089  0.0347
11299SOL    HW134969   7.989   4.853   6.483  0.9584 -1.2252 -1.4152
11299SOL    HW234970   8.067   4.890   6.359  0.8779  1.9515 -0.5894
11300SOL     OW34971   7.631   4.827   0.321 -0.1376  0.0101  0.5602
11300SOL    HW134972   7.615   4.890   0.250 -0.2132 -0.6640 -0.0247
11300SOL    HW234973   7.547   4.823   0.368 -0.7996 -1.1827 -0.6446
11301SOL     OW34974   3.652   1.657   4.376 -0.6466  0.2999  0.6319
11301SOL    HW134975   3.615   1.601   4.308  1.4094  1.3279 -1.4644
11301SOL    HW234976   3.577   1.707   4.410 -1.9514 -1.2982  0.2335
11302SOL     OW34977   5.573   4.251   1.706  0.1006  0.6975 -0.5068
11302SOL    HW134978   5.570   4.201   1.787 -0.0707 -0.1400 -1.0265
11302SOL    HW234979   5.494   4.305   1.708 -0.5778 -0.2600 -0.7036
11303SOL     OW34980   5.959   2.374   1.084 -0.6580  0.2238 -0.4224
11303SOL    HW134981   6.042   2.417   1.063 -1.1876  1.1628 -0.6513
11303SOL    HW234982   5.936   2.329   1.003  0.2429 -1.1235  0.0281
11304SOL     OW34983   3.929   0.635   6.041 -0.1589 -0.2702  0.3022
11304SOL    HW134984   3.970   0.703   5.989 -0.0417 -1.4265 -1.1742
11304SOL    HW234985   3.976   0.636   6.125  2.5786 -1.1698 -1.1158
11305SOL     OW34986   7.577   5.845   8.088 -0.0305  0.1847 -0.0627
11305SOL    HW134987   7.666   5.838   8.055  0.1530 -0.6998  0.5793
11305SOL    HW234988   7.584   5.901   8.165  0.0416 -0.1612  0.1885
11306SOL     OW34989   6.824   4.235   5.300 -0.0152 -0.1869 -0.4988
11306SOL    HW134990   6.782   4.172   5.359 -0.0438  0.0198 -0.2990
11306SOL    HW234991   6.826   4.190   5.215 -2.6051  0.5895 -1.0606
11307SOL     OW34992   7.549   0.974   1.248 -0.1506  0.5651  0.2110
11307SOL    HW134993   7.634   0.931   1.235 -0.0764  0.0814  1.9887
11307SOL    HW234994   7.555   1.055   1.197  0.3913 -0.6399 -1.7368
11308SOL     OW34995   3.649   4.801   1.171 -0.3163 -0.3042 -0.1556
11308SOL    HW134996   3.718   4.865   1.189  0.5129 -1.4240  0.8822
11308SOL    HW234997   3.591   4.844   1.109  0.4978  1.2386  0.1079
11309SOL     OW34998   6.079   5.985   1.934 -0.0802  0.2797 -0.5847
11309SOL    HW134999   6.158   6.027   1.901  0.0964 -0.0680 -0.6038
11309SOL    HW235000   6.012   6.053   1.928  0.3152  0.7143 -0.1538
11310SOL     OW35001   6.630   1.531   2.134 -0.4572 -0.1830 -0.1252
11310SOL    HW135002   6.604   1.615   2.097 -0.0358  0.3517  0.7651
11310SOL    HW235003   6.554   1.502   2.184 -0.2579  0.1589  0.3875
11311SOL     OW35004   1.468   0.287   4.330  0.2916  0.1963  0.3426
11311SOL    HW135005   1.441   0.374   4.359 -0.5865  0.2497 -0.5795
11311SOL    HW235006   1.394   0.230   4.350  0.6836 -0.2593  0.5320
11312SOL     OW35007   2.361   4.095   5.266 -0.0692 -0.1385  0.4280
11312SOL    HW135008   2.366   4.037   5.191  1.1807 -1.3844  1.4216
11312SOL    HW235009   2.380   4.182   5.230 -0.2818 -0.5846 -0.8071
11313SOL     OW35010   3.719   6.595   0.802 -0.3889  0.1047 -0.4119
11313SOL    HW135011   3.789   6.551   0.754  0.1180  1.2539 -0.7729
11313SOL    HW235012   3.638   6.556   0.768  0.0144 -0.0186 -1.2599
11314SOL     OW35013   1.701   7.537   0.475 -0.4733 -0.2628 -0.2522
11314SOL    HW135014   1.695   7.596   0.550  1.2663 -0.1033 -0.1898
11314SOL    HW235015   1.792   7.546   0.445 -0.5761 -1.8330 -1.1305
11315SOL     OW35016   5.876   5.299   3.682  0.3117  0.1211 -0.4111
11315SOL    HW135017   5.844   5.386   3.708  1.0614  0.7544 -1.5194
11315SOL    HW235018   5.927   5.269   3.758  1.6358  1.5010 -0.6829
11316SOL     OW35019   7.509   2.473   2.001 -0.0532  0.2136  0.6527
11316SOL    HW135020   7.419   2.443   1.989 -0.2025  0.6395  0.6873
11316SOL    HW235021   7.563   2.399   1.972 -0.4091  0.2065 -0.0112
11317SOL     OW35022   3.296   1.165   5.170 -0.0557  0.3562  0.0178
11317SOL    HW135023   3.343   1.084   5.152 -0.8515  0.1293 -1.1484
11317SOL    HW235024   3.239   1.177   5.094  0.4150  2.2825 -0.0768
11318SOL     OW35025   4.947   5.567   5.133  0.6354 -0.8127  0.0912
11318SOL    HW135026   5.023   5.513   5.113  1.1020 -0.2009  0.1504
11318SOL    HW235027   4.874   5.506   5.140  1.1853 -1.4512  0.3586
11319SOL     OW35028   1.943   5.526   6.617  0.3328  0.1925  0.1959
11319SOL    HW135029   1.940   5.458   6.684  0.5275 -0.4037 -0.3773
11319SOL    HW235030   1.851   5.546   6.599  0.2724  0.0565  0.3521
11320SOL     OW35031   4.574   2.185   5.157 -0.4753  0.0021 -0.2595
11320SOL    HW135032   4.503   2.222   5.105 -1.4051 -0.7815  0.4271
11320SOL    HW235033   4.596   2.254   5.220 -0.0462  0.5592 -0.9968
11321SOL     OW35034   6.943   7.336   4.941 -0.2458  0.2959 -0.2636
11321SOL    HW135035   6.887   7.394   4.890  0.1487  1.4346  0.5510
11321SOL    HW235036   6.972   7.270   4.878 -0.6007  1.0499 -1.2603
11322SOL     OW35037   0.430   1.600   0.903 -0.6264  0.6265 -0.3263
11322SOL    HW135038   0.360   1.585   0.839 -0.5602  0.1622 -0.2953
11322SOL    HW235039   0.498   1.646   0.855 -0.4427 -0.0014 -0.6786
11323SOL     OW35040   5.080   3.299   2.362  0.4940  0.3199  0.0975
11323SOL    HW135041   5.119   3.323   2.278  0.9207  2.1125  0.7505
11323SOL    HW235042   5.149   3.252   2.408  1.1175  1.4506  0.3504
11324SOL     OW35043   1.592   2.985   1.575 -0.1275  0.3421 -0.2266
11324SOL    HW135044   1.505   2.949   1.587  0.5088 -1.1197  0.2349
11324SOL    HW235045   1.642   2.915   1.533  0.6224  1.4405 -1.2506
11325SOL     OW35046   1.597   7.225   7.639  0.0980  0.1891 -0.1419
11325SOL    HW135047   1.506   7.250   7.656  0.4769  0.7658  1.1597
11325SOL    HW235048   1.597   7.195   7.548 -0.7901  3.1638 -1.2368
11326SOL     OW35049   7.152   3.246   0.285  0.4610  0.2992  0.5603
11326SOL    HW135050   7.185   3.193   0.213  0.0017 -0.0218  0.5772
11326SOL    HW235051   7.068   3.205   0.308  0.6442  0.3399  1.3316
11327SOL     OW35052   5.976   5.685   0.677  0.4210 -1.0658 -0.7354
11327SOL    HW135053   6.053   5.670   0.732  0.7709 -0.4617 -1.0482
11327SOL    HW235054   5.928   5.755   0.721  0.8487 -0.3810 -1.3341
11328SOL     OW35055   2.382   1.604   1.050  0.2923  0.0700  0.5319
11328SOL    HW135056   2.313   1.625   1.113  0.7810  3.9198  0.0753
11328SOL    HW235057   2.338   1.602   0.965  0.4809  1.0864  0.3960
11329SOL     OW35058   2.962   2.400   5.262 -0.0965 -0.4054  0.1796
11329SOL    HW135059   3.030   2.368   5.203  0.9621 -0.2976  1.3258
11329SOL    HW235060   2.928   2.478   5.218  1.3855  0.2691  0.1786
11330SOL     OW35061   3.224   5.992   7.663  0.4790  0.4182  0.1226
11330SOL    HW135062   3.219   5.996   7.758  1.8902  1.4529  0.1924
11330SOL    HW235063   3.149   6.043   7.632 -0.5888 -0.7925  0.6343
11331SOL     OW35064   1.964   1.969   3.483 -0.4330 -0.0664  0.6142
11331SOL    HW135065   1.879   2.011   3.465 -0.1447  0.4186  0.3588
11331SOL    HW235066   1.960   1.886   3.435 -0.7220  0.0014  0.5154
11332SOL     OW35067   4.679   3.982   5.275  0.7956 -0.6083 -0.6433
11332SOL    HW135068   4.774   3.989   5.284  0.6530  0.3380  0.3353
11332SOL    HW235069   4.646   4.068   5.302 -0.4008 -1.3293  0.2933
11333SOL     OW35070   5.303   3.428   2.492 -0.7666  0.2456  0.2823
11333SOL    HW135071   5.299   3.336   2.517 -0.8473 -0.1380 -1.0624
11333SOL    HW235072   5.235   3.470   2.544 -2.4124 -0.9153 -0.8357
11334SOL     OW35073   1.900   7.941   8.023  0.3015  0.1504 -0.0412
11334SOL    HW135074   1.834   7.873   8.013 -0.7908  1.1446  0.2272
11334SOL    HW235075   1.907   7.982   7.937  0.1801  0.3909  0.0615
11335SOL     OW35076   4.722   4.097   5.560  0.5551 -0.5064 -0.1478
11335SOL    HW135077   4.757   4.153   5.629  1.5677 -0.6622 -0.5215
11335SOL    HW235078   4.664   4.154   5.510  1.7170  0.2825 -0.6399
11336SOL     OW35079   0.294   1.862   2.515 -0.2795  0.1981  0.0937
11336SOL    HW135080   0.348   1.877   2.438  2.2331  1.8757  2.0287
11336SOL    HW235081   0.238   1.939   2.520 -1.3285 -0.4816 -0.6501
11337SOL     OW35082   6.466   0.108   5.843  0.1952  0.1284  0.0767
11337SOL    HW135083   6.376   0.116   5.872  0.5520  1.9151  0.8505
11337SOL    HW235084   6.476   0.176   5.776  0.9956  0.0043  0.0593
11338SOL     OW35085   5.617   3.776   6.695  0.6440  0.2008 -0.0790
11338SOL    HW135086   5.571   3.761   6.778  0.9832  1.4053  0.3437
11338SOL    HW235087   5.568   3.848   6.654  0.3874 -0.4826 -1.0059
11339SOL     OW35088   4.657   2.655   7.019 -0.3580 -0.8189  0.3272
11339SOL    HW135089   4.585   2.623   7.073  0.0277 -0.3265  1.1507
11339SOL    HW235090   4.633   2.745   6.998  0.3340 -0.4016  1.2188
11340SOL     OW35091   2.356   1.144   0.203  0.0654  0.4014 -0.4623
11340SOL    HW135092   2.379   1.093   0.126  1.9235 -0.7246  0.7641
11340SOL    HW235093   2.272   1.108   0.233  0.2024 -0.3230 -0.9463
11341SOL     OW35094   2.163   5.696   2.236 -0.1618 -0.2300  0.1825
11341SOL    HW135095   2.074   5.684   2.204 -0.3183 -0.1989  0.6024
11341SOL    HW235096   2.156   5.766   2.300  0.0588 -0.6575  0.6788
11342SOL     OW35097   0.451   1.480   2.762 -0.5451 -0.5297  0.3265
11342SOL    HW135098   0.462   1.408   2.824  0.5051 -0.4254  0.2678
11342SOL    HW235099   0.368   1.460   2.718  0.1471 -2.1790 -0.3103
11343SOL     OW35100   2.536   6.309   4.072 -0.3825 -0.0061  0.2085
11343SOL    HW135101   2.545   6.374   4.142  0.4195  0.2799 -0.1554
11343SOL    HW235102   2.621   6.266   4.068 -0.4308 -0.0371 -0.5788
11344SOL     OW35103   7.333   4.591   0.571 -0.7652  0.7574  0.6019
11344SOL    HW135104   7.420   4.565   0.541 -1.4540 -0.7339 -0.2910
11344SOL    HW235105   7.277   4.518   0.544 -1.9472  0.6692  3.0614
11345SOL     OW35106   6.884   0.351   1.424 -0.7041  0.1722 -0.1960
11345SOL    HW135107   6.812   0.287   1.421 -0.2092 -0.4883  1.0622
11345SOL    HW235108   6.927   0.334   1.508  0.1421  1.4181 -0.3513
11346SOL     OW35109   4.414   7.407   4.715  0.3941 -0.4159  0.0736
11346SOL    HW135110   4.401   7.472   4.646 -0.2085  0.4703  1.0021
11346SOL    HW235111   4.433   7.326   4.667  0.0213  0.1772 -1.1314
11347SOL     OW35112   2.001   5.157   7.617  0.6502 -0.6936 -0.1178
11347SOL    HW135113   2.045   5.238   7.642  0.0383 -0.6246  0.7820
11347SOL    HW235114   1.930   5.185   7.559 -1.6042 -0.1234  2.6233
11348SOL     OW35115   2.379   0.480   7.660 -0.1545  0.0080 -0.0884
11348SOL    HW135116   2.424   0.433   7.730  1.2003  1.1632 -0.1440
11348SOL    HW235117   2.446   0.496   7.595 -0.4024  2.4668  0.1676
11349SOL     OW35118   6.128   0.108   7.397  0.5162 -0.2861  0.8730
11349SOL    HW135119   6.180   0.118   7.476 -0.1786  0.2492  1.2750
11349SOL    HW235120   6.185   0.139   7.326 -0.0801  2.7955  1.5862
11350SOL     OW35121   3.873   1.468   2.376 -0.2214 -0.2072 -0.2504
11350SOL    HW135122   3.893   1.482   2.469 -1.1207  1.1207 -0.2224
11350SOL    HW235123   3.781   1.445   2.375  0.1262 -1.6665 -0.7260
11351SOL     OW35124   5.631   3.737   0.430 -0.4889 -0.2672  0.2501
11351SOL    HW135125   5.716   3.752   0.387  0.2643  0.3345  1.8713
11351SOL    HW235126   5.593   3.663   0.384  0.5089  0.0282 -1.1026
11352SOL     OW35127   3.341   2.619   1.711 -0.5840  0.2093  0.8089
11352SOL    HW135128   3.257   2.575   1.698  0.1970 -1.1438  0.1425
11352SOL    HW235129   3.392   2.557   1.763  0.4536  0.4212  0.0723
11353SOL     OW35130   0.813   5.043   0.205  0.2959  0.0741 -0.4043
11353SOL    HW135131   0.858   4.980   0.149 -0.7185 -1.0039 -0.0357
11353SOL    HW235132   0.733   4.998   0.233  1.4340 -0.0353  3.1075
11354SOL     OW35133   5.126   4.111   6.701  0.2531  0.1632  0.0829
11354SOL    HW135134   5.122   4.058   6.621  0.6313 -0.3575  0.4117
11354SOL    HW235135   5.157   4.197   6.670  1.4770 -0.3516 -0.1813
11355SOL     OW35136   4.717   4.954   5.794 -0.2312  0.8374 -0.0922
11355SOL    HW135137   4.732   5.046   5.815  3.6227  0.5521 -0.7649
11355SOL    HW235138   4.706   4.953   5.699 -0.0766  0.6013 -0.1091
11356SOL     OW35139   1.446   3.665   8.076 -0.1792  0.5015  0.4979
11356SOL    HW135140   1.510   3.651   8.006  0.6206 -0.1251  1.3315
11356SOL    HW235141   1.464   3.754   8.107 -0.9295  1.0007 -0.4758
11357SOL     OW35142   5.625   6.174   7.553 -0.2248 -0.4264 -0.0262
11357SOL    HW135143   5.654   6.104   7.611 -0.9117 -0.3062  0.4690
11357SOL    HW235144   5.599   6.130   7.472  0.6937 -0.5995 -0.2438
11358SOL     OW35145   6.331   0.504   5.728  0.1735 -1.2192  0.4784
11358SOL    HW135146   6.322   0.570   5.797  0.5307 -0.4080 -0.2413
11358SOL    HW235147   6.241   0.487   5.699  0.2201  1.7578 -1.9109
11359SOL     OW35148   0.112   2.074   2.499  0.5364  0.1318  0.2565
11359SOL    HW135149   0.023   2.066   2.465  0.1785  0.8618  0.9604
11359SOL    HW235150   0.127   2.168   2.505  0.6612  0.0424  1.8479
11360SOL     OW35151   3.650   5.094   0.667  0.1021 -0.7630  0.0414
11360SOL    HW135152   3.679   5.080   0.757  1.9322  1.2876 -0.1574
11360SOL    HW235153   3.730   5.112   0.618 -1.1741  3.0014 -0.9957
11361SOL     OW35154   4.849   6.896   4.091 -0.0320 -0.4841  0.0146
11361SOL    HW135155   4.899   6.901   4.172  1.3430 -0.0526 -0.8345
11361SOL    HW235156   4.820   6.986   4.075  0.4502 -0.4022 -0.4212
11362SOL     OW35157   4.879   4.931   0.551  0.2113  0.1344  0.4134
11362SOL    HW135158   4.935   4.876   0.605  0.2298 -0.3108 -0.0568
11362SOL    HW235159   4.940   4.990   0.506  0.2798 -0.1902  0.0835
11363SOL     OW35160   2.773   4.342   2.884  0.2858 -0.4580  0.2487
11363SOL    HW135161   2.790   4.256   2.845  0.5440 -0.6416  0.7545
11363SOL    HW235162   2.775   4.326   2.978 -1.8523 -0.3287  0.3570
11364SOL     OW35163   3.577   0.753   2.966  0.3529  0.1626  0.3636
11364SOL    HW135164   3.617   0.667   2.962  0.7942  0.4076 -1.7287
11364SOL    HW235165   3.483   0.736   2.972  0.1586 -0.6191 -2.8880
11365SOL     OW35166   3.301   7.158   3.008 -0.1314  0.1160 -0.0780
11365SOL    HW135167   3.352   7.238   3.020  1.0683 -0.8905  2.1932
11365SOL    HW235168   3.259   7.143   3.093 -1.0110 -1.2155 -0.7162
11366SOL     OW35169   1.116   7.168   6.000 -0.2823  0.1078  0.1229
11366SOL    HW135170   1.059   7.192   5.928  0.9911 -0.4736 -1.1324
11366SOL    HW235171   1.057   7.150   6.073 -1.5817  1.0673 -0.6504
11367SOL     OW35172   3.983   4.162   7.238  0.1474 -0.2703 -0.6051
11367SOL    HW135173   4.070   4.166   7.200  0.5124  0.1620  0.2463
11367SOL    HW235174   3.997   4.130   7.328 -0.4507  0.6530 -0.1645
11368SOL     OW35175   7.701   3.454   1.522 -0.2823 -0.5207  0.5292
11368SOL    HW135176   7.720   3.427   1.612  3.2032 -1.3662 -0.2921
11368SOL    HW235177   7.641   3.528   1.531  0.6560  0.0018  3.5967
11369SOL     OW35178   2.594   5.671   6.973  0.3217 -0.5733 -0.1979
11369SOL    HW135179   2.545   5.589   6.972 -1.8547  0.6530 -1.7464
11369SOL    HW235180   2.663   5.660   6.907 -0.8807 -0.6794 -1.4706
11370SOL     OW35181   1.984   1.970   4.067  0.3471 -0.3915  0.3879
11370SOL    HW135182   2.062   1.939   4.021 -0.7708 -1.4069 -0.9516
11370SOL    HW235183   2.011   1.982   4.158  2.9167  2.5503 -0.5954
11371SOL     OW35184   0.649   1.149   8.029 -0.2642  0.1308 -0.1844
11371SOL    HW135185   0.575   1.205   8.005 -0.8583 -0.6915 -0.3253
11371SOL    HW235186   0.612   1.060   8.031 -0.0084  0.0023  2.6593
11372SOL     OW35187   8.003   3.212   3.526 -0.1993 -0.3252 -0.4455
11372SOL    HW135188   8.010   3.152   3.600 -0.7188 -0.5111 -0.5428
11372SOL    HW235189   8.089   3.254   3.521 -0.0952 -0.4553  0.1380
11373SOL     OW35190   6.582   6.784   6.575  0.0509 -0.0808  0.0639
11373SOL    HW135191   6.494   6.762   6.543  0.4096 -1.8693  0.2126
11373SOL    HW235192   6.571   6.869   6.617 -1.5132 -0.0502 -0.3185
11374SOL     OW35193   2.354   0.048   2.161 -0.2343 -0.8826  0.1664
11374SOL    HW135194   2.345   0.140   2.185 -0.3103 -0.2162 -2.2234
11374SOL    HW235195   2.408   0.011   2.231 -0.4011  0.8927  1.3040
11375SOL     OW35196   3.791   6.425   6.496  0.0209 -0.3147 -0.1084
11375SOL    HW135197   3.798   6.331   6.479  1.8680 -0.5025  1.3637
11375SOL    HW235198   3.857   6.464   6.438 -0.9421  0.1490 -0.9345
11376SOL     OW35199   0.092   1.695   2.620  0.3566  0.3969 -0.2006
11376SOL    HW135200   0.063   1.640   2.547  0.1746  0.0109  0.1672
11376SOL    HW235201   0.154   1.756   2.580  0.6876 -0.1835 -0.5705
11377SOL     OW35202   7.815   6.845   1.422  0.5057  0.0204 -0.9895
11377SOL    HW135203   7.891   6.895   1.391  0.8401 -0.0298 -0.2626
11377SOL    HW235204   7.752   6.850   1.350 -0.0437  2.6655 -0.4059
11378SOL     OW35205   1.801   5.150   7.360  0.0716  0.0018 -0.2074
11378SOL    HW135206   1.721   5.116   7.401 -0.9626  1.7596 -0.6921
11378SOL    HW235207   1.789   5.244   7.358  2.4625  0.3900  0.2694
11379SOL     OW35208   1.626   7.665   2.321 -0.4921 -0.5381  0.7050
11379SOL    HW135209   1.590   7.653   2.409  0.3888  0.4382  1.2158
11379SOL    HW235210   1.624   7.760   2.306 -1.9220 -0.7692 -0.9038
11380SOL     OW35211   1.452   0.436   6.693  0.6330  0.0352  0.7578
11380SOL    HW135212   1.411   0.377   6.756 -0.6657 -0.2672 -0.3174
11380SOL    HW235213   1.523   0.384   6.654 -0.2387 -0.7182  0.1170
11381SOL     OW35214   6.152   2.964   6.597 -0.1886 -0.2076 -0.1386
11381SOL    HW135215   6.160   2.944   6.690  1.7269  0.4314 -0.1298
11381SOL    HW235216   6.183   2.884   6.553  0.9929  0.2723 -0.1898
11382SOL     OW35217   3.600   1.846   0.405 -0.0291 -0.1971  0.8580
11382SOL    HW135218   3.518   1.894   0.410 -0.1305 -0.4956  2.2922
11382SOL    HW235219   3.665   1.905   0.444  0.3632 -0.1609  0.1762
11383SOL     OW35220   3.052   2.117   4.962  0.0105 -0.1352  1.0536
11383SOL    HW135221   3.034   2.068   5.042  0.5822  1.1786  2.0375
11383SOL    HW235222   3.143   2.096   4.941 -0.3345 -0.9739  0.3723
11384SOL     OW35223   6.418   0.161   0.041 -0.3204 -0.2646 -0.3274
11384SOL    HW135224   6.418   0.070   0.072 -0.6840 -0.3728 -0.6402
11384SOL    HW235225   6.510   0.179   0.022  0.3350  0.5766  3.0060
11385SOL     OW35226   2.493   6.280   5.929  0.0343  0.3282  0.0926
11385SOL    HW135227   2.527   6.361   5.968 -1.5261  0.7454  0.6692
11385SOL    HW235228   2.478   6.223   6.004  1.8037 -0.8127 -0.3653
11386SOL     OW35229   4.394   7.393   7.407  0.6839 -0.0020 -0.1395
11386SOL    HW135230   4.424   7.337   7.479 -0.0865 -0.0498  0.1550
11386SOL    HW235231   4.433   7.354   7.329  0.0958 -1.0125  0.0542
11387SOL     OW35232   1.678   3.710   4.774 -0.0762 -0.4193  0.0170
11387SOL    HW135233   1.746   3.743   4.716  0.8629 -0.8202  0.8748
11387SOL    HW235234   1.654   3.785   4.828 -0.9568 -0.0434 -0.8486
11388SOL     OW35235   5.333   3.830   5.071  0.8969 -0.1454  0.1798
11388SOL    HW135236   5.264   3.790   5.019  0.4837  0.6737  0.0852
11388SOL    HW235237   5.413   3.813   5.021  0.4957  0.7070 -0.7884
11389SOL     OW35238   2.892   7.967   0.695 -0.4758 -0.0268  0.1592
11389SOL    HW135239   2.861   8.001   0.779 -1.0420  0.1897 -0.1295
11389SOL    HW235240   2.977   8.008   0.682 -0.9641  0.9547  0.0177
11390SOL     OW35241   1.083   3.395   3.529  0.4374 -0.6971 -0.1417
11390SOL    HW135242   1.160   3.438   3.566  0.9000 -1.6049 -0.0167
11390SOL    HW235243   1.114   3.307   3.505 -0.0359 -0.4143 -1.9740
11391SOL     OW35244   6.626   2.032   0.120  0.1519  0.4425 -0.3763
11391SOL    HW135245   6.621   1.980   0.200  2.3103  0.1694 -0.3658
11391SOL    HW235246   6.541   2.075   0.114 -0.8205 -1.1755  0.9144
11392SOL     OW35247   7.438   0.660   7.871 -0.0575  0.4169  0.4292
11392SOL    HW135248   7.463   0.742   7.913 -0.4983 -0.3078  2.1980
11392SOL    HW235249   7.515   0.603   7.879 -0.5728 -0.1636  1.4824
11393SOL     OW35250   4.141   3.482   5.586  0.3474 -0.5675 -0.4254
11393SOL    HW135251   4.206   3.485   5.515  2.0928 -0.5112  1.0979
11393SOL    HW235252   4.087   3.405   5.566  0.9967 -0.7329 -1.6410
11394SOL     OW35253   3.328   7.807   3.229  0.6448 -0.2464  0.1386
11394SOL    HW135254   3.321   7.732   3.171 -0.4068  1.9325 -2.7950
11394SOL    HW235255   3.419   7.808   3.257  0.3404 -3.5062  1.7935
11395SOL     OW35256   5.217   4.256   6.975 -0.0809  0.1332  0.0549
11395SOL    HW135257   5.142   4.201   6.997  1.0889 -1.3862  0.3660
11395SOL    HW235258   5.194   4.294   6.890 -0.8665 -0.9202 -0.2265
11396SOL     OW35259   6.447   6.296   4.193  0.4278 -0.3656 -0.3871
11396SOL    HW135260   6.461   6.202   4.205  0.7178 -0.4617 -1.3700
11396SOL    HW235261   6.379   6.301   4.126 -0.1606  0.1344  0.2333
11397SOL     OW35262   4.292   6.659   7.201  0.1035  0.4354  0.1455
11397SOL    HW135263   4.335   6.697   7.124 -1.4687 -0.7171 -1.3814
11397SOL    HW235264   4.354   6.593   7.232  1.3366  1.7973  0.7440
11398SOL     OW35265   3.327   0.761   3.159 -0.6420 -0.3598 -0.2240
11398SOL    HW135266   3.362   0.806   3.236  0.0844  0.2557 -0.8946
11398SOL    HW235267   3.240   0.730   3.186 -0.1812 -0.6217  1.0019
11399SOL     OW35268   4.647   0.177   2.071  0.2992  0.2387  0.4366
11399SOL    HW135269   4.735   0.148   2.045 -0.1088 -1.1275  0.5081
11399SOL    HW235270   4.621   0.238   2.002  1.2409  0.5670  0.3463
11400SOL     OW35271   2.614   1.037   2.950 -0.5751  0.1041 -0.7749
11400SOL    HW135272   2.682   1.041   2.882 -0.7875 -1.3785 -1.1222
11400SOL    HW235273   2.556   0.966   2.921 -1.0244 -0.1417  0.6447
11401SOL     OW35274   5.527   7.129   3.913  0.1783 -0.2120 -0.4705
11401SOL    HW135275   5.447   7.151   3.961 -0.2376 -0.1326 -1.1970
11401SOL    HW235276   5.513   7.165   3.826  1.7575  1.4208 -0.1035
11402SOL     OW35277   2.886   5.570   3.587 -0.0646 -0.1385  0.5020
11402SOL    HW135278   2.832   5.553   3.664 -0.8577  0.7078  0.1474
11402SOL    HW235279   2.881   5.665   3.574  1.6038 -0.0108  0.5184
11403SOL     OW35280   4.571   7.225   5.479 -0.0689 -0.0862  0.2858
11403SOL    HW135281   4.521   7.300   5.446 -0.0238 -1.0536 -2.2097
11403SOL    HW235282   4.645   7.217   5.419  1.4987 -0.4971  2.1514
11404SOL     OW35283   2.447   5.635   4.566 -0.1820  0.0114 -0.2767
11404SOL    HW135284   2.406   5.671   4.645 -0.5366 -1.7890  0.4058
11404SOL    HW235285   2.393   5.668   4.494 -2.6401 -1.9264  0.5610
11405SOL     OW35286   3.966   6.800   6.180  0.2680  0.1163 -0.9755
11405SOL    HW135287   3.989   6.756   6.098  1.5446 -1.1169  0.0045
11405SOL    HW235288   3.916   6.736   6.229 -0.4759  0.8432 -0.7659
11406SOL     OW35289   2.664   7.778   7.527 -0.3773  0.0170 -0.0584
11406SOL    HW135290   2.580   7.812   7.558 -0.9011  0.1366 -1.5438
11406SOL    HW235291   2.729   7.836   7.567 -1.2515  3.2506 -2.8749
11407SOL     OW35292   3.117   5.513   2.101  0.3178 -0.6506 -0.1322
11407SOL    HW135293   3.192   5.571   2.084  0.1234 -0.4960 -0.4598
11407SOL    HW235294   3.060   5.563   2.159 -0.6403  0.1371 -1.7050
11408SOL     OW35295   3.856   1.274   4.624  0.1691 -0.0248 -0.6122
11408SOL    HW135296   3.949   1.291   4.606  0.3533 -0.5722 -0.1930
11408SOL    HW235297   3.856   1.216   4.700 -0.4780 -1.0932 -1.3999
11409SOL     OW35298   3.260   1.232   4.767 -0.5013  0.3116 -0.4791
11409SOL    HW135299   3.248   1.216   4.674 -1.8669 -0.1380 -0.2536
11409SOL    HW235300   3.205   1.308   4.786 -1.0861 -0.2462  0.1429
11410SOL     OW35301   1.150   5.389   1.239 -0.1078 -0.4644  0.7180
11410SOL    HW135302   1.198   5.307   1.233  1.4131  0.3812  0.7459
11410SOL    HW235303   1.061   5.368   1.210  1.0610 -1.4002 -2.5063
11411SOL     OW35304   0.245   5.361   7.672  0.9731 -0.3810 -0.4183
11411SOL    HW135305   0.253   5.436   7.613  1.1212  0.7193  0.9560
11411SOL    HW235306   0.314   5.374   7.737 -0.3651 -0.5541  1.0796
11412SOL     OW35307   4.171   7.280   7.821  0.5877  0.0183 -0.4139
11412SOL    HW135308   4.149   7.197   7.863 -0.0831  0.3073 -0.1831
11412SOL    HW235309   4.093   7.334   7.833  0.0069 -0.1887 -2.8311
11413SOL     OW35310   2.571   0.698   7.382 -0.0081 -0.6699  0.0382
11413SOL    HW135311   2.540   0.658   7.301  2.1458  0.2743 -1.3712
11413SOL    HW235312   2.575   0.626   7.445 -0.0189 -1.8379 -1.2446
11414SOL     OW35313   3.589   4.540   4.212 -0.5960 -0.1256  0.3034
11414SOL    HW135314   3.589   4.604   4.140 -0.4021  0.9235  1.2114
11414SOL    HW235315   3.671   4.558   4.259 -0.8292 -0.6526  0.9201
11415SOL     OW35316   0.373   4.413   6.836 -0.2223  0.4242  0.2694
11415SOL    HW135317   0.294   4.365   6.862  0.1941  0.1668  1.0889
11415SOL    HW235318   0.366   4.420   6.741 -1.2155  0.3723  0.3271
11416SOL     OW35319   2.245   4.146   3.034 -0.6707 -0.2986 -0.2093
11416SOL    HW135320   2.222   4.183   3.120 -1.4999  1.8962 -1.2866
11416SOL    HW235321   2.329   4.102   3.049  0.6791  2.4704  1.1927
11417SOL     OW35322   2.373   2.573   0.327 -0.0977  0.1823  0.3095
11417SOL    HW135323   2.320   2.505   0.369  0.6845 -0.5125  0.1910
11417SOL    HW235324   2.313   2.615   0.265 -0.4324 -0.8061 -0.0580
11418SOL     OW35325   0.821   0.180   2.466 -0.4147 -0.5595  0.2789
11418SOL    HW135326   0.727   0.162   2.473 -0.4638 -0.5992 -0.4550
11418SOL    HW235327   0.827   0.261   2.415 -0.0052 -1.4134 -1.0720
11419SOL     OW35328   6.384   2.093   3.088 -0.4136  0.1287 -0.2434
11419SOL    HW135329   6.382   2.012   3.140 -0.0767  0.2234 -0.0804
11419SOL    HW235330   6.296   2.099   3.050 -0.5703 -0.0983  0.0759
11420SOL     OW35331   1.441   1.820   6.895  0.5042  0.0896  0.3254
11420SOL    HW135332   1.441   1.747   6.958  0.4779  1.3878  1.8945
11420SOL    HW235333   1.503   1.883   6.931 -1.7483  2.2354  0.7223
11421SOL     OW35334   4.702   0.710   6.836 -0.3206 -0.3611 -0.0352
11421SOL    HW135335   4.740   0.703   6.748 -1.9981 -1.0888 -0.7462
11421SOL    HW235336   4.655   0.793   6.835  0.5388  0.1458  0.5603
11422SOL     OW35337   0.191   5.986   1.438  0.2114  0.0139  0.2838
11422SOL    HW135338   0.112   6.010   1.391 -0.4211  0.0624  1.3475
11422SOL    HW235339   0.202   5.893   1.421  0.1378  0.0804 -0.1559
11423SOL     OW35340   2.349   1.308   0.898  0.2605 -0.0128  0.1472
11423SOL    HW135341   2.428   1.357   0.917  0.3529  0.4272 -1.2572
11423SOL    HW235342   2.326   1.333   0.809  0.6665 -2.9685 -0.9156
11424SOL     OW35343   3.506   3.635   6.608 -0.2107  0.1856  0.1074
11424SOL    HW135344   3.492   3.726   6.579 -2.9032  0.6340  2.3432
11424SOL    HW235345   3.478   3.582   6.533  0.4580  1.1822 -0.8864
11425SOL     OW35346   4.508   4.753   3.229  0.3043  0.3811  0.5991
11425SOL    HW135347   4.546   4.767   3.142 -0.1795 -1.4390  0.0521
11425SOL    HW235348   4.557   4.812   3.286  1.8426  0.3346 -0.6026
11426SOL     OW35349   0.537   2.756   7.461  0.3676 -0.0344 -0.2614
11426SOL    HW135350   0.490   2.764   7.545 -0.5623  1.5059 -0.8846
11426SOL    HW235351   0.475   2.711   7.404  1.3229 -1.8553  0.0673
11427SOL     OW35352   4.711   1.301   1.006  0.1584 -0.4140 -0.0661
11427SOL    HW135353   4.801   1.293   0.972 -0.8197  1.0027 -3.2993
11427SOL    HW235354   4.689   1.212   1.034  2.9238 -0.5823  2.1321
11428SOL     OW35355   6.956   5.313   0.827 -0.0790  0.2545 -0.4546
11428SOL    HW135356   7.025   5.380   0.833  0.9230 -0.8461  2.7658
11428SOL    HW235357   7.003   5.233   0.803 -0.3851 -0.2527  0.5683
11429SOL     OW35358   2.758   6.245   3.188 -0.9381  0.2103 -0.0129
11429SOL    HW135359   2.814   6.168   3.177  0.5651  1.1445  0.7794
11429SOL    HW235360   2.784   6.304   3.117 -1.8765  0.1266 -0.4418
11430SOL     OW35361   6.972   4.892   1.447  0.2311  0.1947  0.5167
11430SOL    HW135362   6.877   4.902   1.454  0.0763 -1.4068  1.2133
11430SOL    HW235363   6.998   4.855   1.532  1.3508 -0.1635  0.0370
11431SOL     OW35364   6.605   6.950   3.972  0.4085  0.1786  0.5662
11431SOL    HW135365   6.562   6.906   4.046 -0.3628  3.0345  1.9764
11431SOL    HW235366   6.540   7.011   3.939  1.9233  1.4997 -0.1235
11432SOL     OW35367   3.764   1.520   3.862  0.1801  0.2519  0.2992
11432SOL    HW135368   3.715   1.514   3.780  0.7325 -0.5662  0.0178
11432SOL    HW235369   3.810   1.436   3.869  0.8026  0.6384  1.0206
11433SOL     OW35370   5.741   3.509   4.913  0.3195 -0.3152  0.1319
11433SOL    HW135371   5.695   3.437   4.956  1.3789 -0.4730  1.0863
11433SOL    HW235372   5.798   3.544   4.982 -1.3703  2.5525  0.2227
11434SOL     OW35373   5.338   0.381   5.275 -0.1498 -0.8923  0.4839
11434SOL    HW135374   5.332   0.406   5.183 -0.6893 -0.6753  0.5746
11434SOL    HW235375   5.268   0.318   5.288 -0.6396 -0.2650  0.9527
11435SOL     OW35376   5.799   7.398   1.221 -0.3018 -0.1567  0.7351
11435SOL    HW135377   5.777   7.311   1.188 -0.4380 -0.1512  0.8128
11435SOL    HW235378   5.793   7.390   1.316 -0.8817  0.0878  0.7223
11436SOL     OW35379   5.716   2.552   3.692  0.2704  0.2102  0.3657
11436SOL    HW135380   5.702   2.595   3.607  0.7436 -1.4533 -0.5906
11436SOL    HW235381   5.628   2.534   3.725  0.0655 -1.1095 -0.8318
11437SOL     OW35382   6.559   8.024   6.930  0.0593 -0.3902  0.2831
11437SOL    HW135383   6.605   7.958   6.982  0.6502 -0.2501 -0.0518
11437SOL    HW235384   6.596   8.015   6.842 -0.0490  0.2032  0.1748
11438SOL     OW35385   7.226   3.886   6.752 -0.0918  0.0406 -0.2983
11438SOL    HW135386   7.172   3.873   6.830  0.2133 -0.4676 -0.1656
11438SOL    HW235387   7.249   3.798   6.724 -0.5918  0.1994 -1.2474
11439SOL     OW35388   6.016   6.425   0.470 -0.0363 -0.2169  0.5384
11439SOL    HW135389   6.093   6.385   0.512  0.4659  0.6685  0.4863
11439SOL    HW235390   5.958   6.351   0.451  0.4511 -0.8141  1.3012
11440SOL     OW35391   5.522   0.854   3.463 -0.0442 -0.6866  0.9900
11440SOL    HW135392   5.576   0.927   3.432  0.0239 -0.8125  0.8118
11440SOL    HW235393   5.571   0.776   3.438 -0.6832 -0.8217  0.1345
11441SOL     OW35394   2.252   7.162   4.879  0.3429 -0.2308 -0.5877
11441SOL    HW135395   2.174   7.209   4.906 -0.4291 -1.4754 -0.5862
11441SOL    HW235396   2.243   7.075   4.917  0.5719 -1.1520 -2.5064
11442SOL     OW35397   1.984   6.319   4.681  0.2046  0.2821  0.1529
11442SOL    HW135398   1.950   6.405   4.657 -0.3576 -0.3227 -1.3499
11442SOL    HW235399   1.933   6.257   4.628  0.3060 -1.0230  1.5033
11443SOL     OW35400   6.004   4.702   2.806 -0.1489 -0.6119 -0.1546
11443SOL    HW135401   6.061   4.774   2.778 -0.1030 -0.7039 -0.3007
11443SOL    HW235402   6.019   4.695   2.900  0.9798 -1.4119 -0.3717
11444SOL     OW35403   7.257   2.830   0.744 -0.7908  0.2348  0.1578
11444SOL    HW135404   7.271   2.921   0.769 -0.8194  0.3500 -0.2406
11444SOL    HW235405   7.181   2.831   0.687 -2.1688 -0.3307  1.8825
11445SOL     OW35406   3.300   4.951   7.398  0.6618 -0.0365 -0.1825
11445SOL    HW135407   3.320   4.885   7.465  0.0288  1.6074  1.7247
11445SOL    HW235408   3.207   4.941   7.382  0.8817 -0.6664 -1.1321
11446SOL     OW35409   0.482   5.907   1.556 -0.4640 -0.2862 -0.0165
11446SOL    HW135410   0.462   5.872   1.470 -0.0181 -0.1588 -0.1787
11446SOL    HW235411   0.514   5.832   1.606 -1.3806 -0.4995  0.2607
11447SOL     OW35412   1.041   4.586   7.764  0.4398  0.1978 -0.3307
11447SOL    HW135413   1.108   4.621   7.705  2.1978  3.0766  3.0187
11447SOL    HW235414   0.965   4.643   7.751  1.2539  1.6489  0.8971
11448SOL     OW35415   2.909   2.811   2.339 -0.1072  0.3326  0.3836
11448SOL    HW135416   3.000   2.837   2.328 -0.4162  1.3552  0.2086
11448SOL    HW235417   2.868   2.832   2.256 -0.5446  0.0303  0.5212
11449SOL     OW35418   4.080   5.884   0.393  0.0071  0.1978  0.3028
11449SOL    HW135419   4.074   5.843   0.479 -1.2076 -1.0864 -0.3408
11449SOL    HW235420   4.111   5.813   0.336 -1.0921  0.4700 -0.6589
11450SOL     OW35421   4.198   5.431   0.716  0.3935  0.3583  0.4265
11450SOL    HW135422   4.128   5.496   0.710  2.0127  2.0568 -1.3143
11450SOL    HW235423   4.171   5.362   0.655 -0.9551 -0.3156  1.7033
11451SOL     OW35424   7.599   4.623   2.479  0.0619  0.6992 -0.1844
11451SOL    HW135425   7.627   4.617   2.570 -0.0872  1.4913 -0.0826
11451SOL    HW235426   7.521   4.678   2.480 -1.4260 -1.2895 -0.5029
11452SOL     OW35427   0.544   7.445   3.016 -0.3556  0.0085 -0.2242
11452SOL    HW135428   0.464   7.421   2.969 -1.7726  0.9553  1.5687
11452SOL    HW235429   0.545   7.541   3.013  0.2825  0.0319  0.4506
11453SOL     OW35430   3.967   1.879   5.817 -0.0253  0.2779  0.0645
11453SOL    HW135431   3.913   1.805   5.844 -0.2576 -0.3234 -1.8906
11453SOL    HW235432   3.911   1.956   5.830 -1.8411 -0.3993 -2.7952
11454SOL     OW35433   3.656   3.304   4.120 -0.3480  0.0605  0.0090
11454SOL    HW135434   3.684   3.220   4.158  0.0316  0.3425  0.3740
11454SOL    HW235435   3.619   3.353   4.194 -1.4057 -0.1277 -0.3836
11455SOL     OW35436   2.762   7.796   2.093 -0.6173 -0.0153 -0.0038
11455SOL    HW135437   2.789   7.769   2.005  0.5728 -0.4717  0.4862
11455SOL    HW235438   2.756   7.713   2.142 -0.2022  0.3260  0.6332
11456SOL     OW35439   3.972   0.897   3.221 -0.6120  0.1197  0.0935
11456SOL    HW135440   4.021   0.839   3.279 -0.9289 -0.8003 -0.5384
11456SOL    HW235441   4.031   0.911   3.147 -1.2715 -0.9990 -0.6747
11457SOL     OW35442   0.295   2.253   6.294  0.2794 -0.3333  0.0368
11457SOL    HW135443   0.359   2.314   6.329  2.6807 -2.6046 -0.0981
11457SOL    HW235444   0.281   2.190   6.364 -1.4523 -0.1884 -0.1379
11458SOL     OW35445   5.118   7.962   0.102 -0.2993 -0.2760  0.1008
11458SOL    HW135446   5.082   7.874   0.100  0.3045 -0.5684  1.2423
11458SOL    HW235447   5.042   8.020   0.109 -0.6670 -0.7200 -0.1999
11459SOL     OW35448   7.773   6.262   2.715 -0.8026 -0.3925  0.1702
11459SOL    HW135449   7.859   6.227   2.693 -0.2018  0.5905  0.8515
11459SOL    HW235450   7.720   6.185   2.737  0.0088 -0.9855  0.0918
11460SOL     OW35451   6.219   5.126   6.744 -0.3410 -0.0345  0.3184
11460SOL    HW135452   6.182   5.135   6.656  0.9057 -0.5155 -0.2756
11460SOL    HW235453   6.280   5.052   6.737  2.1035  1.8114  0.7639
11461SOL     OW35454   0.416   0.723   6.614 -0.2733  0.3303  0.3613
11461SOL    HW135455   0.361   0.656   6.655 -0.9480  0.7445  0.1413
11461SOL    HW235456   0.504   0.685   6.616 -0.7888 -1.0053 -0.6951
11462SOL     OW35457   5.480   5.369   4.848 -0.7350  0.2927 -0.1650
11462SOL    HW135458   5.499   5.385   4.756 -0.7746 -1.0948 -0.4263
11462SOL    HW235459   5.401   5.421   4.866 -0.3502  1.0949 -0.7132
11463SOL     OW35460   4.982   0.527   4.768  0.3220  0.7922  0.0629
11463SOL    HW135461   5.012   0.608   4.810 -0.0246  0.6363  0.6129
11463SOL    HW235462   4.887   0.537   4.761  0.2881  0.4708  0.0580
11464SOL     OW35463   3.304   0.945   0.680 -0.2802  0.5849  0.3588
11464SOL    HW135464   3.391   0.986   0.681  0.3167 -0.5414 -1.6259
11464SOL    HW235465   3.251   1.003   0.626 -1.0733  1.7082  2.2167
11465SOL     OW35466   2.312   5.212   0.055 -0.5452 -0.1392  0.0240
11465SOL    HW135467   2.262   5.131   0.051  0.0527 -0.6087  1.4420
11465SOL    HW235468   2.385   5.198  -0.006 -1.2184 -0.0848 -0.8159
11466SOL     OW35469   3.669   0.203   5.920  0.1569  0.0417 -0.7525
11466SOL    HW135470   3.621   0.235   5.844  0.5510 -0.1589 -1.0875
11466SOL    HW235471   3.602   0.160   5.974 -0.0388 -0.2697 -1.2375
11467SOL     OW35472   2.692   0.995   8.051 -0.2617  0.5712  0.2571
11467SOL    HW135473   2.669   0.928   7.987  0.6343  0.2622  0.2353
11467SOL    HW235474   2.692   0.949   8.135  2.7428 -0.1434 -0.0053
11468SOL     OW35475   2.056   3.317   2.269  0.4346 -0.5471  0.6957
11468SOL    HW135476   2.098   3.310   2.354 -0.1882 -1.0977  0.9683
11468SOL    HW235477   2.002   3.396   2.274  2.4370  0.9739 -0.1296
11469SOL     OW35478   7.680   1.415   4.962 -0.1021 -0.4320 -0.0009
11469SOL    HW135479   7.654   1.505   4.941  0.5561  0.3262  2.1346
11469SOL    HW235480   7.738   1.389   4.891  0.7578  1.3618  0.0016
11470SOL     OW35481   0.982   2.214   7.169  0.2939 -0.7404 -0.5619
11470SOL    HW135482   0.891   2.232   7.193  0.7248  0.8641  0.0425
11470SOL    HW235483   1.005   2.286   7.110  1.0871 -1.2925 -0.9328
11471SOL     OW35484   5.657   2.554   5.892 -0.5275  0.0420  0.1389
11471SOL    HW135485   5.564   2.573   5.900 -0.8936 -1.0760 -1.1899
11471SOL    HW235486   5.669   2.526   5.801  1.0948  0.0948  0.2999
11472SOL     OW35487   6.922   6.632   2.958  0.5107 -0.1697  0.0825
11472SOL    HW135488   6.969   6.715   2.955  0.1586  0.1450  1.8383
11472SOL    HW235489   6.867   6.632   2.879 -1.7685  2.7161  1.4704
11473SOL     OW35490   6.286   4.772   7.240 -0.0998  0.3245  0.1149
11473SOL    HW135491   6.268   4.699   7.180  0.0446 -0.7775  1.3792
11473SOL    HW235492   6.370   4.751   7.279  0.7991  2.0599 -0.7430
11474SOL     OW35493   0.743   6.776   2.609 -1.0493 -0.1674  0.3196
11474SOL    HW135494   0.835   6.775   2.636 -0.6446  0.2608 -0.9748
11474SOL    HW235495   0.719   6.868   2.607 -1.4245 -0.2626  0.3951
11475SOL     OW35496   2.990   4.893   4.940  0.6652  0.2954  0.4307
11475SOL    HW135497   3.059   4.958   4.953  0.6105  0.2677  0.8990
11475SOL    HW235498   2.926   4.937   4.884  1.4208  0.0527 -0.6509
11476SOL     OW35499   1.117   1.349   8.084  0.0322  0.1502 -0.5948
11476SOL    HW135500   1.117   1.442   8.059  1.6448  0.2187 -0.4371
11476SOL    HW235501   1.118   1.302   8.000  1.8114  0.3427 -0.7338
11477SOL     OW35502   2.286   3.658   0.362  0.3075 -0.8098 -0.5429
11477SOL    HW135503   2.291   3.628   0.453 -1.5616  1.6675  0.4897
11477SOL    HW235504   2.232   3.593   0.318 -1.7067 -0.2870  1.0354
11478SOL     OW35505   3.177   0.490   2.711 -0.4072 -0.2587  0.0502
11478SOL    HW135506   3.143   0.503   2.799 -0.0426  1.5324 -0.0319
11478SOL    HW235507   3.233   0.566   2.695  1.5881 -1.7810 -0.7911
11479SOL     OW35508   0.871   5.543   7.019 -0.2528 -0.0709 -0.1246
11479SOL    HW135509   0.948   5.600   7.011 -0.6473  0.4795 -0.0279
11479SOL    HW235510   0.892   5.485   7.093 -0.6040  1.1593  0.9716
11480SOL     OW35511   0.954   5.847   7.259 -0.8539 -0.5026 -0.2914
11480SOL    HW135512   0.993   5.787   7.322 -0.4064  0.1850  0.0987
11480SOL    HW235513   0.967   5.934   7.297 -3.1051 -0.2605  0.0420
11481SOL     OW35514   4.807   6.895   5.543  0.0472 -0.4772  0.0685
11481SOL    HW135515   4.899   6.877   5.563 -0.1873 -0.7080  1.0144
11481SOL    HW235516   4.793   6.858   5.457  1.1875  0.7722 -0.6951
11482SOL     OW35517   2.754   2.683   6.845  0.4947 -0.2792 -0.0769
11482SOL    HW135518   2.757   2.618   6.775  1.4278 -1.2123  0.7869
11482SOL    HW235519   2.791   2.762   6.807 -1.4565  0.0593 -1.4148
11483SOL     OW35520   4.699   6.338   5.408 -0.1953  0.1444  0.5052
11483SOL    HW135521   4.750   6.336   5.327  1.3758 -0.2387  1.4592
11483SOL    HW235522   4.624   6.394   5.388  1.2025  1.7252 -0.6146
11484SOL     OW35523   4.381   5.052   5.434 -1.0026  0.4062 -0.3247
11484SOL    HW135524   4.289   5.067   5.457 -0.8678 -0.8602  1.1895
11484SOL    HW235525   4.428   5.060   5.517  0.1586  0.2072 -0.9356
11485SOL     OW35526   3.101   0.433   4.684 -0.0318 -0.5734  1.1495
11485SOL    HW135527   3.165   0.497   4.716 -0.6129  0.6029  0.0217
11485SOL    HW235528   3.046   0.482   4.624 -0.4895 -2.1526  0.2264
11486SOL     OW35529   4.331   2.825   5.457  0.2381  0.0307  0.3853
11486SOL    HW135530   4.358   2.734   5.445 -2.0175 -0.5119 -1.3929
11486SOL    HW235531   4.359   2.869   5.376 -0.7091  0.3216  0.1957
11487SOL     OW35532   1.819   1.313   1.482  0.3811  0.7295  0.2169
11487SOL    HW135533   1.730   1.345   1.467  0.0588  0.5615  1.6146
11487SOL    HW235534   1.876   1.376   1.438 -0.3895  1.3799  0.1467
11488SOL     OW35535   8.027   0.456   3.329 -0.5130 -0.5654 -0.2200
11488SOL    HW135536   8.102   0.492   3.376 -0.2422  0.3054 -1.2556
11488SOL    HW235537   7.967   0.530   3.320 -0.2690 -0.5051 -1.7640
11489SOL     OW35538   0.290   4.855   7.530  0.1650 -0.0805  0.4702
11489SOL    HW135539   0.282   4.951   7.533 -0.1469 -0.1293  2.0272
11489SOL    HW235540   0.285   4.828   7.622 -0.3732 -1.6470  0.0007
11490SOL     OW35541   3.341   7.109   7.819 -0.6753 -0.4575 -0.3735
11490SOL    HW135542   3.264   7.163   7.802 -0.2038  0.3892  0.1682
11490SOL    HW235543   3.309   7.040   7.877 -0.3625  1.8335  2.7526
11491SOL     OW35544   5.179   7.563   2.907  0.2564  0.5052  0.1530
11491SOL    HW135545   5.167   7.595   2.817  1.4147  0.0616 -0.1690
11491SOL    HW235546   5.221   7.478   2.897  2.6806  1.4995  1.1513
11492SOL     OW35547   4.543   7.648   1.711 -0.8303  0.6190 -0.1527
11492SOL    HW135548   4.470   7.711   1.711 -1.2736  0.1091 -0.2529
11492SOL    HW235549   4.512   7.575   1.764 -0.5014  0.2744 -0.4322
11493SOL     OW35550   3.381   7.551   3.631 -0.4609  0.4604 -0.1646
11493SOL    HW135551   3.380   7.462   3.666  0.1497  0.6947  0.4749
11493SOL    HW235552   3.470   7.582   3.647 -0.5655  1.0621 -0.7080
11494SOL     OW35553   6.061   0.267   4.422  0.3248  0.2937  0.4691
11494SOL    HW135554   6.004   0.341   4.401 -1.2429 -1.0611 -0.3145
11494SOL    HW235555   6.050   0.207   4.348  2.0927 -0.4295  0.7399
11495SOL     OW35556   7.522   0.436   0.578  0.1520 -0.0286 -0.3881
11495SOL    HW135557   7.511   0.425   0.673  1.2498  0.5745 -0.1707
11495SOL    HW235558   7.564   0.355   0.549  0.6886  0.1740 -0.1895
11496SOL     OW35559   1.210   7.720   6.469  0.0921 -0.0861 -0.2058
11496SOL    HW135560   1.279   7.683   6.524 -0.1728  0.7542  0.7241
11496SOL    HW235561   1.154   7.768   6.530  0.3092  1.6667 -1.3311
11497SOL     OW35562   3.775   0.281   1.341 -0.0104  0.4720 -0.7106
11497SOL    HW135563   3.849   0.321   1.295  0.9259  0.4914  0.7540
11497SOL    HW235564   3.815   0.215   1.398 -1.3726 -1.4410 -1.8468
11498SOL     OW35565   4.629   0.812   5.282 -0.2091  0.7811  0.1666
11498SOL    HW135566   4.719   0.784   5.265 -0.8015 -0.6313 -0.9003
11498SOL    HW235567   4.609   0.874   5.212 -0.6249 -0.3158 -0.7314
11499SOL     OW35568   5.482   0.620   8.054  0.5786 -0.0526 -0.2736
11499SOL    HW135569   5.576   0.603   8.061  0.7923 -0.5818 -3.0539
11499SOL    HW235570   5.440   0.538   8.077  0.8042  0.0396  0.4908
11500SOL     OW35571   4.186   6.265   3.101  0.4485 -0.5227 -0.2602
11500SOL    HW135572   4.269   6.243   3.141  0.5737 -0.3574 -0.4271
11500SOL    HW235573   4.121   6.249   3.169  0.3931 -2.5208 -0.7011
11501SOL     OW35574   2.991   6.783   3.079  0.5755  0.2773  0.2081
11501SOL    HW135575   2.990   6.762   2.986 -1.2536 -1.0618  0.4656
11501SOL    HW235576   2.936   6.716   3.119 -2.6445  3.4328  1.6227
11502SOL     OW35577   4.359   7.811   3.988  0.0875  0.1011 -0.2556
11502SOL    HW135578   4.291   7.806   4.055  1.2801  0.8705  1.0751
11502SOL    HW235579   4.429   7.755   4.021 -0.6669 -2.5503 -2.6857
11503SOL     OW35580   2.583   4.079   0.377  0.4970  0.6047  0.3973
11503SOL    HW135581   2.650   4.133   0.419 -1.2712  2.4861  0.9683
11503SOL    HW235582   2.609   4.078   0.285  1.7472  0.5853  0.7236
11504SOL     OW35583   0.435   3.164   2.758 -0.0916 -0.7999  1.1002
11504SOL    HW135584   0.508   3.145   2.816 -1.3105  0.1542  3.0582
11504SOL    HW235585   0.425   3.086   2.704  1.0759 -1.7349  2.1966
11505SOL     OW35586   0.540   5.215   1.455  0.0325  1.0581  0.5321
11505SOL    HW135587   0.457   5.199   1.500  0.6083  0.6997  1.4917
11505SOL    HW235588   0.515   5.250   1.370 -1.1364  0.0212  0.4213
11506SOL     OW35589   1.825   1.139   7.420 -0.8001 -0.6319 -0.7135
11506SOL    HW135590   1.798   1.084   7.346 -0.7897  0.0489 -1.2331
11506SOL    HW235591   1.897   1.192   7.385 -0.7242 -0.3816 -0.1806
11507SOL     OW35592   7.586   2.335   7.863  0.5108  0.0220  0.3127
11507SOL    HW135593   7.662   2.374   7.906  1.3843 -1.9075  0.6154
11507SOL    HW235594   7.562   2.261   7.920  0.0825 -1.0132 -1.1580
11508SOL     OW35595   2.325   7.027   1.652  0.4984 -0.0743 -0.2775
11508SOL    HW135596   2.301   6.937   1.627  2.2707 -0.5964 -0.2207
11508SOL    HW235597   2.420   7.025   1.661  0.4527  1.5211  0.9498
11509SOL     OW35598   6.688   0.104   1.135 -0.2285  0.5756 -0.3487
11509SOL    HW135599   6.749   0.114   1.061 -0.2896  1.3638 -0.3079
11509SOL    HW235600   6.601   0.112   1.095 -0.4421 -2.3220 -0.6917
11510SOL     OW35601   2.102   6.345   5.910  0.1580  0.4685  0.4635
11510SOL    HW135602   2.084   6.350   6.004  0.9570  0.0015  0.6582
11510SOL    HW235603   2.050   6.271   5.880  0.8047 -0.1310  0.7835
11511SOL     OW35604   5.620   4.839   4.795 -0.7226 -0.1731  0.2619
11511SOL    HW135605   5.650   4.758   4.757  1.2394 -0.2617  1.8326
11511SOL    HW235606   5.632   4.905   4.727  0.5950 -0.6985 -0.0397
11512SOL     OW35607   6.672   6.423   2.359  0.6367 -0.0896  0.1477
11512SOL    HW135608   6.601   6.448   2.300 -0.6132 -0.3736  1.4814
11512SOL    HW235609   6.743   6.396   2.301 -1.1893 -2.2023 -1.2817
11513SOL     OW35610   1.350   3.715   1.421 -0.4247 -0.0918  0.0674
11513SOL    HW135611   1.269   3.667   1.406 -0.7777  0.7394 -0.8282
11513SOL    HW235612   1.345   3.789   1.360 -0.0579  1.2633  1.6139
11514SOL     OW35613   6.237   3.048   3.147  0.5126  0.4578  0.0450
11514SOL    HW135614   6.190   3.029   3.228 -0.7075  2.0440 -0.2342
11514SOL    HW235615   6.308   2.984   3.145 -0.5864 -0.8926  1.3672
11515SOL     OW35616   1.788   5.401   7.580 -0.4745  0.4953  0.6949
11515SOL    HW135617   1.770   5.459   7.506 -2.4038 -1.2656 -0.3020
11515SOL    HW235618   1.705   5.398   7.628 -0.0414 -0.4890  1.3980
11516SOL     OW35619   6.037   0.062   1.501 -0.1960 -0.3321  0.1145
11516SOL    HW135620   6.060   0.050   1.593 -1.1513 -1.3686  0.2503
11516SOL    HW235621   6.072   0.148   1.478  0.0069 -0.0280  1.4604
11517SOL     OW35622   0.634   4.891   0.420 -0.4112  0.0716 -0.0024
11517SOL    HW135623   0.539   4.879   0.429 -0.5888  1.3071 -0.0414
11517SOL    HW235624   0.654   4.963   0.479  0.1876  1.0930 -1.4184
11518SOL     OW35625   6.754   7.162   3.576  0.6057  0.3473  0.6515
11518SOL    HW135626   6.803   7.243   3.558  1.1066 -0.2013 -0.6514
11518SOL    HW235627   6.742   7.161   3.671  0.3228  2.0873  0.6655
11519SOL     OW35628   0.841   6.706   3.192 -0.1240  0.4743  0.2162
11519SOL    HW135629   0.820   6.794   3.162 -3.1830 -0.8236 -1.8801
11519SOL    HW235630   0.768   6.681   3.248  0.6447 -0.7941  0.6990
11520SOL     OW35631   4.339   7.253   3.287  0.5153  0.0319  0.3254
11520SOL    HW135632   4.380   7.291   3.209  1.5474 -0.6909  0.5015
11520SOL    HW235633   4.351   7.320   3.355  0.3293  0.3243  0.0734
11521SOL     OW35634   1.462   1.852   4.892 -0.2329 -0.1255  0.2518
11521SOL    HW135635   1.375   1.890   4.901  0.4051  1.3480  0.5638
11521SOL    HW235636   1.455   1.765   4.931 -0.9570  0.9123  2.5993
11522SOL     OW35637   4.664   3.633   1.712 -0.2165  0.0171  0.3230
11522SOL    HW135638   4.696   3.642   1.622 -0.6582  1.2137  0.2654
11522SOL    HW235639   4.571   3.615   1.702 -0.8028  2.5145  0.5063
11523SOL     OW35640   4.863   6.187   3.766 -0.1986  0.3518 -0.2548
11523SOL    HW135641   4.940   6.223   3.810 -0.4012 -0.2753  0.6184
11523SOL    HW235642   4.798   6.258   3.771 -1.0986 -0.5553  2.7554
11524SOL     OW35643   7.359   5.034   1.342  0.3536  0.4820 -0.3773
11524SOL    HW135644   7.441   5.084   1.348  1.1690 -0.9163  0.7369
11524SOL    HW235645   7.290   5.099   1.351  1.3393  1.6263 -0.8164
11525SOL     OW35646   6.591   2.978   4.829 -0.1143 -0.0478 -0.2499
11525SOL    HW135647   6.628   2.893   4.853  0.2310  0.8107  2.6752
11525SOL    HW235648   6.515   2.957   4.776  0.0405 -2.1840  0.2762
11526SOL     OW35649   0.510   7.980   6.491 -0.0134 -0.0661  0.4167
11526SOL    HW135650   0.418   7.955   6.481 -0.0427  0.3417 -0.4178
11526SOL    HW235651   0.507   8.072   6.519  0.1471  0.3647 -0.9328
11527SOL     OW35652   5.208   7.484   5.116 -0.2015  0.4240 -0.5821
11527SOL    HW135653   5.255   7.415   5.069  2.0435  1.5413 -0.0910
11527SOL    HW235654   5.257   7.564   5.097 -2.6093  1.9239 -0.9710
11528SOL     OW35655   3.081   7.693   7.319 -0.6836 -0.2438 -0.1564
11528SOL    HW135656   3.010   7.642   7.359 -0.0552  0.3225  1.7786
11528SOL    HW235657   3.097   7.764   7.380  0.0852  0.9169 -1.6525
11529SOL     OW35658   5.467   3.317   1.672  0.0478 -0.1287  0.1706
11529SOL    HW135659   5.512   3.301   1.589 -0.3944 -0.6884  0.0329
11529SOL    HW235660   5.528   3.288   1.739 -0.3411 -1.5023 -0.0363
11530SOL     OW35661   3.259   4.561   2.394  0.1695  0.5534  0.2067
11530SOL    HW135662   3.307   4.589   2.472  0.1544  0.0781  0.3921
11530SOL    HW235663   3.174   4.604   2.401  0.4201  1.0681  0.0899
11531SOL     OW35664   1.432   0.926   2.019  0.2001  0.7250 -0.3598
11531SOL    HW135665   1.422   1.020   2.003  2.4856  0.8101 -1.5978
11531SOL    HW235666   1.348   0.889   1.993 -0.0090  2.2002 -1.9899
11532SOL     OW35667   4.891   5.526   1.079  0.5356  0.1626  0.1571
11532SOL    HW135668   4.933   5.471   1.013  1.1280 -1.1047  1.5514
11532SOL    HW235669   4.962   5.576   1.118  0.7170 -1.4405  2.0035
11533SOL     OW35670   4.455   3.610   3.016 -0.0970  0.1211  0.3245
11533SOL    HW135671   4.392   3.607   3.088 -0.6267 -0.7983 -0.1581
11533SOL    HW235672   4.460   3.702   2.992 -1.2889  0.2062  0.3560
11534SOL     OW35673   8.154   6.770   1.625  0.3204 -0.0212 -0.0242
11534SOL    HW135674   8.100   6.750   1.548  0.7503 -0.2504 -0.2711
11534SOL    HW235675   8.225   6.824   1.590  1.7480 -1.9168 -0.2077
11535SOL     OW35676   3.614   1.640   6.487  0.6607  0.1579 -0.0600
11535SOL    HW135677   3.600   1.547   6.469  0.7624 -0.0804  0.9709
11535SOL    HW235678   3.592   1.685   6.406  0.9453 -0.7971 -0.6838
11536SOL     OW35679   6.604   7.808   3.954  0.3076  0.2072  0.5131
11536SOL    HW135680   6.565   7.895   3.958  0.9934  0.5798 -0.6377
11536SOL    HW235681   6.622   7.793   3.861  2.8056  0.0252  0.9584
11537SOL     OW35682   4.020   0.227   2.352 -0.5044 -0.2013 -0.1652
11537SOL    HW135683   4.095   0.193   2.400  0.2671  1.4709 -0.1185
11537SOL    HW235684   4.058   0.288   2.289 -1.8448  0.9989  0.1486
11538SOL     OW35685   4.824   7.333   1.593 -0.3150  0.3208 -0.4384
11538SOL    HW135686   4.781   7.278   1.658 -0.3337  0.6499 -0.1658
11538SOL    HW235687   4.914   7.341   1.625 -0.7408  1.8735  0.4814
11539SOL     OW35688   1.869   4.194   7.726 -0.4681  0.0463 -0.1472
11539SOL    HW135689   1.878   4.227   7.636  1.3847  0.3274  0.1148
11539SOL    HW235690   1.949   4.222   7.771 -0.1560 -2.2455  0.9030
11540SOL     OW35691   1.599   0.033   4.278 -0.1628  1.1138 -0.3848
11540SOL    HW135692   1.658   0.102   4.248  0.1878  1.9372  1.9587
11540SOL    HW235693   1.535   0.078   4.333  0.4184 -0.4359  1.6924
11541SOL     OW35694   2.017   7.923   3.584 -0.8018  0.0082  0.0900
11541SOL    HW135695   1.932   7.907   3.544 -0.6950 -3.5380  0.9790
11541SOL    HW235696   2.074   7.854   3.550  0.1307 -1.2831  3.8120
11542SOL     OW35697   4.097   7.601   3.766  0.3890 -0.1530  0.3203
11542SOL    HW135698   4.028   7.537   3.745 -1.3891  1.5475  0.6375
11542SOL    HW235699   4.088   7.615   3.860  0.6398  0.6690  0.2256
11543SOL     OW35700   7.544   1.521   6.003 -0.0839 -0.6584 -0.3457
11543SOL    HW135701   7.592   1.553   5.926 -1.1615 -1.3064 -1.3249
11543SOL    HW235702   7.495   1.598   6.034  0.2419 -0.4310 -0.3878
11544SOL     OW35703   5.656   8.047   4.446  0.7193 -0.9165  0.6947
11544SOL    HW135704   5.625   7.961   4.419 -0.8154  0.1276 -1.0825
11544SOL    HW235705   5.621   8.059   4.535 -3.3875 -0.2343 -0.7904
11545SOL     OW35706   4.606   3.766   5.813 -0.1732 -0.1211  0.0344
11545SOL    HW135707   4.680   3.726   5.858  1.0028  2.3614  0.4536
11545SOL    HW235708   4.635   3.777   5.722  0.5668  2.0706  0.4863
11546SOL     OW35709   2.768   2.807   1.156  0.2377  0.2300 -0.1680
11546SOL    HW135710   2.840   2.797   1.094  0.5354  1.0993  0.0255
11546SOL    HW235711   2.811   2.825   1.239 -0.1951  0.1180  0.0811
11547SOL     OW35712   6.916   3.130   1.712  0.7119 -0.8193 -0.2243
11547SOL    HW135713   6.989   3.100   1.659  1.0669 -1.3164  0.5309
11547SOL    HW235714   6.891   3.054   1.765 -0.7968 -0.8690 -0.9413
11548SOL     OW35715   1.089   5.907   6.030 -0.2342  0.0090  0.1097
11548SOL    HW135716   1.133   5.824   6.009  1.8539  1.1658 -0.4009
11548SOL    HW235717   1.063   5.943   5.946 -1.5215 -0.2867  0.3604
11549SOL     OW35718   3.397   5.515   6.168  0.4238 -0.2825  0.6209
11549SOL    HW135719   3.439   5.491   6.251  1.2186  1.2494  0.6891
11549SOL    HW235720   3.408   5.610   6.161 -0.3327 -0.2644 -0.8657
11550SOL     OW35721   8.053   1.286   4.247  0.3485 -0.0082  0.1595
11550SOL    HW135722   8.076   1.213   4.189  0.2382  0.2329 -0.1901
11550SOL    HW235723   8.056   1.363   4.191  1.4883  0.4082  0.7554
11551SOL     OW35724   5.707   3.068   2.635  0.2518 -0.1009 -0.5216
11551SOL    HW135725   5.636   3.103   2.689 -0.0931 -2.8312  1.0047
11551SOL    HW235726   5.787   3.108   2.671 -0.0984 -0.9147  1.2759
11552SOL     OW35727   3.288   1.853   3.770 -0.1594  0.2331 -0.2938
11552SOL    HW135728   3.346   1.807   3.709 -1.1091 -1.7296  0.2287
11552SOL    HW235729   3.318   1.944   3.766  2.2570 -0.4974 -0.8448
11553SOL     OW35730   0.474   2.656   2.571 -0.0331 -0.2894  0.1619
11553SOL    HW135731   0.399   2.661   2.512 -0.6257 -1.2253  0.8326
11553SOL    HW235732   0.486   2.563   2.589  1.6425 -0.2205 -0.3681
11554SOL     OW35733   6.500   5.837   8.162 -0.1692  0.3954  0.0467
11554SOL    HW135734   6.586   5.838   8.120  0.0657 -0.2426  0.5081
11554SOL    HW235735   6.484   5.744   8.182  0.1439  0.7669  2.2319
11555SOL     OW35736   4.388   4.234   4.083 -0.5683 -0.1697  0.1348
11555SOL    HW135737   4.365   4.243   4.176  2.1369 -1.6271  1.0712
11555SOL    HW235738   4.317   4.183   4.046 -1.3407 -0.2258  1.6004
11556SOL     OW35739   7.039   2.144   7.732 -0.9173 -0.0242  0.4769
11556SOL    HW135740   7.090   2.195   7.669 -2.7492 -0.8398 -1.8155
11556SOL    HW235741   7.083   2.059   7.735 -0.2873  0.3105  1.0692
11557SOL     OW35742   1.660   5.248   6.129 -0.0321 -0.0371  0.7444
11557SOL    HW135743   1.650   5.168   6.181 -0.2563 -1.2095 -1.0254
11557SOL    HW235744   1.573   5.288   6.129 -0.2042 -0.4096  0.6875
11558SOL     OW35745   0.278   1.812   6.535 -0.3563  0.3728 -0.6203
11558SOL    HW135746   0.215   1.802   6.463 -1.3669 -0.8554  0.3882
11558SOL    HW235747   0.234   1.774   6.611  0.6509  1.7367  0.6952
11559SOL     OW35748   3.932   2.517   5.138  0.7191  0.4295  0.0714
11559SOL    HW135749   3.890   2.581   5.081  1.1740  0.0783 -0.6781
11559SOL    HW235750   3.877   2.439   5.130  0.6856  0.4378  0.2397
11560SOL     OW35751   1.946   2.003   0.642  0.1784  0.4648  0.6188
11560SOL    HW135752   1.854   1.989   0.620 -0.1577  0.7656  1.7441
11560SOL    HW235753   1.957   2.098   0.640  1.5408  0.4233 -3.4727
11561SOL     OW35754   5.371   5.697   6.172 -0.1879  0.7461  0.0441
11561SOL    HW135755   5.277   5.702   6.190 -0.3958 -2.2079  0.2272
11561SOL    HW235756   5.376   5.667   6.081  0.4895 -0.8012  0.5554
11562SOL     OW35757   2.397   1.334   0.590  0.3870  0.1469 -0.1218
11562SOL    HW135758   2.446   1.255   0.613 -0.9959 -1.1875 -1.4624
11562SOL    HW235759   2.428   1.356   0.502  1.2580  1.5450  0.5113
11563SOL     OW35760   4.930   3.881   7.939  0.3018  0.2480  0.1516
11563SOL    HW135761   5.002   3.834   7.983 -0.0829  1.6328  2.4257
11563SOL    HW235762   4.974   3.936   7.875  1.1146 -0.2642  0.2492
11564SOL     OW35763   1.317   4.542   6.698 -0.1302 -0.4902  0.1917
11564SOL    HW135764   1.278   4.481   6.761 -1.2519 -1.4419 -1.3442
11564SOL    HW235765   1.375   4.487   6.645  0.1678  0.1236 -0.1248
11565SOL     OW35766   2.392   1.934   7.236 -0.3261  0.4337  0.6103
11565SOL    HW135767   2.452   1.947   7.309  0.0443 -0.6422  0.5031
11565SOL    HW235768   2.447   1.943   7.158 -0.3370 -0.3514  0.5085
11566SOL     OW35769   1.387   3.206   7.200 -0.0954 -0.0119 -0.3286
11566SOL    HW135770   1.345   3.263   7.265  1.0697  0.3125  0.1713
11566SOL    HW235771   1.386   3.257   7.119 -0.6289 -0.0022 -0.3210
11567SOL     OW35772   0.596   1.755   5.919 -0.4224 -0.0778  0.5088
11567SOL    HW135773   0.637   1.700   5.985  3.1536 -1.6263 -2.6343
11567SOL    HW235774   0.653   1.832   5.912 -1.4544  0.6912  0.0600
11568SOL     OW35775   2.344   0.296   7.174 -0.3907 -0.0994 -0.3480
11568SOL    HW135776   2.424   0.346   7.186 -0.9957  0.5243  1.4413
11568SOL    HW235777   2.361   0.212   7.217 -0.0390 -0.7633 -1.7097
11569SOL     OW35778   0.540   2.820   0.949  0.2469 -0.1743  0.1395
11569SOL    HW135779   0.592   2.890   0.989  0.8195 -0.7544  0.4079
11569SOL    HW235780   0.507   2.860   0.868 -0.2693  0.7415  0.7731
11570SOL     OW35781   2.148   0.640   7.544  0.3607  0.0920  0.0921
11570SOL    HW135782   2.202   0.591   7.606  0.2961  0.2336  0.2608
11570SOL    HW235783   2.150   0.588   7.464 -1.4861 -1.2979  0.8950
11571SOL     OW35784   6.874   1.464   4.663 -0.2451  0.3481  0.0765
11571SOL    HW135785   6.833   1.549   4.677 -3.7098 -1.1872  0.3857
11571SOL    HW235786   6.831   1.428   4.586  1.0752 -1.1862 -0.0164
11572SOL     OW35787   2.035   1.265   5.454 -0.1660  0.4139 -0.3180
11572SOL    HW135788   1.977   1.189   5.453  0.1005  0.1936 -2.6099
11572SOL    HW235789   2.117   1.232   5.492  0.2074 -0.6800 -2.0041
11573SOL     OW35790   7.392   6.130   7.568 -0.4336 -0.3729  0.4368
11573SOL    HW135791   7.470   6.129   7.514  1.2939 -1.6243  2.7530
11573SOL    HW235792   7.402   6.208   7.624 -0.6651 -0.7197  0.9747
11574SOL     OW35793   7.828   6.886   4.882  0.1579 -0.4900 -1.2114
11574SOL    HW135794   7.820   6.980   4.865  0.1131 -0.3101 -0.2654
11574SOL    HW235795   7.739   6.858   4.904  0.1763 -0.7481 -1.4686
11575SOL     OW35796   7.696   4.463   7.556 -0.4840 -0.6750 -0.8071
11575SOL    HW135797   7.727   4.531   7.615  0.7728 -0.7664 -1.3331
11575SOL    HW235798   7.706   4.382   7.606  0.2654 -0.7175 -1.0205
11576SOL     OW35799   1.289   6.984   0.020 -0.0416 -0.2923  0.4994
11576SOL    HW135800   1.364   6.999   0.079  0.0193  0.2289  0.2955
11576SOL    HW235801   1.222   7.044   0.052  0.3151  0.6901 -0.5263
11577SOL     OW35802   0.243   5.075   4.429 -0.4460  0.0358 -0.8639
11577SOL    HW135803   0.270   4.984   4.428 -0.9149 -0.1148 -0.0217
11577SOL    HW235804   0.307   5.119   4.373 -0.3770 -0.8432 -1.4971
11578SOL     OW35805   4.687   6.681   1.120 -0.2658  0.2129 -0.1642
11578SOL    HW135806   4.769   6.725   1.097 -0.4865  0.1689 -1.0598
11578SOL    HW235807   4.714   6.591   1.140 -0.3213 -0.4519 -2.7045
11579SOL     OW35808   1.578   4.439   4.596 -0.4285 -0.0856 -0.1053
11579SOL    HW135809   1.668   4.424   4.568  0.3705  0.5787  1.9261
11579SOL    HW235810   1.538   4.352   4.597  1.0866 -0.8366  1.7405
11580SOL     OW35811   1.592   6.599   2.590 -0.5380 -0.2367 -0.4215
11580SOL    HW135812   1.639   6.611   2.507 -0.0701  0.4153 -0.0744
11580SOL    HW235813   1.607   6.507   2.612  1.5647  0.2042  0.2306
11581SOL     OW35814   7.477   5.674   6.322 -0.6912  0.0326 -0.4944
11581SOL    HW135815   7.558   5.633   6.352 -1.9236 -1.8197  0.5625
11581SOL    HW235816   7.437   5.709   6.402 -0.6371  1.5225 -1.0990
11582SOL     OW35817   6.838   2.636   3.125  0.4393 -0.2127  0.3530
11582SOL    HW135818   6.748   2.661   3.104  0.7912  1.8638  1.0445
11582SOL    HW235819   6.891   2.710   3.094  1.6257 -0.2095  2.2140
11583SOL     OW35820   4.166   3.584   0.846 -0.1508  0.3099  0.2933
11583SOL    HW135821   4.204   3.668   0.816  0.2402 -0.7426 -2.4787
11583SOL    HW235822   4.072   3.594   0.833 -0.4376  1.2368  2.6432
11584SOL     OW35823   6.403   6.451   5.061 -0.1338  0.0290  0.1037
11584SOL    HW135824   6.446   6.380   5.014  2.0589  1.4275 -0.1134
11584SOL    HW235825   6.353   6.406   5.130  1.6095 -1.7208  0.3246
11585SOL     OW35826   1.197   1.940   4.836  0.4608 -0.6799 -0.0746
11585SOL    HW135827   1.107   1.924   4.861 -0.0994  0.2357 -1.3570
11585SOL    HW235828   1.198   1.931   4.741  1.2804  1.1759 -0.2943
11586SOL     OW35829   8.153   5.363   6.733  0.3045 -0.1860  0.3216
11586SOL    HW135830   8.168   5.385   6.824  2.2711 -0.9196  0.2198
11586SOL    HW235831   8.207   5.285   6.717  0.9381  0.6031 -1.7626
11587SOL     OW35832   2.126   5.070   3.696  0.7709  0.1571 -0.6882
11587SOL    HW135833   2.178   5.137   3.740  0.4723  0.5185 -0.8771
11587SOL    HW235834   2.158   4.987   3.732  0.6254  0.4372  0.1174
11588SOL     OW35835   3.275   0.753   7.774 -0.0526  0.6276 -0.5826
11588SOL    HW135836   3.280   0.787   7.863 -0.7397 -0.0811 -0.2631
11588SOL    HW235837   3.362   0.718   7.757 -0.4652 -1.0693  0.5812
11589SOL     OW35838   6.624   4.774   0.090  0.5926 -0.3796 -0.0029
11589SOL    HW135839   6.640   4.763  -0.004 -0.9857 -0.1992 -0.3130
11589SOL    HW235840   6.690   4.718   0.131  1.5310 -0.2099 -1.1946
11590SOL     OW35841   1.699   5.489   2.303 -0.2026  0.2485  0.9563
11590SOL    HW135842   1.659   5.427   2.242 -2.2034  0.8338  1.5972
11590SOL    HW235843   1.760   5.436   2.355 -0.4565 -0.7728  0.2344
11591SOL     OW35844   4.594   2.982   6.681 -0.6573  0.4975  0.0284
11591SOL    HW135845   4.587   3.071   6.717 -0.7903  0.7070 -0.5072
11591SOL    HW235846   4.657   2.990   6.610 -0.0056 -0.0259  0.5389
11592SOL     OW35847   3.636   4.557   1.564 -0.8370  0.3602  0.5398
11592SOL    HW135848   3.581   4.598   1.497 -1.3949  1.7127  1.7753
11592SOL    HW235849   3.714   4.613   1.568 -0.6758  0.1167  0.8233
11593SOL     OW35850   7.599   3.824   7.277  0.0523 -0.3121 -0.0880
11593SOL    HW135851   7.607   3.798   7.368  2.1800  1.4477  0.2964
11593SOL    HW235852   7.608   3.742   7.228  0.2525 -1.0995  1.2180
11594SOL     OW35853   5.933   2.118   3.655  0.0066  0.2445  0.2397
11594SOL    HW135854   5.868   2.049   3.642 -0.0186  0.4908 -1.1516
11594SOL    HW235855   6.008   2.091   3.601 -0.0607  1.3552 -0.4444
11595SOL     OW35856   4.616   4.235   2.385 -0.0641  0.3857  0.3801
11595SOL    HW135857   4.591   4.205   2.297  2.5264  2.1740 -1.1447
11595SOL    HW235858   4.693   4.183   2.406  0.0282  0.7888  1.0467
11596SOL     OW35859   7.594   7.961   4.853 -0.4953 -0.5191 -0.0064
11596SOL    HW135860   7.584   7.886   4.794 -1.8938 -0.1170 -0.3109
11596SOL    HW235861   7.659   8.017   4.811 -0.4475 -0.9082 -0.4557
11597SOL     OW35862   2.224   4.903   1.325 -0.1633 -0.2020 -0.3604
11597SOL    HW135863   2.298   4.893   1.385  0.5672  0.8966 -1.0417
11597SOL    HW235864   2.230   4.826   1.268 -1.0446 -1.4194  1.1112
11598SOL     OW35865   7.368   1.126   8.145  0.0620 -0.5299 -0.1973
11598SOL    HW135866   7.406   1.177   8.073 -0.6789 -1.0473 -0.9722
11598SOL    HW235867   7.435   1.128   8.214  1.0445 -0.5544 -1.1281
11599SOL     OW35868   3.627   2.901   3.563 -0.0789  0.3044 -0.1919
11599SOL    HW135869   3.685   2.853   3.622  1.0367 -0.2438 -1.6705
11599SOL    HW235870   3.622   2.989   3.600  0.4286 -0.0866  0.8261
11600SOL     OW35871   6.827   4.391   2.735 -0.4677 -0.7385  0.0674
11600SOL    HW135872   6.918   4.408   2.757 -0.2862 -1.9665  0.3417
11600SOL    HW235873   6.810   4.303   2.769 -1.7461 -0.5389  0.0042
11601SOL     OW35874   4.059   1.718   5.577 -0.0337 -0.4355  0.0835
11601SOL    HW135875   4.042   1.809   5.599  0.3438 -0.4822  0.5705
11601SOL    HW235876   4.136   1.720   5.521  0.0685 -0.4736  0.2247
11602SOL     OW35877   6.505   7.638   2.090 -0.2107 -0.2189  0.8018
11602SOL    HW135878   6.468   7.677   2.169  1.1257  0.1409  1.2822
11602SOL    HW235879   6.491   7.544   2.101  0.9577 -0.2752  2.0357
11603SOL     OW35880   0.073   3.222   6.539  1.0103  0.0442  0.7006
11603SOL    HW135881   0.112   3.141   6.507  2.9077  0.3805  2.0059
11603SOL    HW235882   0.045   3.268   6.460  1.1006 -1.3041 -0.1338
11604SOL     OW35883   1.945   4.135   1.502 -0.2392  0.2060  0.0771
11604SOL    HW135884   1.899   4.084   1.436  0.3087  0.5261 -0.5741
11604SOL    HW235885   2.024   4.166   1.457  0.0102  0.6551  0.8045
11605SOL     OW35886   1.561   5.072   7.475 -0.6013  0.2562 -0.7694
11605SOL    HW135887   1.603   5.004   7.527 -4.6895 -1.4424  0.7277
11605SOL    HW235888   1.518   5.129   7.539 -2.7277  0.3046 -2.1364
11606SOL     OW35889   1.432   1.887   2.908 -0.2002  0.3336  0.9544
11606SOL    HW135890   1.424   1.979   2.883  0.4250  0.3993  0.9808
11606SOL    HW235891   1.455   1.842   2.827 -3.1921 -0.2402  0.3138
11607SOL     OW35892   4.276   7.503   7.627 -0.5859 -0.0861  0.1294
11607SOL    HW135893   4.264   7.416   7.665 -1.5861  0.6226  1.5480
11607SOL    HW235894   4.321   7.488   7.544 -0.5047 -1.9217  0.4760
11608SOL     OW35895   7.382   3.894   4.644 -0.5856  0.1935 -0.4768
11608SOL    HW135896   7.339   3.839   4.709 -1.4596  2.5061  1.0447
11608SOL    HW235897   7.311   3.934   4.595 -0.0424  0.9323 -0.6826
11609SOL     OW35898   0.805   1.781   4.252  0.3636 -0.2487 -0.1961
11609SOL    HW135899   0.842   1.868   4.259 -1.1056  0.3129  1.2993
11609SOL    HW235900   0.850   1.730   4.319  0.3773 -0.3222 -0.2603
11610SOL     OW35901   2.905   1.447   7.937 -1.1138  0.5003 -0.3604
11610SOL    HW135902   2.909   1.527   7.990 -1.8315  0.0495  0.4193
11610SOL    HW235903   2.986   1.401   7.958 -1.1021  0.6212 -0.1288
11611SOL     OW35904   2.328   4.077   1.808 -0.1761 -0.2562 -0.0414
11611SOL    HW135905   2.382   4.000   1.793  0.0172  0.0375 -0.8754
11611SOL    HW235906   2.253   4.067   1.749 -0.3448  0.0147  0.1205
11612SOL     OW35907   2.959   7.023   1.857  0.1784 -0.4395  0.7768
11612SOL    HW135908   2.878   7.015   1.908 -0.3596  0.4928  0.1046
11612SOL    HW235909   3.025   7.048   1.921  0.3549 -2.8663  1.6506
11613SOL     OW35910   4.323   4.229   3.444  0.3120  0.1250  0.3169
11613SOL    HW135911   4.356   4.215   3.355  1.6483  0.5995  0.7122
11613SOL    HW235912   4.383   4.294   3.482  0.4110 -0.8492  1.9182
11614SOL     OW35913   1.282   5.545   7.045  0.3571  0.2707  0.0745
11614SOL    HW135914   1.257   5.637   7.044 -0.6483  0.0140 -0.5072
11614SOL    HW235915   1.220   5.504   7.106  0.7729 -0.0316  0.3032
11615SOL     OW35916   3.734   7.297   4.312  0.2032  0.9319 -0.4103
11615SOL    HW135917   3.827   7.314   4.322  0.1816  0.5166  0.6144
11615SOL    HW235918   3.725   7.263   4.223  1.0960  0.5470 -0.3587
11616SOL     OW35919   1.467   6.049   0.465 -0.7721 -0.3875  0.0760
11616SOL    HW135920   1.396   6.020   0.408 -0.8502  1.0699 -0.6194
11616SOL    HW235921   1.540   5.990   0.444 -0.8732 -0.0351 -1.3825
11617SOL     OW35922   1.888   5.014   0.909  0.7132 -0.1780  0.1200
11617SOL    HW135923   1.955   5.079   0.929 -0.6563  1.3290  0.0640
11617SOL    HW235924   1.902   4.944   0.972  2.6904 -0.1926 -0.2887
11618SOL     OW35925   6.392   4.613   4.162 -0.8008 -0.8621  0.2401
11618SOL    HW135926   6.444   4.631   4.084 -1.2341 -0.0135  0.1303
11618SOL    HW235927   6.344   4.695   4.178  0.3746 -0.5029  2.2431
11619SOL     OW35928   7.508   3.552   5.182 -0.0763  0.6673  0.3123
11619SOL    HW135929   7.458   3.472   5.164  0.7728  0.6029 -2.0376
11619SOL    HW235930   7.502   3.563   5.277 -2.2951 -0.7948  0.4144
11620SOL     OW35931   3.090   2.270   0.428 -0.1742  0.3294 -0.0822
11620SOL    HW135932   3.035   2.261   0.506  0.6262  0.0693  0.4730
11620SOL    HW235933   3.171   2.224   0.452  0.8087  1.8686 -0.3532
11621SOL     OW35934   5.710   1.930   7.688  0.3411  0.1129 -0.3690
11621SOL    HW135935   5.621   1.953   7.714  0.5701  0.8438 -0.1923
11621SOL    HW235936   5.709   1.935   7.592  0.5111  1.4450 -0.3248
11622SOL     OW35937   2.376   4.862   4.536  0.0770  0.2282 -0.0550
11622SOL    HW135938   2.368   4.955   4.517  0.0497  0.1013 -0.6860
11622SOL    HW235939   2.418   4.825   4.458  3.0494  0.1929  1.4067
11623SOL     OW35940   5.783   6.611   1.930  0.7250 -0.0186  0.0682
11623SOL    HW135941   5.736   6.534   1.962 -1.9580  1.6492  0.4621
11623SOL    HW235942   5.758   6.618   1.838 -2.2357  2.3690  0.8948
11624SOL     OW35943   7.415   6.084   3.939 -0.3450 -0.0836 -0.5323
11624SOL    HW135944   7.365   6.156   3.977  0.5352  0.7891 -0.9841
11624SOL    HW235945   7.364   6.006   3.960 -0.9481  0.5840  0.6110
11625SOL     OW35946   5.508   3.980   3.211  0.5754  0.2596 -0.5742
11625SOL    HW135947   5.449   3.986   3.136 -0.7344  0.5273  0.4541
11625SOL    HW235948   5.541   4.069   3.222 -0.2246  0.4962 -0.0552
11626SOL     OW35949   6.624   3.710   2.695 -0.0292 -0.5311 -0.1620
11626SOL    HW135950   6.711   3.743   2.715  0.5454 -1.4389 -1.1130
11626SOL    HW235951   6.639   3.625   2.653 -1.3442 -0.4218 -0.8944
11627SOL     OW35952   4.594   4.004   7.331 -0.4577  0.7039 -0.2288
11627SOL    HW135953   4.507   4.003   7.370  0.2478 -1.2453  1.5299
11627SOL    HW235954   4.651   3.968   7.399  1.4459  0.3468 -1.9055
11628SOL     OW35955   2.666   2.229   2.100  0.2106 -0.3587  0.9402
11628SOL    HW135956   2.574   2.220   2.078  0.4313 -0.2366 -0.0689
11628SOL    HW235957   2.671   2.307   2.155 -0.0748  0.6274 -0.3858
11629SOL     OW35958   7.369   1.213   0.296 -0.3454 -0.6676  0.2305
11629SOL    HW135959   7.291   1.165   0.322  0.0291 -2.6670 -1.9234
11629SOL    HW235960   7.391   1.267   0.372 -1.4070 -3.1617  2.4726
11630SOL     OW35961   1.987   6.901   4.855 -0.0082  0.2332  0.4803
11630SOL    HW135962   1.949   6.975   4.902  0.0766  0.8998 -0.4712
11630SOL    HW235963   1.974   6.922   4.762 -0.6515 -1.3088  0.1987
11631SOL     OW35964   5.106   1.386   6.680 -0.2837  0.9357 -0.2061
11631SOL    HW135965   5.056   1.391   6.762  1.6093  1.8225  0.9502
11631SOL    HW235966   5.098   1.473   6.642  1.1892  1.4164  0.5237
11632SOL     OW35967   8.160   2.041   4.916 -0.0358 -0.4636 -0.1472
11632SOL    HW135968   8.243   2.087   4.905  0.3841 -0.7349  1.6274
11632SOL    HW235969   8.096   2.111   4.933  0.1230 -0.3619  0.0366
11633SOL     OW35970   1.576   2.229   6.216 -0.2415  0.2119  0.1263
11633SOL    HW135971   1.640   2.191   6.276  0.0582  1.0766  0.3655
11633SOL    HW235972   1.491   2.211   6.257 -0.0315  0.9189  0.8884
11634SOL     OW35973   1.140   7.842   5.142  0.5139 -0.2967  0.4732
11634SOL    HW135974   1.223   7.823   5.185 -0.2568 -1.4872  1.4937
11634SOL    HW235975   1.083   7.768   5.165  0.2108 -1.3285 -3.0130
11635SOL     OW35976   2.242   7.062   4.492  0.4114 -0.7436  0.3059
11635SOL    HW135977   2.281   7.079   4.406 -1.0384 -0.5563 -0.3471
11635SOL    HW235978   2.314   7.028   4.545  0.9683 -2.5175 -1.4824
11636SOL     OW35979   0.839   7.516   3.731  0.5470  0.3892  0.4887
11636SOL    HW135980   0.790   7.590   3.767  0.4712  0.7064 -0.2416
11636SOL    HW235981   0.824   7.521   3.636  1.4268  0.0759  0.3202
11637SOL     OW35982   2.590   0.443   7.478  0.1407  0.9832 -0.0646
11637SOL    HW135983   2.604   0.417   7.387  1.3877  0.4816  0.2531
11637SOL    HW235984   2.584   0.361   7.526  0.6194  1.2468  0.4604
11638SOL     OW35985   0.889   2.278   5.821  0.7765  0.0091 -0.9277
11638SOL    HW135986   0.851   2.336   5.754  1.4419 -1.6339 -2.8114
11638SOL    HW235987   0.962   2.235   5.777  0.7290 -1.7662  0.6196
11639SOL     OW35988   5.030   4.527   6.906 -0.2984 -0.5117  0.1433
11639SOL    HW135989   5.069   4.573   6.832 -0.6591  0.2175  0.3931
11639SOL    HW235990   5.001   4.443   6.869  1.2113 -0.9572 -0.1086
11640SOL     OW35991   1.088   1.292   5.087 -0.0780 -0.2224  0.6430
11640SOL    HW135992   1.037   1.213   5.103 -0.3982  0.0041  0.7622
11640SOL    HW235993   1.069   1.314   4.996  0.4588 -0.5980  0.4360
11641SOL     OW35994   6.954   4.504   3.739  0.3602 -0.1112 -0.2805
11641SOL    HW135995   6.911   4.443   3.799  0.2273  0.3500  0.1003
11641SOL    HW235996   6.959   4.457   3.656  0.0750 -0.5617 -0.0456
11642SOL     OW35997   6.656   5.908   1.809 -0.1788 -0.3596 -0.2048
11642SOL    HW135998   6.562   5.902   1.795 -0.0588 -0.7802 -0.8683
11642SOL    HW235999   6.670   5.866   1.894 -0.5314 -0.7298 -0.3267
11643SOL     OW36000   0.543   6.920   3.894 -0.6040  0.2743  0.3758
11643SOL    HW136001   0.450   6.930   3.915 -0.5004 -1.2379  1.7955
11643SOL    HW236002   0.573   7.008   3.873 -2.3071  0.8208  0.0961
11644SOL     OW36003   6.272   6.382   3.967 -0.0844 -0.0305 -0.0398
11644SOL    HW136004   6.303   6.339   3.887 -0.3116 -1.2469  0.5056
11644SOL    HW236005   6.341   6.444   3.990  0.0137  0.2820 -1.1310
11645SOL     OW36006   4.214   4.184   1.812 -0.0454  0.5169  0.4346
11645SOL    HW136007   4.159   4.105   1.814  0.3790  0.2272  1.9933
11645SOL    HW236008   4.287   4.164   1.871  1.5782  1.0323 -1.3140
11646SOL     OW36009   3.891   4.932   1.228 -0.1660  0.2355 -0.6420
11646SOL    HW136010   3.919   4.981   1.151 -1.2349  0.9272 -0.6115
11646SOL    HW236011   3.915   4.989   1.302  0.4583 -0.2311 -0.4706
11647SOL     OW36012   7.757   1.240   7.741 -0.0850  0.1554  0.2471
11647SOL    HW136013   7.779   1.313   7.798  1.1415 -0.3348  0.4394
11647SOL    HW236014   7.716   1.176   7.799 -0.1302  0.2326  0.3005
11648SOL     OW36015   0.784   2.634   7.384 -0.0906  0.5433 -0.2535
11648SOL    HW136016   0.707   2.684   7.411 -0.2172  0.7512 -0.9754
11648SOL    HW236017   0.761   2.599   7.297  0.5819  0.5146 -0.4299
11649SOL     OW36018   1.880   6.012   4.634  0.6069 -0.1903 -0.2687
11649SOL    HW136019   1.972   5.991   4.619  0.3460 -0.5480 -1.5000
11649SOL    HW236020   1.850   6.049   4.551  0.8486  4.6727  1.4992
11650SOL     OW36021   0.001   4.358   8.138  0.6596 -0.4139  0.3146
11650SOL    HW136022   0.072   4.311   8.095 -0.2856 -2.2204  0.5743
11650SOL    HW236023   0.014   4.450   8.116  1.3430 -1.0389 -2.1510
11651SOL     OW36024   5.768   0.538   2.856  0.1014 -0.0254 -0.7225
11651SOL    HW136025   5.689   0.587   2.835 -0.6816 -1.1312 -0.4641
11651SOL    HW236026   5.737   0.465   2.909  1.4275  0.0429  0.1873
11652SOL     OW36027   4.760   6.351   1.822 -0.3630 -0.2021  0.1722
11652SOL    HW136028   4.787   6.310   1.904 -1.5297  0.5582  0.9629
11652SOL    HW236029   4.778   6.444   1.834  1.5078 -0.3096 -1.2978
11653SOL     OW36030   1.430   5.411   0.742  0.0692  0.7784 -0.4883
11653SOL    HW136031   1.450   5.325   0.781 -0.7611  1.1916  0.9139
11653SOL    HW236032   1.364   5.392   0.675  0.1211  0.2837 -0.4057
11654SOL     OW36033   1.608   3.143   4.100  0.4561  0.0492  0.2681
11654SOL    HW136034   1.674   3.126   4.167  0.1047 -1.4835  0.2672
11654SOL    HW236035   1.590   3.057   4.063 -1.3586  0.4742  0.0910
11655SOL     OW36036   6.643   7.290   5.540 -0.0486  0.0174  0.0341
11655SOL    HW136037   6.597   7.282   5.457  1.7898  0.3276 -1.0713
11655SOL    HW236038   6.725   7.334   5.518  1.4123 -1.7315  1.6567
11656SOL     OW36039   7.155   7.610   1.392 -0.0371 -0.1249 -0.4659
11656SOL    HW136040   7.121   7.544   1.452 -1.2022  1.5257  0.7492
11656SOL    HW236041   7.249   7.612   1.409 -0.3275  0.2026  1.2065
11657SOL     OW36042   4.315   5.102   7.355 -0.1740  0.1976  0.4993
11657SOL    HW136043   4.285   5.011   7.362 -0.5072  0.3823  1.7001
11657SOL    HW236044   4.408   5.096   7.334 -0.5733 -0.4002 -1.2197
11658SOL     OW36045   6.790   7.186   3.871  0.0751 -0.0075  0.3625
11658SOL    HW136046   6.884   7.188   3.891  0.2465 -1.0426 -0.2148
11658SOL    HW236047   6.759   7.106   3.913 -0.1579 -0.6460 -0.9520
11659SOL     OW36048   3.870   2.073   6.695 -0.1105 -0.5689 -0.6228
11659SOL    HW136049   3.844   2.023   6.772 -0.4957 -0.0343 -0.3976
11659SOL    HW236050   3.955   2.110   6.718 -0.5371  0.1496 -0.1839
11660SOL     OW36051   6.710   7.312   2.380  0.3784 -0.2605  0.5805
11660SOL    HW136052   6.667   7.372   2.318  0.5092 -0.3440  0.4064
11660SOL    HW236053   6.733   7.236   2.326  1.3367  0.0603  0.5288
11661SOL     OW36054   1.034   1.120   5.452 -0.4946 -0.2446 -0.0900
11661SOL    HW136055   1.045   1.047   5.513 -0.7537 -0.3916 -0.2172
11661SOL    HW236056   1.076   1.090   5.372 -1.0786 -0.4795 -0.3175
11662SOL     OW36057   7.001   6.414   0.382  0.2968  0.1143 -0.2446
11662SOL    HW136058   6.967   6.501   0.361  0.9798  0.2253 -0.9484
11662SOL    HW236059   7.058   6.392   0.308  1.8966  0.0125  0.9773
11663SOL     OW36060   7.873   8.088   4.741 -0.6336  0.2490 -0.1903
11663SOL    HW136061   7.892   8.077   4.834  0.8476 -0.9414 -0.5995
11663SOL    HW236062   7.936   8.153   4.711  0.3862 -0.9616 -0.7787
11664SOL     OW36063   0.847   6.518   0.525  0.2251  0.5750  0.7425
11664SOL    HW136064   0.920   6.547   0.471  0.7555  2.6735  2.4552
11664SOL    HW236065   0.770   6.562   0.487 -0.3109 -1.8129 -1.2011
11665SOL     OW36066   7.636   0.637   2.510 -0.2156 -0.2508 -0.6203
11665SOL    HW136067   7.588   0.692   2.449 -0.1658  0.2824 -0.1851
11665SOL    HW236068   7.671   0.698   2.575  2.1653 -0.4561 -1.6346
11666SOL     OW36069   8.021   6.779   5.773  0.2691 -0.2966 -0.1780
11666SOL    HW136070   8.022   6.851   5.710  1.3126 -1.3336 -1.4124
11666SOL    HW236071   8.094   6.797   5.831  1.6991 -1.2416 -1.6007
11667SOL     OW36072   7.617   5.765   7.191 -0.7452  0.2910  0.2210
11667SOL    HW136073   7.620   5.850   7.148  0.6522 -0.7790 -1.9747
11667SOL    HW236074   7.541   5.721   7.155 -0.3428 -0.1060 -0.1606
11668SOL     OW36075   3.379   7.540   2.524 -0.1881  0.2179 -0.0361
11668SOL    HW136076   3.391   7.635   2.530  0.7677  0.1727 -0.9273
11668SOL    HW236077   3.444   7.504   2.585  1.0713  0.0922 -1.4104
11669SOL     OW36078   2.039   6.349   6.191  0.2074  0.8920  0.0138
11669SOL    HW136079   2.058   6.258   6.214  0.2944  0.9154  0.0356
11669SOL    HW236080   1.954   6.367   6.231  0.2639  0.8691  0.1433
11670SOL     OW36081   7.471   4.291   8.133 -0.0453 -0.6380  0.6755
11670SOL    HW136082   7.561   4.270   8.106 -0.0690  0.0093  0.0846
11670SOL    HW236083   7.467   4.264   8.225  0.2787 -2.1480  0.2868
11671SOL     OW36084   7.916   3.592   1.407 -0.2708 -0.6667  0.5953
11671SOL    HW136085   7.951   3.517   1.359 -0.9477 -1.9594  2.0133
11671SOL    HW236086   7.860   3.553   1.474  0.5123  1.0391  2.3362
11672SOL     OW36087   5.131   5.110   5.897  0.5863  0.1150 -0.2800
11672SOL    HW136088   5.141   5.035   5.955  1.0511  0.4346  0.0682
11672SOL    HW236089   5.110   5.183   5.955 -0.1789  0.1948 -0.6489
11673SOL     OW36090   4.625   5.696   1.163  0.6886 -0.3618 -0.0357
11673SOL    HW136091   4.589   5.643   1.233  0.7507 -0.6758 -0.2393
11673SOL    HW236092   4.708   5.729   1.197  0.1796  0.4422  0.4703
11674SOL     OW36093   1.510   2.670   5.047  0.4186 -0.2284 -0.6531
11674SOL    HW136094   1.603   2.691   5.049  0.6023 -1.0914  0.1623
11674SOL    HW236095   1.506   2.578   5.021 -0.2790  0.1678 -2.0376
11675SOL     OW36096   2.757   7.488   5.479  0.5099 -0.5322 -0.6353
11675SOL    HW136097   2.700   7.441   5.419 -1.4593  0.5689  0.2703
11675SOL    HW236098   2.822   7.530   5.423  1.0173 -2.5205 -1.6206
11676SOL     OW36099   0.857   4.581   1.814  0.1884  0.7903 -0.2892
11676SOL    HW136100   0.847   4.591   1.909  1.6053  1.7715 -0.2127
11676SOL    HW236101   0.856   4.486   1.800  1.9625  0.5259  0.9991
11677SOL     OW36102   7.565   2.700   0.471 -0.3716 -0.0826 -0.1387
11677SOL    HW136103   7.627   2.766   0.440  0.7920 -0.7119  0.7710
11677SOL    HW236104   7.567   2.708   0.566 -0.2851 -1.3455 -0.0151
11678SOL     OW36105   5.118   0.461   7.508  0.3850  0.3503 -0.2054
11678SOL    HW136106   5.070   0.506   7.578  1.0403  0.4300  0.2050
11678SOL    HW236107   5.126   0.527   7.439 -1.1458 -0.0389 -0.7962
11679SOL     OW36108   0.128   3.139   2.776  0.1556  0.4776  0.2487
11679SOL    HW136109   0.065   3.208   2.794  0.7055  1.7272 -2.1332
11679SOL    HW236110   0.212   3.173   2.808  0.0042 -0.3046  1.5495
11680SOL     OW36111   5.253   4.880   3.613 -0.6114  0.1301 -0.1199
11680SOL    HW136112   5.328   4.926   3.576  0.6078 -1.9802 -0.4112
11680SOL    HW236113   5.178   4.917   3.566  0.5014  0.4673 -1.7474
11681SOL     OW36114   4.083   7.643   4.261  0.3879 -0.1186  0.0991
11681SOL    HW136115   4.086   7.553   4.227 -0.3555 -0.2615  0.3919
11681SOL    HW236116   4.046   7.695   4.190 -0.3029 -0.2602  0.3421
11682SOL     OW36117   2.367   1.725   4.799 -0.4083 -0.2993 -0.0894
11682SOL    HW136118   2.359   1.802   4.855  0.3575 -0.2903  0.0223
11682SOL    HW236119   2.370   1.760   4.710  0.5106 -0.1403 -0.0107
11683SOL     OW36120   2.470   4.941   3.773  0.1507 -0.1272 -0.2838
11683SOL    HW136121   2.511   4.943   3.687  1.6515 -0.8603  0.3698
11683SOL    HW236122   2.402   4.875   3.765  1.5280 -1.6054 -0.4346
11684SOL     OW36123   7.640   6.461   2.071  0.0437  0.5181  0.4530
11684SOL    HW136124   7.665   6.397   2.138 -1.1119  0.3223  0.7232
11684SOL    HW236125   7.630   6.409   1.991  0.6640  0.6295  0.2962
11685SOL     OW36126   6.095   1.985   5.231  0.1032  0.1293 -0.4540
11685SOL    HW136127   6.029   1.998   5.163 -0.9945 -0.4719  0.4653
11685SOL    HW236128   6.148   1.912   5.198  0.7916  1.0978 -1.5370
11686SOL     OW36129   7.700   2.152   5.195  0.0171 -0.0064  0.3320
11686SOL    HW136130   7.726   2.071   5.151  1.4588  0.7662 -0.3138
11686SOL    HW236131   7.658   2.123   5.276  0.7538 -1.3901  0.2508
11687SOL     OW36132   3.879   1.709   1.693  0.0393 -0.4740 -0.0971
11687SOL    HW136133   3.882   1.615   1.673 -2.0054 -0.3031 -1.4762
11687SOL    HW236134   3.969   1.731   1.715  0.5057 -2.8451  0.7603
11688SOL     OW36135   2.149   4.137   4.015  0.3328 -0.3898  0.7519
11688SOL    HW136136   2.199   4.089   3.948  0.5167 -0.3864  0.8858
11688SOL    HW236137   2.063   4.152   3.975  0.4907 -0.2599  0.4600
11689SOL     OW36138   7.746   0.318   1.000 -0.0097 -0.4863 -0.1569
11689SOL    HW136139   7.751   0.236   1.048 -0.1040 -1.0309 -1.0531
11689SOL    HW236140   7.657   0.320   0.965  0.2527 -0.4254 -0.8493
11690SOL     OW36141   1.456   0.806   2.664 -0.0079 -0.3015 -0.6745
11690SOL    HW136142   1.549   0.815   2.643  0.5228 -1.8640  0.7504
11690SOL    HW236143   1.437   0.879   2.722  0.3760 -0.0875 -0.8181
11691SOL     OW36144   2.830   4.693   4.747  0.0380 -0.2565 -0.3483
11691SOL    HW136145   2.844   4.708   4.654  0.1584  0.0828 -0.2750
11691SOL    HW236146   2.919   4.687   4.784  0.0094  1.0619 -0.0226
11692SOL     OW36147   7.281   6.329   5.763 -0.0971  0.3672 -0.2604
11692SOL    HW136148   7.372   6.330   5.794 -0.2994  2.1343  0.3870
11692SOL    HW236149   7.231   6.297   5.838 -0.0328 -0.6101 -0.6187
11693SOL     OW36150   1.702   4.108   7.463 -0.4184  0.0421  0.5957
11693SOL    HW136151   1.655   4.171   7.517 -2.0684  1.5541 -2.3403
11693SOL    HW236152   1.636   4.044   7.437  0.4493 -0.9352  0.7260
11694SOL     OW36153   2.286   4.755   3.686 -0.0384 -0.1207  0.6146
11694SOL    HW136154   2.307   4.662   3.684 -0.1534 -0.1335 -1.3537
11694SOL    HW236155   2.212   4.764   3.626  0.2963  1.3318  0.3935
11695SOL     OW36156   4.526   1.697   2.490  0.5135 -0.7124 -0.3380
11695SOL    HW136157   4.529   1.754   2.566  1.5921  0.4309 -1.1970
11695SOL    HW236158   4.577   1.620   2.516 -0.4355 -1.0466  0.6112
11696SOL     OW36159   7.741   2.921   5.625 -0.1865  0.4310 -0.5186
11696SOL    HW136160   7.732   2.856   5.555  1.1053 -0.6629  0.2957
11696SOL    HW236161   7.829   2.907   5.660 -0.2532  1.9692  0.3317
11697SOL     OW36162   7.949   6.136   3.838 -0.2272  0.0522  0.6040
11697SOL    HW136163   7.883   6.071   3.815  0.4660 -0.6435  0.5512
11697SOL    HW236164   7.901   6.201   3.890 -1.5146  0.8981 -1.5020
11698SOL     OW36165   5.146   1.349   3.021 -0.0734 -0.0897  0.1365
11698SOL    HW136166   5.147   1.370   3.114  1.4973 -1.5129  0.4878
11698SOL    HW236167   5.114   1.259   3.018  2.7985 -1.1929 -0.3626
11699SOL     OW36168   4.476   4.624   2.783  0.3288  0.4009 -0.3320
11699SOL    HW136169   4.406   4.561   2.799 -0.3228  1.0286 -0.6330
11699SOL    HW236170   4.509   4.602   2.696  0.6729 -0.0532 -0.0858
11700SOL     OW36171   1.127   6.729   4.874  0.3279 -0.2782  0.1158
11700SOL    HW136172   1.156   6.692   4.791  0.3932 -1.1569  0.5280
11700SOL    HW236173   1.064   6.666   4.908  0.4161  0.0003  0.8127
11701SOL     OW36174   8.116   4.785   5.831  0.3295  0.2873 -0.2245
11701SOL    HW136175   8.179   4.844   5.791  0.3814  1.0620  0.9376
11701SOL    HW236176   8.038   4.838   5.845  0.9820  0.6949  2.5129
11702SOL     OW36177   8.003   4.141   1.641 -0.1497  0.1397 -0.2912
11702SOL    HW136178   7.948   4.083   1.588  0.8552  1.0210 -2.3700
11702SOL    HW236179   8.071   4.171   1.582  1.1124  1.0968  1.5500
11703SOL     OW36180   6.564   7.196   3.259 -0.2651 -0.2236 -0.1861
11703SOL    HW136181   6.608   7.118   3.291 -0.7543 -0.6283 -0.4803
11703SOL    HW236182   6.635   7.252   3.226  0.2452  0.2018  1.5591
11704SOL     OW36183   4.377   4.019   6.151  0.4584  0.6107 -0.1100
11704SOL    HW136184   4.437   3.999   6.080  0.2814 -0.1078 -0.0636
11704SOL    HW236185   4.434   4.036   6.226  0.6185  0.3298 -0.1652
11705SOL     OW36186   3.563   3.395   4.345  0.2344  0.2473 -0.3361
11705SOL    HW136187   3.627   3.453   4.387 -0.0858  0.8938 -0.7254
11705SOL    HW236188   3.498   3.377   4.413 -1.0118  2.3767 -0.8846
11706SOL     OW36189   2.694   5.184   6.406  0.0607 -0.3081  0.0727
11706SOL    HW136190   2.695   5.279   6.412  1.1058 -0.3565  0.9652
11706SOL    HW236191   2.682   5.166   6.313 -0.9862  0.6736 -0.0016
11707SOL     OW36192   8.022   5.495   1.695  0.4376 -0.3432  0.0989
11707SOL    HW136193   8.081   5.434   1.650  0.5546  0.1106 -0.3674
11707SOL    HW236194   8.039   5.481   1.788 -0.9622 -2.4850  0.1213
11708SOL     OW36195   1.017   1.497   7.176  0.0923 -0.1221  0.2448
11708SOL    HW136196   0.981   1.539   7.255 -1.2607  1.4853 -1.1403
11708SOL    HW236197   1.078   1.561   7.141  0.9124 -0.9557  0.1141
11709SOL     OW36198   6.206   5.259   4.364  0.5314  0.4758 -0.8930
11709SOL    HW136199   6.114   5.285   4.358  0.3357  0.1149  0.3216
11709SOL    HW236200   6.222   5.247   4.457  1.8121  0.4932 -1.0853
11710SOL     OW36201   2.033   3.751   4.838  0.2092 -0.0150  0.1401
11710SOL    HW136202   2.048   3.842   4.863 -2.4042  0.0795  1.7737
11710SOL    HW236203   2.073   3.743   4.752  1.4237  2.3678  0.3998
11711SOL     OW36204   3.698   5.016   4.484 -0.0739  0.0247 -0.2619
11711SOL    HW136205   3.637   4.942   4.472 -1.8008  1.1481  1.0859
11711SOL    HW236206   3.764   4.983   4.545 -1.0143 -0.3363  0.5916
11712SOL     OW36207   2.021   3.236   2.683 -0.2488 -0.5444 -0.3407
11712SOL    HW136208   1.953   3.237   2.614 -0.7124  1.2505  0.0909
11712SOL    HW236209   1.973   3.213   2.763  0.0700 -1.4209 -0.3915
11713SOL     OW36210   5.944   2.469   7.804  0.0122  0.1772  0.0269
11713SOL    HW136211   6.013   2.511   7.753 -0.0802  0.3986  0.0829
11713SOL    HW236212   5.865   2.479   7.751  0.3587 -1.6788 -0.8840
11714SOL     OW36213   7.190   1.033   0.368 -0.4668 -0.4780  0.6370
11714SOL    HW136214   7.206   1.002   0.458 -1.0728 -0.2624  0.8244
11714SOL    HW236215   7.134   0.966   0.329  0.4522 -0.9806  0.1458
11715SOL     OW36216   7.135   3.435   7.919 -0.1995  0.1162  0.0595
11715SOL    HW136217   7.175   3.501   7.976  1.2711 -0.3413 -0.3976
11715SOL    HW236218   7.185   3.441   7.838 -1.2202 -0.3470 -0.6159
11716SOL     OW36219   7.089   2.249   6.539  0.2934  0.4208  0.1842
11716SOL    HW136220   7.009   2.199   6.527  0.5627 -0.1719  0.7888
11716SOL    HW236221   7.101   2.253   6.634 -0.4436  2.8073  0.2372
11717SOL     OW36222   7.482   7.447   0.799  0.0766  0.6546 -0.4049
11717SOL    HW136223   7.488   7.461   0.704 -2.2972 -0.7373 -0.8339
11717SOL    HW236224   7.474   7.352   0.809 -0.8996  0.8677  1.0867
11718SOL     OW36225   2.286   4.852   7.330  0.2188 -0.4872 -0.2714
11718SOL    HW136226   2.325   4.774   7.292 -0.2228 -0.2223 -1.3099
11718SOL    HW236227   2.316   4.853   7.421  4.4189  0.8141 -1.4446
11719SOL     OW36228   6.932   5.832   4.309 -0.5509 -0.2378  0.0146
11719SOL    HW136229   6.888   5.917   4.299  1.3415  0.9774  1.3949
11719SOL    HW236230   6.897   5.797   4.392  0.3532  0.3140  0.6492
11720SOL     OW36231   8.039   7.783   6.810 -0.1738  0.0884 -0.1552
11720SOL    HW136232   8.121   7.747   6.777  0.1113 -0.5008  1.1032
11720SOL    HW236233   8.049   7.878   6.803  0.8716  0.0435  0.5192
11721SOL     OW36234   7.952   7.600   0.072 -0.0734  0.2476 -0.6792
11721SOL    HW136235   7.927   7.649   0.150 -1.2304 -0.9683 -0.2389
11721SOL    HW236236   7.875   7.605   0.014 -0.5653 -1.6447 -0.2778
11722SOL     OW36237   2.332   1.454   4.262 -0.1455 -0.0389 -0.1056
11722SOL    HW136238   2.416   1.463   4.218 -1.3656 -2.3952 -3.3239
11722SOL    HW236239   2.268   1.493   4.202 -1.6862 -1.3701  0.5749
11723SOL     OW36240   3.718   8.059   0.182  0.0111  0.4057  0.2432
11723SOL    HW136241   3.658   8.106   0.124 -0.0475 -0.4124 -0.3757
11723SOL    HW236242   3.764   7.998   0.125  0.7063  0.3120  0.8871
11724SOL     OW36243   5.061   0.455   2.175  0.6073  0.3759  0.0435
11724SOL    HW136244   5.128   0.520   2.156 -0.1367  0.9220 -0.8071
11724SOL    HW236245   4.992   0.504   2.221  0.5187 -0.0508  0.3772
11725SOL     OW36246   0.475   5.982   0.249  0.5224 -0.5269  0.3107
11725SOL    HW136247   0.486   5.936   0.332  2.4603 -0.5264  0.1008
11725SOL    HW236248   0.523   6.064   0.261 -2.9226  1.6333  0.7132
11726SOL     OW36249   3.517   3.062   6.123 -0.1428  0.4765  0.3023
11726SOL    HW136250   3.425   3.053   6.097 -0.0177 -0.8058  0.2087
11726SOL    HW236251   3.537   2.979   6.167  0.8523  0.9110  0.6967
11727SOL     OW36252   3.198   0.431   6.265  0.1034 -0.0572 -0.1722
11727SOL    HW136253   3.288   0.404   6.247 -0.2139 -0.8563 -0.6033
11727SOL    HW236254   3.185   0.509   6.211  0.6286  0.2481  0.1288
11728SOL     OW36255   4.836   2.695   1.145 -0.0798  0.1780  0.0675
11728SOL    HW136256   4.929   2.677   1.127  0.1991 -0.7597  2.1798
11728SOL    HW236257   4.808   2.623   1.201 -2.2083  0.2974 -0.7401
11729SOL     OW36258   3.802   7.716   2.754  0.1984  0.1612 -0.4551
11729SOL    HW136259   3.761   7.759   2.679 -1.5345  1.3315  1.0596
11729SOL    HW236260   3.735   7.717   2.822  2.0414  0.2005  1.4973
11730SOL     OW36261   5.580   7.789   0.311  0.1114 -0.7867  0.9981
11730SOL    HW136262   5.616   7.858   0.367 -0.3901  0.5444 -0.2600
11730SOL    HW236263   5.486   7.807   0.309  0.1714 -0.5268 -0.6037
11731SOL     OW36264   7.055   2.761   2.048  0.1288 -0.0931  0.2059
11731SOL    HW136265   6.994   2.794   2.115 -1.3469  0.6958 -1.4275
11731SOL    HW236266   7.140   2.798   2.072 -0.0758 -0.8655  2.3153
11732SOL     OW36267   2.182   3.757   7.828  0.0873 -0.1834 -0.3932
11732SOL    HW136268   2.222   3.827   7.879  0.6707 -0.9793  0.2483
11732SOL    HW236269   2.255   3.706   7.794 -0.3256 -0.3215 -1.1014
11733SOL     OW36270   3.422   1.481   4.217  0.1870 -0.3945  0.0817
11733SOL    HW136271   3.458   1.409   4.268 -0.2630 -0.0483  0.8932
11733SOL    HW236272   3.361   1.439   4.156  0.8759 -0.8288 -0.3252
11734SOL     OW36273   0.547   6.135   2.930  0.2629  0.6812  0.5249
11734SOL    HW136274   0.546   6.042   2.908 -1.3827  0.6257  0.7279
11734SOL    HW236275   0.640   6.159   2.928  0.5663 -0.3620 -1.9834
11735SOL     OW36276   7.663   6.567   1.668 -0.1590 -0.2346 -0.0965
11735SOL    HW136277   7.664   6.641   1.728  0.4266 -0.5885  0.3406
11735SOL    HW236278   7.621   6.496   1.717  0.2208 -0.4927 -0.1354
11736SOL     OW36279   3.428   1.788   4.798  0.1645 -0.4630  0.0415
11736SOL    HW136280   3.392   1.863   4.846  0.5274 -0.4637  0.3280
11736SOL    HW236281   3.519   1.784   4.827 -0.1710 -1.7868  0.9940
11737SOL     OW36282   4.643   6.870   1.963  0.0209 -0.1761  0.1527
11737SOL    HW136283   4.654   6.775   1.969 -1.4589 -0.3151  1.2836
11737SOL    HW236284   4.718   6.906   2.009  0.6731 -0.7773 -0.4166
11738SOL     OW36285   5.101   1.375   7.994  0.0830 -0.0845  0.2312
11738SOL    HW136286   5.096   1.462   8.035 -1.4826  0.3118 -0.7188
11738SOL    HW236287   5.126   1.316   8.066 -0.7097  0.8651  1.3215
11739SOL     OW36288   0.787   7.517   3.239 -0.3080  0.5722  0.1602
11739SOL    HW136289   0.703   7.509   3.193 -0.0946 -0.7453 -0.0173
11739SOL    HW236290   0.853   7.500   3.172  0.0138 -1.0836  0.8629
11740SOL     OW36291   3.181   5.772   6.302  0.2818 -0.1298  0.1403
11740SOL    HW136292   3.276   5.768   6.302  0.3539  1.1572 -0.2247
11740SOL    HW236293   3.155   5.739   6.216  0.4858  0.7912 -0.2890
11741SOL     OW36294   1.137   4.672   6.117  0.3139 -0.0047 -0.2315
11741SOL    HW136295   1.148   4.698   6.026 -0.1079 -2.0393 -0.9123
11741SOL    HW236296   1.045   4.650   6.125  0.0870  1.2352  1.0301
11742SOL     OW36297   4.055   8.042   1.391 -0.3522  0.1767 -0.4835
11742SOL    HW136298   4.110   8.068   1.316 -0.8432 -1.1787 -1.3540
11742SOL    HW236299   4.006   8.122   1.413  0.9832  1.0487 -0.5373
11743SOL     OW36300   0.373   0.237   0.767  0.2813  0.2696  0.1561
11743SOL    HW136301   0.392   0.229   0.673 -0.2864  1.4255 -0.0870
11743SOL    HW236302   0.379   0.148   0.801 -0.3359 -0.2981 -1.1494
11744SOL     OW36303   3.985   5.466   2.512 -0.4350 -0.0226 -0.0277
11744SOL    HW136304   3.918   5.473   2.445 -0.2826 -1.1952 -0.3194
11744SOL    HW236305   3.944   5.501   2.591 -2.5368 -3.4025  0.5930
11745SOL     OW36306   6.147   0.955   5.979  0.5563  0.0189  0.3089
11745SOL    HW136307   6.052   0.970   5.982  0.7580  1.2508  2.9879
11745SOL    HW236308   6.179   0.983   6.065  3.4496  0.1521 -0.7007
11746SOL     OW36309   2.937   4.201   1.937  0.0738  0.0591 -0.0173
11746SOL    HW136310   2.930   4.286   1.982  0.8365 -0.5044  1.1886
11746SOL    HW236311   3.029   4.177   1.945 -0.2894 -1.2565  0.3472
11747SOL     OW36312   4.926   2.739   0.708  0.3985  1.2963 -0.8149
11747SOL    HW136313   4.995   2.798   0.738  0.7181  1.4902 -1.8686
11747SOL    HW236314   4.973   2.661   0.678  0.1816  1.4450 -1.5776
11748SOL     OW36315   3.302   6.616   6.072 -0.1376  0.3278 -0.2627
11748SOL    HW136316   3.337   6.536   6.112  0.7146  1.2399  0.9259
11748SOL    HW236317   3.215   6.592   6.042  0.6717 -1.4478 -1.3317
11749SOL     OW36318   5.186   3.444   7.463  0.2003 -0.2240  0.1568
11749SOL    HW136319   5.250   3.503   7.424 -0.0164 -1.6571 -2.5670
11749SOL    HW236320   5.107   3.456   7.411 -0.8280 -0.6593  1.5540
11750SOL     OW36321   6.374   5.247   8.163 -0.3188  0.4897  0.0541
11750SOL    HW136322   6.425   5.166   8.172  0.9032  1.3438  1.2291
11750SOL    HW236323   6.371   5.283   8.252 -0.8707  1.7262 -0.4460
11751SOL     OW36324   4.091   3.471   2.101 -0.1275  0.3926  0.2219
11751SOL    HW136325   4.178   3.476   2.141 -0.1113  1.9230  0.0381
11751SOL    HW236326   4.074   3.559   2.068 -1.4520 -0.0638 -0.3956
11752SOL     OW36327   3.797   2.744   3.722  0.2938 -0.4022  0.4958
11752SOL    HW136328   3.792   2.774   3.813  1.7299 -2.2153  1.2355
11752SOL    HW236329   3.873   2.686   3.720  0.1257 -0.6409 -1.8142
11753SOL     OW36330   6.589   3.151   6.555  0.5968  0.4514  0.0065
11753SOL    HW136331   6.552   3.063   6.552  0.3490  0.5764 -1.2054
11753SOL    HW236332   6.678   3.139   6.587  0.6619 -0.2778 -0.4289
11754SOL     OW36333   1.297   6.607   5.396  0.3268  0.1077  0.3102
11754SOL    HW136334   1.384   6.573   5.417 -0.2770 -1.7315  0.0171
11754SOL    HW236335   1.242   6.580   5.469  0.5273  4.0888  2.2031
11755SOL     OW36336   6.395   3.434   3.283 -0.1277 -0.2482  0.6105
11755SOL    HW136337   6.423   3.518   3.247  1.8132 -0.4966  1.4245
11755SOL    HW236338   6.316   3.455   3.333  1.7200  1.6826  3.0100
11756SOL     OW36339   0.890   3.892   2.487  0.1483 -0.0352  0.3145
11756SOL    HW136340   0.851   3.899   2.574 -1.4304 -2.5765 -0.0679
11756SOL    HW236341   0.918   3.981   2.465  0.0356  0.7865  3.1244
11757SOL     OW36342   3.782   8.005   2.776  0.4872 -0.0001  0.0539
11757SOL    HW136343   3.707   7.998   2.835  0.0725 -2.2601 -0.6308
11757SOL    HW236344   3.769   8.087   2.729 -1.3988 -0.1771  0.1968
11758SOL     OW36345   5.319   5.576   5.926 -0.1602  0.2439  0.4361
11758SOL    HW136346   5.371   5.498   5.947  1.3319  1.0646 -0.1056
11758SOL    HW236347   5.229   5.552   5.951  0.1849 -1.8010 -0.0943
11759SOL     OW36348   2.469   0.372   6.013  0.4345  0.3050 -0.9253
11759SOL    HW136349   2.405   0.442   5.996  1.3026  1.0362 -1.2392
11759SOL    HW236350   2.457   0.352   6.105  0.7128  1.4351 -0.6238
11760SOL     OW36351   4.160   7.064   4.556  0.0122  0.8474  0.2357
11760SOL    HW136352   4.081   7.022   4.523  0.0590  0.4577  0.6082
11760SOL    HW236353   4.155   7.154   4.524 -0.1749  0.6040 -0.4230
11761SOL     OW36354   0.281   4.133   1.445 -0.7738  0.3708 -0.0534
11761SOL    HW136355   0.308   4.199   1.381 -0.6739 -1.0669 -1.5670
11761SOL    HW236356   0.185   4.140   1.447 -0.7421  0.8350  0.1324
11762SOL     OW36357   2.704   1.194   6.021  0.3872  0.0414  0.3584
11762SOL    HW136358   2.749   1.174   5.939 -1.0701 -1.0886 -0.2206
11762SOL    HW236359   2.760   1.157   6.089 -0.3585 -2.8698 -0.4420
11763SOL     OW36360   6.759   5.390   6.076  0.1459  0.3707 -0.0354
11763SOL    HW136361   6.736   5.355   6.162 -1.4238  0.4363 -0.4011
11763SOL    HW236362   6.845   5.430   6.089  0.3860 -0.4868  1.2477
11764SOL     OW36363   1.746   5.705   8.018  0.4219 -0.2633 -0.2392
11764SOL    HW136364   1.783   5.616   8.015 -0.4152 -0.6414  0.1688
11764SOL    HW236365   1.750   5.729   8.110 -0.2749 -0.2848 -0.2012
11765SOL     OW36366   7.697   3.945   0.782 -0.1209 -0.0204  0.3646
11765SOL    HW136367   7.613   3.912   0.813  0.0001  0.3854  1.1332
11765SOL    HW236368   7.761   3.882   0.815  0.0224  0.4933  1.0874
11766SOL     OW36369   2.019   1.870   2.424  0.2632 -0.7227  0.1062
11766SOL    HW136370   2.090   1.814   2.455 -1.0502 -2.3977  0.2059
11766SOL    HW236371   2.010   1.849   2.332  0.1965 -0.1542 -0.0211
11767SOL     OW36372   2.367   6.424   7.610 -0.0905 -0.6588  0.1069
11767SOL    HW136373   2.444   6.385   7.568  1.0491  0.7408  0.8334
11767SOL    HW236374   2.378   6.404   7.703  1.5559  2.8945  0.8116
11768SOL     OW36375   5.927   4.300   5.231  0.3383 -0.0335  0.1101
11768SOL    HW136376   5.841   4.319   5.268  0.7975 -0.6593  1.5918
11768SOL    HW236377   5.913   4.224   5.174 -0.4043  1.0024 -1.1339
11769SOL     OW36378   7.908   2.185   6.109 -0.1022 -0.0235 -0.0343
11769SOL    HW136379   7.911   2.089   6.120 -0.2997  0.0997  1.2947
11769SOL    HW236380   7.816   2.204   6.090 -0.3461  0.0048  1.0772
11770SOL     OW36381   0.460   0.788   6.110  0.5021 -0.3758  0.4868
11770SOL    HW136382   0.451   0.717   6.173  0.3624 -1.2207 -0.4682
11770SOL    HW236383   0.468   0.867   6.164  0.2685 -1.0629  1.5513
11771SOL     OW36384   6.412   1.839   7.309 -0.0901  0.3403  0.0770
11771SOL    HW136385   6.426   1.778   7.236 -1.5510 -0.7020  0.6146
11771SOL    HW236386   6.394   1.923   7.267  2.6094  0.6336 -0.6703
11772SOL     OW36387   2.783   1.848   0.909  0.1505 -0.2151 -0.0527
11772SOL    HW136388   2.745   1.912   0.850  1.8074 -1.2370 -2.4071
11772SOL    HW236389   2.876   1.846   0.885  0.4878 -2.1550  1.1930
11773SOL     OW36390   4.953   1.882   4.453 -0.4332  0.3747 -0.4143
11773SOL    HW136391   4.982   1.866   4.543 -0.3411  0.0126 -0.5052
11773SOL    HW236392   4.959   1.977   4.442  1.6409  0.2630 -0.7258
11774SOL     OW36393   6.754   5.603   6.335  0.5200  0.7651 -0.3442
11774SOL    HW136394   6.792   5.671   6.390  0.8065  1.4557 -1.3691
11774SOL    HW236395   6.828   5.548   6.310  0.1022 -0.8388  1.6445
11775SOL     OW36396   7.579   3.686   1.580 -0.1620 -0.1234  0.0171
11775SOL    HW136397   7.609   3.772   1.609  0.6984 -0.9705  1.7540
11775SOL    HW236398   7.541   3.646   1.658  1.4426 -2.1581 -0.1691
11776SOL     OW36399   3.849   2.500   7.707  0.4923  0.4977  0.1338
11776SOL    HW136400   3.854   2.453   7.623  0.6822  1.4034 -0.3779
11776SOL    HW236401   3.939   2.500   7.739  0.3088 -0.4495  0.6950
11777SOL     OW36402   2.735   6.886   0.894 -0.4521  0.4383 -0.0143
11777SOL    HW136403   2.647   6.856   0.917  0.0112  0.4130  1.8576
11777SOL    HW236404   2.735   6.980   0.915 -0.3381  0.6921 -1.0573
11778SOL     OW36405   7.194   4.671   6.124 -0.7458  0.6747 -0.1967
11778SOL    HW136406   7.247   4.739   6.166 -0.3794 -0.3536  1.0890
11778SOL    HW236407   7.158   4.713   6.046 -0.7117  2.4034  0.6685
11779SOL     OW36408   3.552   0.923   3.462  0.6711  0.3841 -0.0557
11779SOL    HW136409   3.605   0.889   3.390  2.0111 -0.5855  1.3352
11779SOL    HW236410   3.597   0.895   3.541 -1.9923 -0.6179  1.2352
11780SOL     OW36411   7.099   8.088   3.865  0.6139  0.0149 -0.3602
11780SOL    HW136412   7.024   8.029   3.877 -0.0106  0.6316 -1.1055
11780SOL    HW236413   7.081   8.162   3.923  2.0478 -1.0778  1.5753
11781SOL     OW36414   1.592   4.388   3.707 -0.1207 -0.4909 -0.0181
11781SOL    HW136415   1.527   4.320   3.723  1.5666 -1.9477  0.9254
11781SOL    HW236416   1.668   4.342   3.671  0.1052  1.2870 -2.0460
11782SOL     OW36417   7.025   1.186   1.989 -0.0909  0.2283 -0.5653
11782SOL    HW136418   7.085   1.184   2.064  1.2814  1.5407 -1.5586
11782SOL    HW236419   6.942   1.154   2.023  1.0254 -1.1917  1.0071
11783SOL     OW36420   5.905   3.886   4.389 -0.5875 -0.2715  0.0775
11783SOL    HW136421   5.945   3.891   4.476  0.1341  0.2222 -0.2734
11783SOL    HW236422   5.866   3.973   4.376  0.3471  0.0685 -0.5694
11784SOL     OW36423   0.371   2.824   0.405 -0.0550 -0.2513 -0.3479
11784SOL    HW136424   0.445   2.884   0.419 -0.2892  0.0493 -0.3760
11784SOL    HW236425   0.358   2.824   0.310 -0.0994 -0.2904 -0.3421
11785SOL     OW36426   4.051   1.667   1.304 -0.4106  0.0793 -0.6933
11785SOL    HW136427   4.003   1.699   1.228 -1.1946  0.7009  0.0431
11785SOL    HW236428   4.128   1.625   1.268 -0.3912  1.0225 -1.7965
11786SOL     OW36429   2.007   7.502   7.822  0.2586  0.0570 -0.0031
11786SOL    HW136430   2.024   7.489   7.915  0.6892 -0.0306 -0.0931
11786SOL    HW236431   2.090   7.482   7.779  0.1647  0.4568 -0.3746
11787SOL     OW36432   2.214   4.624   1.450  0.2853 -0.0141 -0.1506
11787SOL    HW136433   2.295   4.656   1.410  0.0444 -1.1722 -1.6536
11787SOL    HW236434   2.231   4.626   1.544  1.8017  0.4060 -0.4079
11788SOL     OW36435   3.225   2.317   2.504 -0.1686 -0.4702 -0.8352
11788SOL    HW136436   3.295   2.254   2.486  0.1421 -0.4670  0.2840
11788SOL    HW236437   3.248   2.393   2.450  1.5751  0.1301  0.6607
11789SOL     OW36438   4.562   5.833   5.790 -0.4363  0.2001  0.2543
11789SOL    HW136439   4.498   5.820   5.720 -1.4953 -1.3904  1.4436
11789SOL    HW236440   4.573   5.746   5.828  3.4110  0.1241 -0.6507
11790SOL     OW36441   7.275   4.470   6.524 -0.2775  0.5337 -0.1004
11790SOL    HW136442   7.306   4.550   6.567  1.9754  0.0922 -0.7891
11790SOL    HW236443   7.292   4.401   6.588  2.9706 -0.1076 -1.4360
11791SOL     OW36444   5.630   2.122   6.877 -0.2359 -0.3060 -0.5323
11791SOL    HW136445   5.620   2.212   6.846 -1.4747  0.2582  1.3341
11791SOL    HW236446   5.552   2.077   6.845 -1.2530  0.1473  1.1725
11792SOL     OW36447   7.638   2.572   2.659 -0.5094 -0.1303  0.2905
11792SOL    HW136448   7.619   2.655   2.616  1.0952 -0.0769 -0.4017
11792SOL    HW236449   7.725   2.584   2.697 -0.2096 -1.5076  0.1026
11793SOL     OW36450   0.451   7.923   1.470  0.0504 -0.1024 -0.4372
11793SOL    HW136451   0.490   7.997   1.424 -0.6171 -0.2062 -1.1994
11793SOL    HW236452   0.369   7.907   1.424 -0.4269 -0.5086  0.5128
11794SOL     OW36453   7.411   1.380   0.512 -0.2244  0.5104 -0.5569
11794SOL    HW136454   7.503   1.387   0.538 -0.1309 -1.8234 -0.0757
11794SOL    HW236455   7.386   1.469   0.488  2.6039  0.9534 -2.2317
11795SOL     OW36456   4.804   1.967   1.509 -0.1375 -0.3293 -0.3399
11795SOL    HW136457   4.887   2.005   1.538 -0.7309  1.4280 -0.8244
11795SOL    HW236458   4.825   1.924   1.426  0.4650 -0.7032  0.0004
11796SOL     OW36459   6.776   5.017   2.568 -0.2775 -0.7517 -0.2777
11796SOL    HW136460   6.792   4.928   2.536 -0.4095 -1.0636  0.4999
11796SOL    HW236461   6.775   5.008   2.664  1.1109  0.3313 -0.1368
11797SOL     OW36462   5.932   7.237   8.135 -0.1619  0.9307  0.4129
11797SOL    HW136463   5.946   7.148   8.104 -1.0690  0.6304  0.8277
11797SOL    HW236464   5.872   7.275   8.071 -1.6149  0.4804  1.4640
11798SOL     OW36465   7.946   6.369   5.170 -0.2431  0.5797  0.5679
11798SOL    HW136466   7.921   6.311   5.242  1.1372  0.3421  0.8936
11798SOL    HW236467   7.948   6.457   5.209  1.3733  0.3464  1.1011
11799SOL     OW36468   1.274   6.364   1.353  0.3329  0.3151 -0.1992
11799SOL    HW136469   1.264   6.443   1.300  0.6504 -0.8885 -2.1711
11799SOL    HW236470   1.285   6.396   1.443 -2.5575  2.3794 -0.4479
11800SOL     OW36471   6.122   6.736   4.109 -0.7865  0.3360  0.1673
11800SOL    HW136472   6.089   6.813   4.062 -1.5390 -0.4265 -0.5921
11800SOL    HW236473   6.204   6.766   4.149 -0.5146  1.2317 -0.9949
11801SOL     OW36474   5.947   4.054   1.580 -0.1739  0.1972 -0.0026
11801SOL    HW136475   5.900   4.111   1.520 -0.7225  0.9683  1.1110
11801SOL    HW236476   6.037   4.055   1.549 -0.3864  0.8369 -0.6240
11802SOL     OW36477   6.691   1.400   5.591 -0.2674  0.1404 -0.7347
11802SOL    HW136478   6.649   1.314   5.597 -0.0292  0.1067  2.5934
11802SOL    HW236479   6.631   1.460   5.635 -0.1228  1.5800 -2.4123
11803SOL     OW36480   4.689   1.553   7.988 -0.0112 -0.3092 -0.4210
11803SOL    HW136481   4.716   1.466   8.017  1.2861  0.3684  0.4964
11803SOL    HW236482   4.616   1.576   8.046 -0.2540 -0.6948 -0.5635
11804SOL     OW36483   6.538   2.034   4.255  0.0393 -0.1881 -0.6130
11804SOL    HW136484   6.501   2.122   4.258  2.1886  0.7961 -0.8488
11804SOL    HW236485   6.490   1.990   4.184 -1.4047  0.5920 -0.1612
11805SOL     OW36486   0.875   0.450   2.356  0.1687  0.5030 -0.2094
11805SOL    HW136487   0.821   0.497   2.420  0.7695 -0.1175  0.7626
11805SOL    HW236488   0.961   0.491   2.362  0.4825 -0.1870  0.0750
11806SOL     OW36489   5.864   2.962   3.520  0.1197 -0.3883  0.5551
11806SOL    HW136490   5.928   2.918   3.576 -0.4045 -0.3444  1.2010
11806SOL    HW236491   5.825   3.029   3.577 -1.1475 -1.0175  0.4551
11807SOL     OW36492   4.325   4.339   0.957 -0.6269  0.1699 -0.2105
11807SOL    HW136493   4.294   4.381   0.877  3.1585  0.8873 -1.5264
11807SOL    HW236494   4.295   4.248   0.950 -1.7289  0.6079 -1.6331
11808SOL     OW36495   3.373   6.570   2.426 -0.1443 -0.2023 -0.2099
11808SOL    HW136496   3.343   6.653   2.462  1.6938 -0.7418  2.9009
11808SOL    HW236497   3.292   6.521   2.410 -1.2624  2.0590 -2.0574
11809SOL     OW36498   1.969   3.334   4.823 -0.3227 -0.7221  0.3316
11809SOL    HW136499   1.924   3.361   4.903 -1.8279 -3.4357  0.4820
11809SOL    HW236500   1.901   3.330   4.757  0.9974  2.1704 -1.4480
11810SOL     OW36501   2.167   0.661   1.678 -0.2038 -0.2032 -0.8183
11810SOL    HW136502   2.252   0.679   1.718 -1.0786  1.4925  0.4128
11810SOL    HW236503   2.187   0.650   1.584  1.5353 -1.4437 -0.3614
11811SOL     OW36504   3.778   5.867   4.883  0.2381  0.1749 -0.0110
11811SOL    HW136505   3.793   5.848   4.790 -0.5968 -0.5062 -0.0248
11811SOL    HW236506   3.777   5.781   4.925 -1.3241  0.3134  0.3092
11812SOL     OW36507   6.902   7.970   4.010 -0.3179  0.3570  0.4558
11812SOL    HW136508   6.957   7.996   4.084 -1.9107 -1.4162  2.3766
11812SOL    HW236509   6.882   7.878   4.026  0.0686 -0.4320 -2.7694
11813SOL     OW36510   7.082   4.911   3.019  0.3290 -0.2517 -0.2908
11813SOL    HW136511   7.119   4.973   2.956  0.8324 -0.1563  0.0924
11813SOL    HW236512   7.154   4.850   3.036  0.9001  0.9081  1.7526
11814SOL     OW36513   6.791   4.861   1.961 -0.0233 -0.2970 -0.0689
11814SOL    HW136514   6.698   4.887   1.961 -0.4947 -1.7432  2.0305
11814SOL    HW236515   6.830   4.913   2.031  0.0824 -1.7388  0.9709
11815SOL     OW36516   4.839   8.117   5.836 -0.1177 -0.0913  0.3157
11815SOL    HW136517   4.801   8.150   5.917  0.3715  1.2315  0.0299
11815SOL    HW236518   4.781   8.149   5.767 -0.4825 -1.1340  0.1171
11816SOL     OW36519   4.138   3.130   2.602  0.6702 -0.0900  0.7284
11816SOL    HW136520   4.093   3.127   2.686  0.0350 -1.5708  0.3692
11816SOL    HW236521   4.231   3.133   2.625  0.4931  3.1773  1.4808
11817SOL     OW36522   7.520   7.766   7.932  0.1274  0.2832  0.1837
11817SOL    HW136523   7.485   7.851   7.906  0.9202  1.7647  3.4847
11817SOL    HW236524   7.449   7.725   7.982 -0.3332 -1.1968 -1.5646
11818SOL     OW36525   3.487   1.216   4.321 -0.6110  0.2371  0.2435
11818SOL    HW136526   3.566   1.184   4.364 -2.1256 -2.5478  1.2009
11818SOL    HW236527   3.501   1.198   4.228  0.4118  1.1304  0.1974
11819SOL     OW36528   0.793   5.081   1.987 -0.7274 -0.3488 -0.5360
11819SOL    HW136529   0.718   5.049   1.937  0.4200 -1.6282 -1.5290
11819SOL    HW236530   0.776   5.052   2.077 -0.6270 -2.1825 -1.0688
11820SOL     OW36531   4.141   5.658   7.440 -0.6115 -0.3472  0.3001
11820SOL    HW136532   4.137   5.570   7.479  1.2159 -0.0120  1.3575
11820SOL    HW236533   4.073   5.707   7.486 -0.2656 -0.6712  1.1784
11821SOL     OW36534   4.291   3.537   2.503  0.0927  0.0613 -0.1819
11821SOL    HW136535   4.265   3.539   2.595 -0.0557  0.6088 -0.2348
11821SOL    HW236536   4.310   3.628   2.481 -3.7411  0.6435 -1.7995
11822SOL     OW36537   3.128   4.391   2.572 -0.4005 -0.7195  0.0687
11822SOL    HW136538   3.039   4.362   2.551 -0.3199 -0.4019 -0.7431
11822SOL    HW236539   3.160   4.430   2.491  1.0719 -2.2507 -0.1409
11823SOL     OW36540   6.387   2.022   0.592 -0.0512 -0.4401 -0.0505
11823SOL    HW136541   6.313   2.036   0.533 -0.8432 -1.7159  0.5972
11823SOL    HW236542   6.404   1.928   0.587 -0.2963 -0.6262  1.9116
11824SOL     OW36543   4.048   1.109   0.319  0.3415 -1.1886 -0.5575
11824SOL    HW136544   4.039   1.205   0.323 -0.2085 -1.0826 -2.9951
11824SOL    HW236545   3.974   1.076   0.369  1.6097 -0.4202  2.0233
11825SOL     OW36546   4.663   2.600   0.106  0.1497 -0.4432 -0.0698
11825SOL    HW136547   4.705   2.606   0.021  0.5931  1.2101  0.2346
11825SOL    HW236548   4.569   2.605   0.087  0.2056 -1.0293 -0.5200
11826SOL     OW36549   3.472   5.399   2.862  0.2094 -0.0705 -0.0167
11826SOL    HW136550   3.515   5.468   2.913  1.2098 -1.3848  0.9984
11826SOL    HW236551   3.385   5.434   2.842 -0.4618  0.3471  3.1074
11827SOL     OW36552   3.105   4.846   6.891 -0.1884 -0.3544 -0.7498
11827SOL    HW136553   3.176   4.901   6.926 -2.2200  1.5474  0.7266
11827SOL    HW236554   3.142   4.758   6.887  2.4794  0.6665 -0.8556
11828SOL     OW36555   0.294   4.370   7.698 -0.0290  0.1929 -0.0697
11828SOL    HW136556   0.279   4.289   7.746  0.6120 -0.1545 -0.4419
11828SOL    HW236557   0.266   4.351   7.609  1.2318 -0.0193 -0.4415
11829SOL     OW36558   4.476   1.105   5.772  0.3613 -0.5075 -0.1833
11829SOL    HW136559   4.438   1.047   5.837 -1.2733  0.8268  0.1100
11829SOL    HW236560   4.403   1.131   5.716  0.7578  2.1905  0.4249
11830SOL     OW36561   2.896   7.886   6.592  0.3503  0.2433 -0.1174
11830SOL    HW136562   2.913   7.843   6.508  1.3035  0.7852 -0.2229
11830SOL    HW236563   2.801   7.894   6.596  0.2667 -0.2161 -0.9310
11831SOL     OW36564   3.692   1.498   0.283  0.0078 -0.1154 -0.0574
11831SOL    HW136565   3.605   1.536   0.297 -1.0895 -2.1081 -1.0115
11831SOL    HW236566   3.705   1.440   0.358  0.0996 -0.5196 -0.3836
11832SOL     OW36567   4.791   7.952   0.364 -0.2503 -0.2704  0.2231
11832SOL    HW136568   4.699   7.930   0.355 -0.4634  0.3301  0.8381
11832SOL    HW236569   4.822   7.967   0.275 -0.9833  0.4496  0.0841
11833SOL     OW36570   5.023   0.194   8.132  0.0258 -0.2557  0.1728
11833SOL    HW136571   5.007   0.264   8.195  0.7453  0.4728 -0.4389
11833SOL    HW236572   4.936   0.162   8.109 -0.2657 -0.1950  1.1493
11834SOL     OW36573   5.183   0.616   4.507  0.0396  0.1936  0.5851
11834SOL    HW136574   5.232   0.656   4.435 -0.2653  0.4972  0.5456
11834SOL    HW236575   5.189   0.679   4.578  0.3245 -0.0991  0.8264
11835SOL     OW36576   2.338   0.213   6.383  0.2296 -0.3515 -0.0824
11835SOL    HW136577   2.253   0.237   6.420 -0.4485 -1.2295 -1.0296
11835SOL    HW236578   2.374   0.296   6.350  0.3093  0.2391  1.3696
11836SOL     OW36579   4.889   1.185   4.182 -0.3288  0.4762 -0.4212
11836SOL    HW136580   4.794   1.177   4.183 -0.4507  1.7665  0.4053
11836SOL    HW236581   4.907   1.273   4.215  1.1515  0.2993 -0.6510
11837SOL     OW36582   6.624   7.655   7.317 -0.3385  0.1840 -0.2250
11837SOL    HW136583   6.707   7.609   7.334  0.4316  1.3348 -0.7160
11837SOL    HW236584   6.607   7.703   7.397  0.1575  0.9466 -0.5651
11838SOL     OW36585   5.753   7.332   2.354  0.3907 -0.3197  0.1416
11838SOL    HW136586   5.675   7.363   2.307 -2.0086 -3.2276  1.7905
11838SOL    HW236587   5.801   7.282   2.288  0.0342  0.2168 -0.5460
11839SOL     OW36588   0.433   7.573   0.957 -0.0423  0.6713  0.1593
11839SOL    HW136589   0.415   7.593   0.865 -0.3034 -2.5320 -0.6081
11839SOL    HW236590   0.524   7.598   0.971  0.6094 -0.5423 -1.6002
11840SOL     OW36591   4.464   1.924   5.181 -0.4503 -0.0102 -0.5937
11840SOL    HW136592   4.398   1.941   5.248 -0.6722 -0.3631 -0.7174
11840SOL    HW236593   4.504   2.009   5.165 -1.4932  0.3951 -1.1605
11841SOL     OW36594   3.704   1.854   1.866 -0.4787  0.6328 -0.6317
11841SOL    HW136595   3.754   1.819   1.793 -1.4092 -0.5570 -0.7263
11841SOL    HW236596   3.648   1.922   1.828 -0.2415  0.7061 -0.8444
11842SOL     OW36597   3.147   1.890   7.607  0.1966  0.1529 -0.4671
11842SOL    HW136598   3.160   1.857   7.695  1.5014 -0.1761 -0.7559
11842SOL    HW236599   3.121   1.981   7.619  1.9077  0.5938  0.2627
11843SOL     OW36600   6.910   5.654   8.122  0.3790  0.6229  0.3046
11843SOL    HW136601   6.963   5.584   8.161  0.9606  1.4771  1.0972
11843SOL    HW236602   6.901   5.719   8.192 -1.6837  0.5509  0.1673
11844SOL     OW36603   7.396   1.892   1.473 -0.8778 -0.1794 -0.3084
11844SOL    HW136604   7.385   1.890   1.377 -1.5093  0.2615 -0.2567
11844SOL    HW236605   7.474   1.839   1.490 -0.2766  0.4115 -1.1368
11845SOL     OW36606   4.534   3.360   6.640  0.3154  0.0131 -0.1262
11845SOL    HW136607   4.443   3.343   6.618 -0.2459  1.9473  0.5124
11845SOL    HW236608   4.581   3.352   6.557 -0.3270 -1.5027 -0.3645
11846SOL     OW36609   2.941   5.904   4.967 -1.1334 -0.0410 -0.4073
11846SOL    HW136610   3.021   5.935   4.924 -1.1408  1.4765  0.5875
11846SOL    HW236611   2.898   5.849   4.901 -0.2425  0.7027 -1.6569
11847SOL     OW36612   6.060   2.415   7.328  0.3167 -0.4109  0.2843
11847SOL    HW136613   6.078   2.323   7.310  0.5582 -0.5958  1.4556
11847SOL    HW236614   6.001   2.414   7.403 -0.2551  0.3758 -0.1369
11848SOL     OW36615   2.741   4.432   0.063 -0.1074  0.2470  0.7257
11848SOL    HW136616   2.816   4.451   0.007 -1.6347  1.4048 -1.0396
11848SOL    HW236617   2.758   4.482   0.143  0.7507  0.9245  0.1465
11849SOL     OW36618   7.564   8.100   5.122 -0.7903 -0.4626  0.0595
11849SOL    HW136619   7.642   8.045   5.126 -0.2076  0.1697 -1.6372
11849SOL    HW236620   7.553   8.133   5.211  0.4913 -1.0846  0.4690
11850SOL     OW36621   6.039   0.474   5.739 -0.2026 -0.3904 -0.4574
11850SOL    HW136622   5.962   0.420   5.757 -0.1280 -0.5864 -0.7350
11850SOL    HW236623   6.019   0.558   5.781 -0.9964 -0.1085 -1.3764
11851SOL     OW36624   2.248   5.249   6.955 -0.5315  0.3227 -0.0523
11851SOL    HW136625   2.154   5.239   6.971 -0.3941 -2.0242 -0.4554
11851SOL    HW236626   2.272   5.175   6.899  1.5989  0.8007  0.1234
11852SOL     OW36627   7.637   5.466   4.240  0.1460 -0.0570  0.4590
11852SOL    HW136628   7.687   5.384   4.240  1.1373  0.4867 -0.9551
11852SOL    HW236629   7.643   5.496   4.149 -2.7314  0.1032  0.2332
11853SOL     OW36630   1.825   3.439   8.023  0.1426  0.3165  0.2541
11853SOL    HW136631   1.745   3.465   7.978  0.4690  0.9035  0.0009
11853SOL    HW236632   1.867   3.521   8.048  1.2437  0.0566 -0.6600
11854SOL     OW36633   1.659   7.445   2.195  0.6137 -0.5771 -0.5942
11854SOL    HW136634   1.625   7.515   2.252  0.6157 -0.2017 -1.0424
11854SOL    HW236635   1.612   7.457   2.112  0.6628 -1.0708 -0.6982
11855SOL     OW36636   4.665   1.920   0.516 -0.1862 -0.0164 -0.6445
11855SOL    HW136637   4.629   1.839   0.553 -1.0198  0.0669 -1.2363
11855SOL    HW236638   4.747   1.933   0.563  0.1133 -1.3614 -0.7383
11856SOL     OW36639   2.011   7.253   1.146 -0.6305 -0.1588  0.5081
11856SOL    HW136640   2.033   7.344   1.167 -0.8469  0.0570 -0.1689
11856SOL    HW236641   1.926   7.240   1.189 -0.8734  0.1469  0.1335
11857SOL     OW36642   7.570   5.256   0.284  0.1343  0.4565  0.0778
11857SOL    HW136643   7.526   5.178   0.252  2.1220 -1.1764  1.0726
11857SOL    HW236644   7.499   5.316   0.308 -1.4780 -1.3145 -0.0667
11858SOL     OW36645   3.123   7.295   5.910  0.2795  0.0332  0.4858
11858SOL    HW136646   3.072   7.294   5.991 -0.6389 -0.1804 -0.0746
11858SOL    HW236647   3.191   7.229   5.924 -0.2764 -0.4812  0.8372
11859SOL     OW36648   4.078   5.343   3.897 -0.4348  0.0480  0.1540
11859SOL    HW136649   4.155   5.398   3.911 -0.4577 -0.0963  0.9189
11859SOL    HW236650   4.107   5.273   3.840 -0.4658  0.9865 -1.0551
11860SOL     OW36651   0.313   2.256   2.289  0.6901  0.6904  0.3617
11860SOL    HW136652   0.401   2.291   2.303  0.8052  0.9386 -0.8785
11860SOL    HW236653   0.281   2.236   2.377  2.5290 -0.7584  0.7595
11861SOL     OW36654   7.382   3.902   3.694  0.3021  0.0271  0.0368
11861SOL    HW136655   7.388   3.816   3.653  3.9167  0.1429  0.0128
11861SOL    HW236656   7.334   3.955   3.630 -0.6904 -1.5654 -0.6121
11862SOL     OW36657   3.089   5.959   2.270 -0.2176  0.5440  0.2258
11862SOL    HW136658   3.084   6.007   2.352 -0.2431  0.2466  0.4006
11862SOL    HW236659   3.181   5.932   2.265 -0.1251  0.9114 -0.0437
11863SOL     OW36660   2.347   0.111   7.704  0.0506  0.2651 -0.0478
11863SOL    HW136661   2.338   0.074   7.616 -3.6448  1.1322 -0.2099
11863SOL    HW236662   2.330   0.036   7.762 -1.3205  0.4064 -0.2283
11864SOL     OW36663   8.095   1.231   1.083  0.1722 -0.2516  0.4047
11864SOL    HW136664   8.013   1.264   1.048 -1.1914 -2.4645  1.2399
11864SOL    HW236665   8.144   1.309   1.109 -1.9350  1.1270  0.4707
11865SOL     OW36666   0.599   5.558   4.565  0.1814 -0.0332  0.1051
11865SOL    HW136667   0.528   5.496   4.550  0.8486 -1.4627  2.3726
11865SOL    HW236668   0.667   5.533   4.503  0.6131 -1.9170  1.2809
11866SOL     OW36669   4.926   0.461   3.926 -0.0769 -0.1469 -0.3059
11866SOL    HW136670   5.012   0.504   3.921  0.4272 -1.1749 -0.8226
11866SOL    HW236671   4.922   0.408   3.847 -1.7378  0.8471 -0.9347
11867SOL     OW36672   4.744   2.197   3.534  0.0510  0.1967  0.2767
11867SOL    HW136673   4.800   2.190   3.611  0.1068  1.2319  0.3415
11867SOL    HW236674   4.804   2.196   3.459  0.2944  2.4679  0.3872
11868SOL     OW36675   7.929   2.701   0.780 -0.4194 -0.3097  0.1817
11868SOL    HW136676   7.989   2.659   0.842  0.5641  1.1089  0.2444
11868SOL    HW236677   7.905   2.631   0.719  1.1581 -0.9729  0.2631
11869SOL     OW36678   5.578   5.892   0.863 -0.0946 -0.9579  0.2514
11869SOL    HW136679   5.629   5.969   0.889  0.4049 -1.1199 -0.2246
11869SOL    HW236680   5.584   5.833   0.938 -0.3672 -0.5883  0.5645
11870SOL     OW36681   3.678   6.246   2.913 -0.1072 -0.1295  0.1308
11870SOL    HW136682   3.688   6.305   2.987  2.3749 -0.9263  0.5202
11870SOL    HW236683   3.710   6.295   2.838  4.1146 -1.4718  0.7897
11871SOL     OW36684   7.797   7.597   4.268  0.1265 -0.6249  0.5559
11871SOL    HW136685   7.860   7.529   4.290 -0.9935 -1.3911  1.4730
11871SOL    HW236686   7.733   7.595   4.339 -1.6438 -0.7492 -0.9656
11872SOL     OW36687   7.095   3.483   4.983 -0.3807  0.2180 -0.1398
11872SOL    HW136688   7.055   3.552   5.037  0.9070 -1.5025  3.3490
11872SOL    HW236689   7.039   3.406   4.997  1.5391 -1.0240  1.2524
11873SOL     OW36690   4.247   6.241   7.463  0.3288  0.3079 -0.6211
11873SOL    HW136691   4.216   6.175   7.526  0.8252 -0.5136 -1.2060
11873SOL    HW236692   4.329   6.273   7.500 -0.3678  1.2834  0.1170
11874SOL     OW36693   3.030   2.140   0.190  0.6778 -0.0020 -0.0811
11874SOL    HW136694   2.960   2.169   0.131  1.6354  0.3631 -1.0633
11874SOL    HW236695   3.018   2.193   0.269  0.7823  1.1920 -0.8414
11875SOL     OW36696   6.372   6.829   3.165 -0.3201  0.3237  0.0281
11875SOL    HW136697   6.444   6.788   3.116  0.5513  0.7202  0.9362
11875SOL    HW236698   6.355   6.911   3.119 -1.1825 -0.4045 -1.0227
11876SOL     OW36699   3.004   4.636   5.382 -0.1053 -0.1415 -0.0569
11876SOL    HW136700   3.040   4.659   5.296  1.9411 -0.5359  0.6411
11876SOL    HW236701   2.913   4.665   5.378  0.2090  0.7534 -2.0033
11877SOL     OW36702   2.946   0.670   7.008 -0.4750 -0.0559  0.5032
11877SOL    HW136703   3.042   0.673   7.005 -0.4601 -0.3086  0.7399
11877SOL    HW236704   2.921   0.751   7.053 -0.4337  0.6559 -0.7157
11878SOL     OW36705   3.855   4.550   7.019  0.2946 -0.1197 -0.3254
11878SOL    HW136706   3.863   4.641   7.045 -0.3972 -0.3946  0.9653
11878SOL    HW236707   3.881   4.500   7.097  1.6137 -1.0459 -1.3170
11879SOL     OW36708   5.581   5.443   4.568  0.4060 -0.2459  0.2958
11879SOL    HW136709   5.497   5.433   4.522  0.2340  1.0175  0.2954
11879SOL    HW236710   5.621   5.520   4.527  0.2754  0.8967  2.1854
11880SOL     OW36711   2.509   1.673   6.653 -0.0841  0.0720  0.2397
11880SOL    HW136712   2.419   1.642   6.643  0.2748 -1.2155  0.8378
11880SOL    HW236713   2.506   1.764   6.622 -1.5570  0.0204  0.1447
11881SOL     OW36714   1.541   1.936   3.180 -0.4294 -0.1750 -0.4289
11881SOL    HW136715   1.621   1.983   3.158 -0.1560 -0.3465  0.1632
11881SOL    HW236716   1.501   1.916   3.096  0.3835 -0.4907 -0.7556
11882SOL     OW36717   6.244   7.135   5.213 -0.2416 -0.2331 -0.5083
11882SOL    HW136718   6.201   7.058   5.176 -0.7023  0.0779 -0.6308
11882SOL    HW236719   6.211   7.209   5.161  0.6380 -0.0151 -0.7703
11883SOL     OW36720   4.522   4.373   0.565  0.1092  0.2744 -0.5515
11883SOL    HW136721   4.598   4.345   0.615  0.2803  2.6139  0.6444
11883SOL    HW236722   4.545   4.356   0.474  1.7663  0.2790 -0.1565
11884SOL     OW36723   3.851   6.555   3.622  0.2093 -0.2286 -0.7868
11884SOL    HW136724   3.916   6.622   3.645 -0.4632  0.6275 -1.3111
11884SOL    HW236725   3.850   6.554   3.526  1.3243 -2.1218 -0.8126
11885SOL     OW36726   6.000   2.039   5.492 -0.0188  0.3880  0.4489
11885SOL    HW136727   5.906   2.056   5.485  0.1718  1.2284 -0.2080
11885SOL    HW236728   6.034   2.050   5.403  1.0396  2.2670  1.0220
11886SOL     OW36729   3.880   3.814   7.772  0.0021  0.3633 -0.1376
11886SOL    HW136730   3.873   3.909   7.776 -0.7783  0.2842  0.8284
11886SOL    HW236731   3.794   3.782   7.801  0.3435 -0.6282 -0.1735
11887SOL     OW36732   4.840   3.745   2.993  0.0145  0.1499  0.2760
11887SOL    HW136733   4.782   3.725   3.066  1.4702 -1.7955  0.9895
11887SOL    HW236734   4.891   3.820   3.021  0.4560 -0.4922  1.2300
11888SOL     OW36735   3.495   0.013   6.045  0.1195  0.1878  0.0526
11888SOL    HW136736   3.468  -0.049   5.977  0.9950  0.3945 -0.4898
11888SOL    HW236737   3.457  -0.022   6.126 -0.1188 -0.5761 -0.3855
11889SOL     OW36738   3.764   8.089   0.441 -0.0184 -0.0724  0.2993
11889SOL    HW136739   3.834   8.151   0.464 -1.8041  2.3871 -0.5347
11889SOL    HW236740   3.785   8.062   0.351  1.5888 -1.9924  1.1719
11890SOL     OW36741   1.008   6.617   4.150  0.0444  0.1786  0.7915
11890SOL    HW136742   1.007   6.623   4.055  1.0636  2.1721  0.8566
11890SOL    HW236743   0.933   6.562   4.172 -0.0156 -0.5946 -1.1522
11891SOL     OW36744   3.363   2.734   7.359 -0.0586  0.4048 -0.3649
11891SOL    HW136745   3.309   2.738   7.438  0.0461 -1.9369 -0.0942
11891SOL    HW236746   3.440   2.684   7.386  0.8386  1.1165 -1.5285
11892SOL     OW36747   7.336   5.387   3.926 -0.2459  0.0979 -0.1902
11892SOL    HW136748   7.357   5.342   3.844  0.0961  1.3511 -0.8056
11892SOL    HW236749   7.342   5.318   3.993  3.0874 -0.2455 -0.6921
11893SOL     OW36750   0.746   5.920   1.759  0.0901 -0.3182  0.1208
11893SOL    HW136751   0.663   5.947   1.797 -0.1186 -1.3964  0.4569
11893SOL    HW236752   0.766   5.837   1.802  1.1166 -0.2890 -0.2862
11894SOL     OW36753   1.039   6.838   1.749 -0.5049  0.2465 -0.3237
11894SOL    HW136754   0.965   6.835   1.809  0.0668  3.7053  0.7701
11894SOL    HW236755   1.004   6.877   1.669 -0.2397  0.2259 -0.4510
11895SOL     OW36756   0.180   8.064   2.022 -0.2538 -0.5209  0.0444
11895SOL    HW136757   0.244   8.134   2.008 -0.9282  0.2757  0.8258
11895SOL    HW236758   0.095   8.108   2.019 -0.6488 -1.1365  1.5085
11896SOL     OW36759   7.833   7.983   5.204 -0.7101  0.4416  0.1244
11896SOL    HW136760   7.791   7.952   5.284 -0.7126  0.2674  0.0565
11896SOL    HW236761   7.861   8.072   5.224  1.8304 -0.5435  1.2682
11897SOL     OW36762   5.621   3.297   1.426  0.1987  0.2121 -0.4390
11897SOL    HW136763   5.642   3.389   1.413  1.2435 -0.0281 -0.4897
11897SOL    HW236764   5.703   3.257   1.453 -0.4030 -0.5802  0.2720
11898SOL     OW36765   5.679   4.661   4.369 -0.3332  0.0701 -0.3535
11898SOL    HW136766   5.666   4.586   4.312 -1.8431 -0.7625  0.9846
11898SOL    HW236767   5.760   4.700   4.339  0.1519 -1.7037 -1.5345
11899SOL     OW36768   0.127   4.093   4.384  0.2516 -0.4507  0.0502
11899SOL    HW136769   0.220   4.083   4.403  0.0687  0.1000  1.3968
11899SOL    HW236770   0.122   4.173   4.332  0.5265 -0.4127  0.0778
11900SOL     OW36771   2.670   7.742   7.247 -0.2246 -0.1674  0.7084
11900SOL    HW136772   2.678   7.772   7.338 -1.2072  0.0562  0.7277
11900SOL    HW236773   2.719   7.660   7.245  0.3171  0.1303  1.2901
11901SOL     OW36774   2.452   7.857   1.930  0.4485 -0.1408  0.1662
11901SOL    HW136775   2.391   7.877   2.001 -1.3387  0.5990 -1.4836
11901SOL    HW236776   2.431   7.768   1.904 -0.7565  0.4657 -1.0982
11902SOL     OW36777   3.652   0.068   4.931  0.0184  0.7213  0.6927
11902SOL    HW136778   3.565   0.045   4.962 -0.4279 -0.0459 -1.0348
11902SOL    HW236779   3.657   0.031   4.843  2.0538  0.8322  0.7125
11903SOL     OW36780   4.101   3.626   4.124  0.3320 -0.0374 -0.3488
11903SOL    HW136781   4.096   3.663   4.212  1.5514  0.3174 -0.4164
11903SOL    HW236782   4.182   3.661   4.087  0.9749 -1.9092 -0.8294
11904SOL     OW36783   3.649   4.478   7.434  0.0072 -0.1159  0.0046
11904SOL    HW136784   3.655   4.573   7.429  0.9523  0.2033  3.7724
11904SOL    HW236785   3.557   4.458   7.420 -0.3087  1.4295 -0.2313
11905SOL     OW36786   2.756   1.315   1.605 -0.4553 -0.1884 -0.0946
11905SOL    HW136787   2.812   1.371   1.658 -0.8231 -0.6191  0.7836
11905SOL    HW236788   2.816   1.262   1.553 -0.0624 -0.2172  0.3825
11906SOL     OW36789   1.026   3.396   2.303 -0.4211 -0.4656 -0.5101
11906SOL    HW136790   0.981   3.466   2.349  0.8546  0.0728 -0.0396
11906SOL    HW236791   1.080   3.440   2.238  0.1761 -1.0203 -0.4045
11907SOL     OW36792   2.343   7.810   7.446 -0.1249 -0.2105 -0.1529
11907SOL    HW136793   2.388   7.752   7.508 -1.5076  0.2011  1.3337
11907SOL    HW236794   2.284   7.752   7.398  0.8065 -0.5001 -0.9821
11908SOL     OW36795   4.156   0.241   1.035 -0.4352  0.4973  0.5824
11908SOL    HW136796   4.243   0.282   1.032 -0.4725  0.5244 -0.7290
11908SOL    HW236797   4.110   0.276   0.959 -1.0384 -0.7197  0.3501
11909SOL     OW36798   2.929   6.578   7.930  0.2519  0.1450 -0.2947
11909SOL    HW136799   2.844   6.561   7.890 -0.0091 -0.0042  0.3190
11909SOL    HW236800   2.961   6.492   7.956 -0.0433  0.3357  0.7374
11910SOL     OW36801   5.420   0.129   1.440  0.3919  0.1316  0.0760
11910SOL    HW136802   5.405   0.179   1.360 -0.9582  0.8753  0.7626
11910SOL    HW236803   5.346   0.068   1.444  1.4274 -1.1868 -0.1720
11911SOL     OW36804   7.748   2.629   6.972 -0.0613  0.7863 -0.4970
11911SOL    HW136805   7.835   2.590   6.955 -0.8959 -1.3216 -0.2947
11911SOL    HW236806   7.729   2.605   7.063 -0.5310  1.9202 -0.2884
11912SOL     OW36807   4.173   6.935   5.043 -0.3410 -0.1667  0.0445
11912SOL    HW136808   4.138   7.002   4.985 -0.8232  0.4855  1.0722
11912SOL    HW236809   4.119   6.858   5.025  0.8954 -0.6494 -1.9074
11913SOL     OW36810   6.416   3.817   3.041  0.0265  0.1703  0.0353
11913SOL    HW136811   6.435   3.903   3.004  0.0735 -0.5250 -1.6751
11913SOL    HW236812   6.348   3.834   3.106 -1.2814  1.3189 -1.5212
11914SOL     OW36813   3.545   5.305   0.491 -0.2357  0.2504  0.3260
11914SOL    HW136814   3.635   5.323   0.462  0.2325 -3.0777 -0.6725
11914SOL    HW236815   3.555   5.263   0.576 -0.9381  0.5425  0.5607
11915SOL     OW36816   7.372   4.988   3.086 -0.6774 -0.0374  0.3142
11915SOL    HW136817   7.304   4.955   3.145  0.4321  0.5777  2.0430
11915SOL    HW236818   7.440   4.920   3.088 -0.7079 -0.0905 -0.4103
11916SOL     OW36819   6.930   4.389   3.490  0.0763 -0.2025  0.3025
11916SOL    HW136820   6.839   4.394   3.460  0.3638  0.6941 -0.4703
11916SOL    HW236821   6.944   4.296   3.508 -0.8498 -0.4200 -0.0250
11917SOL     OW36822   1.351   5.985   7.837 -0.1096  0.0131  1.2135
11917SOL    HW136823   1.404   5.907   7.820  0.7905  0.7994  0.2947
11917SOL    HW236824   1.326   6.017   7.750 -1.5714  0.0449  1.6058
11918SOL     OW36825   0.852   2.228   4.086  0.1191 -0.1724 -0.4843
11918SOL    HW136826   0.757   2.234   4.079  0.1783  1.6034 -0.0884
11918SOL    HW236827   0.868   2.205   4.177  0.1022  1.2391 -0.1085
11919SOL     OW36828   2.980   4.352   7.282  0.6384 -0.4541  0.3459
11919SOL    HW136829   3.074   4.368   7.288  0.6731 -0.8955  1.0204
11919SOL    HW236830   2.969   4.260   7.307  0.0398 -0.4408  0.1514
11920SOL     OW36831   7.481   0.079   4.795  0.1998 -0.1185 -0.1281
11920SOL    HW136832   7.560   0.105   4.749  0.7320 -0.2328  0.7035
11920SOL    HW236833   7.412   0.133   4.756  1.0058  1.4056  0.4420
11921SOL     OW36834   7.304   3.346   5.182 -0.3144 -0.1302  0.3081
11921SOL    HW136835   7.259   3.385   5.107  0.1026  1.8925  1.0506
11921SOL    HW236836   7.248   3.367   5.257 -0.1931 -1.1964  0.7122
11922SOL     OW36837   5.176   7.054   7.261  0.1461  0.0629 -0.4464
11922SOL    HW136838   5.186   7.103   7.180 -0.6425 -0.6149 -0.9786
11922SOL    HW236839   5.112   7.103   7.312 -0.9550 -0.5869 -1.1533
11923SOL     OW36840   7.952   4.912   2.660 -0.2305  0.2497 -0.3994
11923SOL    HW136841   7.971   4.858   2.737  0.5500  1.8123  0.5383
11923SOL    HW236842   7.928   4.998   2.695  1.5337  1.4332 -1.8918
11924SOL     OW36843   3.558   0.624   2.327  0.0009 -0.1582  0.1414
11924SOL    HW136844   3.582   0.645   2.417  0.6127  0.0880 -0.0769
11924SOL    HW236845   3.463   0.615   2.329 -0.2008  1.7338  0.4395
11925SOL     OW36846   4.071   0.376   7.426  0.5493 -0.0814 -0.1556
11925SOL    HW136847   4.161   0.408   7.418  0.5809  0.2424  1.2225
11925SOL    HW236848   4.039   0.415   7.507 -1.4839  1.3053 -1.5533
11926SOL     OW36849   3.952   7.254   6.607 -0.2810 -0.1904  0.3265
11926SOL    HW136850   3.859   7.262   6.630 -0.0455  0.6025  1.0254
11926SOL    HW236851   3.999   7.279   6.686  0.5444 -1.8456  0.3991
11927SOL     OW36852   1.977   5.417   7.289 -0.1178  0.4591  0.3982
11927SOL    HW136853   2.004   5.381   7.373 -1.4307 -0.2706  0.5409
11927SOL    HW236854   1.908   5.480   7.311 -0.8145 -0.0934 -0.1409
11928SOL     OW36855   0.060   6.166   0.074 -0.8927 -0.4058 -0.1805
11928SOL    HW136856   0.011   6.223   0.016 -0.8476 -2.5558 -2.4943
11928SOL    HW236857   0.028   6.078   0.054  2.7436 -1.7684 -0.7315
11929SOL     OW36858   2.630   8.100   7.795  0.0936  0.2774  0.1014
11929SOL    HW136859   2.542   8.067   7.814 -1.2182  3.3782 -0.0313
11929SOL    HW236860   2.678   8.089   7.877 -1.3133  1.0527  1.0637
11930SOL     OW36861   1.102   3.160   4.333 -0.1628 -0.2305  0.5339
11930SOL    HW136862   1.196   3.155   4.347  0.0767 -1.2451 -1.2045
11930SOL    HW236863   1.071   3.070   4.343 -0.8639 -0.0043  0.4807
11931SOL     OW36864   5.242   8.164   6.363 -0.7787 -0.2449 -0.3381
11931SOL    HW136865   5.206   8.172   6.275  0.5484 -0.0977 -0.8831
11931SOL    HW236866   5.267   8.253   6.388  1.1879 -0.6121 -0.8574
11932SOL     OW36867   4.795   4.132   1.079 -0.0789 -0.6103 -0.3140
11932SOL    HW136868   4.728   4.200   1.071  0.7920  0.2345 -0.6509
11932SOL    HW236869   4.747   4.054   1.104 -1.0403  0.2730  0.7021
11933SOL     OW36870   0.777   5.717   0.371  0.3339 -0.1527 -0.3643
11933SOL    HW136871   0.775   5.812   0.363 -1.3327 -0.0607  0.5362
11933SOL    HW236872   0.820   5.701   0.455  0.7686 -0.2043 -0.5961
11934SOL     OW36873   6.862   3.843   7.779  0.0286 -0.0354  0.0538
11934SOL    HW136874   6.791   3.898   7.810 -1.9704 -2.6651  0.4593
11934SOL    HW236875   6.847   3.835   7.684 -1.8201 -2.4985  0.4434
11935SOL     OW36876   2.493   7.276   7.616  0.1505 -0.0129 -0.3342
11935SOL    HW136877   2.584   7.281   7.589  0.6951 -1.2673  1.0829
11935SOL    HW236878   2.448   7.237   7.541  0.4679  1.8778 -1.5775
11936SOL     OW36879   3.734   5.680   7.012  0.0221 -0.1553 -0.2522
11936SOL    HW136880   3.803   5.675   7.078 -0.7607 -0.1613  0.5827
11936SOL    HW236881   3.741   5.769   6.977 -0.6852  0.4630  1.1119
11937SOL     OW36882   3.633   2.314   1.515  0.3003 -0.2894 -0.1954
11937SOL    HW136883   3.671   2.229   1.492 -1.3110 -0.9565 -0.4738
11937SOL    HW236884   3.605   2.303   1.606  2.5549  0.8804  0.7291
11938SOL     OW36885   1.385   7.762   5.232  0.6008 -0.4167 -0.0323
11938SOL    HW136886   1.419   7.697   5.170 -0.9450 -1.8594  0.5469
11938SOL    HW236887   1.417   7.734   5.317  0.5925  0.0653  0.1342
11939SOL     OW36888   7.288   8.083   5.704 -0.5351 -0.1664  0.3097
11939SOL    HW136889   7.308   8.176   5.718 -1.8891  0.0721  0.8465
11939SOL    HW236890   7.373   8.041   5.696  0.0963  1.2138 -0.5980
11940SOL     OW36891   7.807   0.940   5.445  0.1226 -0.0473 -0.1221
11940SOL    HW136892   7.846   0.989   5.518 -0.5956  1.8485 -0.9374
11940SOL    HW236893   7.716   0.969   5.442 -0.3001 -1.3545 -0.7484
11941SOL     OW36894   7.865   0.513   0.690  0.3710 -0.4391  0.0559
11941SOL    HW136895   7.879   0.511   0.784 -0.7906  0.1206  0.2631
11941SOL    HW236896   7.873   0.421   0.662  0.1844 -0.6836  0.7881
11942SOL     OW36897   5.598   0.360   6.006  0.4233  0.0346 -0.4691
11942SOL    HW136898   5.664   0.396   6.065  1.4216 -1.1100 -0.8322
11942SOL    HW236899   5.532   0.322   6.063  0.0794  1.1401 -0.1023
11943SOL     OW36900   5.067   4.044   0.997  0.0169 -0.2661  0.1691
11943SOL    HW136901   5.120   4.056   1.076 -1.4145 -0.3193  1.1801
11943SOL    HW236902   4.979   4.073   1.023 -0.5727 -0.6688 -1.2940
11944SOL     OW36903   3.095   6.939   6.016  0.4409 -0.0222 -0.2154
11944SOL    HW136904   3.164   6.888   5.973 -0.4124 -3.7650  2.3318
11944SOL    HW236905   3.141   7.000   6.073  1.6182 -0.1206 -1.0479
11945SOL     OW36906   2.049   1.595   7.086  0.1271 -0.0079 -0.0974
11945SOL    HW136907   2.045   1.684   7.052 -0.5914 -0.4605 -1.2405
11945SOL    HW236908   1.970   1.586   7.139  0.8409  0.4301  1.0890
11946SOL     OW36909   3.445   6.192   6.286  0.1976  0.5206  0.1355
11946SOL    HW136910   3.406   6.138   6.217 -0.4182 -0.0176  0.8979
11946SOL    HW236911   3.539   6.182   6.274  0.1081  0.5943 -0.7467
11947SOL     OW36912   0.112   6.272   2.583 -0.2181  0.1375  0.1277
11947SOL    HW136913   0.176   6.203   2.564 -0.4831 -0.2429  0.6039
11947SOL    HW236914   0.163   6.353   2.578  0.2156 -0.1314  0.0918
11948SOL     OW36915   7.433   8.105   2.362 -0.1447  0.4917  0.3814
11948SOL    HW136916   7.514   8.063   2.334 -1.4337 -1.5848 -0.4225
11948SOL    HW236917   7.442   8.113   2.457  0.9835  0.3239  0.3048
11949SOL     OW36918   1.358   2.085   6.744 -0.2654  0.5491 -0.1150
11949SOL    HW136919   1.403   2.139   6.680 -0.4369 -0.0394 -0.7436
11949SOL    HW236920   1.428   2.050   6.800  0.1432 -0.7257 -1.3682
11950SOL     OW36921   5.668   2.481   5.605 -0.0746  0.4454 -0.1406
11950SOL    HW136922   5.703   2.559   5.562 -0.8234  0.3886 -0.8639
11950SOL    HW236923   5.574   2.488   5.594 -0.1787 -0.3156  0.2370
11951SOL     OW36924   2.736   4.230   1.614  0.6622  0.2097 -0.2486
11951SOL    HW136925   2.729   4.285   1.536  1.2927  1.2101  0.3833
11951SOL    HW236926   2.830   4.217   1.628  0.5675  0.1977  0.4502
11952SOL     OW36927   3.335   5.829   2.407 -0.0231 -0.5461  1.2984
11952SOL    HW136928   3.269   5.788   2.462 -0.1116  0.7035  2.1752
11952SOL    HW236929   3.344   5.918   2.443 -0.6637  0.6047 -1.2073
11953SOL     OW36930   4.920   3.081   7.622 -0.2613  0.0702  0.3374
11953SOL    HW136931   4.993   3.051   7.568  0.0646  0.1357  0.7403
11953SOL    HW236932   4.955   3.155   7.671 -0.2925 -0.5383  1.3011
11954SOL     OW36933   7.230   0.129   3.205 -0.2010 -0.4293  0.2012
11954SOL    HW136934   7.247   0.223   3.190  0.2724 -0.4258  0.7514
11954SOL    HW236935   7.136   0.124   3.220 -0.5926 -0.3093 -1.8474
11955SOL     OW36936   6.861   7.667   4.496 -0.0778 -0.6512 -0.6360
11955SOL    HW136937   6.888   7.679   4.587 -1.5325 -0.8273 -0.1624
11955SOL    HW236938   6.939   7.689   4.445  0.5310  0.2155  0.6218
11956SOL     OW36939   8.148   7.243   3.119 -0.1554  0.6367  0.3618
11956SOL    HW136940   8.114   7.229   3.031  1.7556 -1.8092 -0.1116
11956SOL    HW236941   8.073   7.232   3.177 -0.9946 -0.1251 -0.8508
11957SOL     OW36942   1.798   6.172   0.909 -0.6965  0.1412 -0.6073
11957SOL    HW136943   1.824   6.157   0.818  0.1140  0.7195 -0.4807
11957SOL    HW236944   1.771   6.264   0.911 -3.0466 -0.4691 -0.7890
11958SOL     OW36945   7.853   1.070   4.788  0.1295  0.6004 -0.2448
11958SOL    HW136946   7.808   1.145   4.750  0.4500  0.0064 -1.8709
11958SOL    HW236947   7.812   0.994   4.747  0.6069 -0.0728  0.4943
11959SOL     OW36948   2.941   6.868   4.589 -0.3205  0.3698  0.4479
11959SOL    HW136949   3.002   6.893   4.519 -1.1474 -0.4701 -0.5986
11959SOL    HW236950   2.865   6.924   4.577 -0.0631  0.9281  1.3207
11960SOL     OW36951   3.522   3.569   5.165 -0.2721 -0.1187 -0.2745
11960SOL    HW136952   3.475   3.610   5.238 -0.3807 -0.2288 -0.2808
11960SOL    HW236953   3.570   3.496   5.205  0.6257  0.5393 -0.1160
11961SOL     OW36954   3.238   4.705   1.110 -0.3647  0.4702  0.0256
11961SOL    HW136955   3.242   4.780   1.170  0.3609 -0.7323  1.5481
11961SOL    HW236956   3.145   4.698   1.087 -0.2917  2.5870 -1.2042
11962SOL     OW36957   3.897   3.574   7.364 -0.1938  0.2263  0.2041
11962SOL    HW136958   3.928   3.645   7.308  0.7485 -3.1188 -4.1857
11962SOL    HW236959   3.977   3.529   7.392 -0.7846 -0.2005  1.2407
11963SOL     OW36960   7.522   7.225   1.635 -0.0028  0.0397 -0.3194
11963SOL    HW136961   7.580   7.296   1.663  0.5193 -0.7502  0.6860
11963SOL    HW236962   7.581   7.160   1.595 -0.5318  0.3618 -1.6769
11964SOL     OW36963   1.132   5.246   6.431 -0.1819  0.1115  0.2428
11964SOL    HW136964   1.109   5.310   6.364  1.2884 -0.2752 -0.6786
11964SOL    HW236965   1.055   5.190   6.438 -0.3540  0.1386 -1.1680
11965SOL     OW36966   5.745   3.954   1.388 -0.4449  0.4370  0.5061
11965SOL    HW136967   5.736   3.864   1.417  1.7708 -0.7810 -2.1303
11965SOL    HW236968   5.662   3.996   1.412 -0.7704 -1.7030  3.5823
11966SOL     OW36969   0.806   3.184   0.071  0.4907 -0.0306  0.4866
11966SOL    HW136970   0.881   3.214   0.019 -0.2147  0.3091 -0.3727
11966SOL    HW236971   0.834   3.194   0.162  2.0262 -1.3290  0.2030
11967SOL     OW36972   7.451   3.463   6.690  0.5618  0.2227  0.0461
11967SOL    HW136973   7.402   3.390   6.652 -0.0982 -0.2763  1.7714
11967SOL    HW236974   7.400   3.540   6.668  0.5267  0.0245 -0.5985
11968SOL     OW36975   1.431   6.415   2.794  0.5337 -0.2762  0.3223
11968SOL    HW136976   1.363   6.364   2.749  0.2005  0.9887 -0.6561
11968SOL    HW236977   1.384   6.489   2.832  1.1041 -0.3524  1.1994
11969SOL     OW36978   7.087   0.119   6.706  0.5583 -0.0240 -0.0000
11969SOL    HW136979   7.094   0.158   6.619 -0.0196 -0.1635 -0.1152
11969SOL    HW236980   7.014   0.166   6.747 -1.8324 -2.5296 -1.0102
11970SOL     OW36981   3.006   4.860   1.060 -0.2048 -0.2766 -0.2246
11970SOL    HW136982   2.982   4.952   1.049  1.9064  0.2543 -0.8014
11970SOL    HW236983   2.940   4.825   1.119 -0.8918  1.6851  0.2452
11971SOL     OW36984   6.936   1.572   5.137  0.2855 -0.0415 -0.2111
11971SOL    HW136985   6.887   1.528   5.207  0.7988  0.5761  0.5613
11971SOL    HW236986   6.917   1.521   5.059  0.4561 -1.3370  0.5576
11972SOL     OW36987   4.660   4.300   2.848 -0.4837  0.2896 -0.0081
11972SOL    HW136988   4.654   4.330   2.938 -1.4798 -2.7569  1.0760
11972SOL    HW236989   4.749   4.267   2.838 -0.7591 -0.6028  0.3513
11973SOL     OW36990   4.035   4.736   5.679  0.7978 -0.4440 -0.1310
11973SOL    HW136991   3.975   4.760   5.750  1.7080  1.3844  0.0689
11973SOL    HW236992   3.998   4.655   5.643 -2.3576  1.0906 -0.6778
11974SOL     OW36993   0.184   5.652   6.529 -0.1641 -0.2548  0.0400
11974SOL    HW136994   0.217   5.734   6.493 -1.2469 -0.2492 -0.9686
11974SOL    HW236995   0.138   5.610   6.457 -1.3831 -0.7981  1.0913
11975SOL     OW36996   4.865   1.453   5.320  0.4194  0.0868 -0.6224
11975SOL    HW136997   4.820   1.391   5.378  0.0136  0.6559 -0.3248
11975SOL    HW236998   4.815   1.451   5.239 -1.0794  1.8334  0.2052
11976SOL     OW36999   5.398   4.078   0.044  1.2115 -0.2794 -0.4283
11976SOL    HW137000   5.334   4.042  -0.018 -0.1921 -0.3477  1.0192
11976SOL    HW237001   5.477   4.088  -0.009 -0.7494  2.7423 -3.1676
11977SOL     OW37002   1.202   7.801   3.799  0.0786 -0.0564 -0.2216
11977SOL    HW137003   1.267   7.809   3.869  0.3416  0.5611 -0.5350
11977SOL    HW237004   1.222   7.872   3.738 -1.1709  0.4401 -0.0921
11978SOL     OW37005   5.617   7.618   6.515 -0.1439  0.2541  0.0724
11978SOL    HW137006   5.620   7.573   6.599  1.2126 -0.5770 -0.3940
11978SOL    HW237007   5.541   7.676   6.521 -0.4515 -0.2820  1.6107
11979SOL     OW37008   6.255   1.492   7.576 -0.5209  0.9077  0.8063
11979SOL    HW137009   6.211   1.531   7.501 -3.3594  0.6819  2.1955
11979SOL    HW237010   6.231   1.399   7.572  0.8984  0.5027  0.9821
11980SOL     OW37011   6.279   5.596   2.480  0.4814 -0.9434 -0.3721
11980SOL    HW137012   6.365   5.620   2.515 -1.0304  0.9090  2.4664
11980SOL    HW237013   6.253   5.520   2.532 -0.1960 -0.5603 -0.1381
11981SOL     OW37014   6.960   2.958   0.911  0.3944  0.0047  0.0218
11981SOL    HW137015   6.890   2.996   0.964  0.7408 -0.2224  0.6483
11981SOL    HW237016   6.953   3.002   0.827 -0.4767  0.0161  0.0925
11982SOL     OW37017   0.104   7.797   6.183 -0.0414  0.1542  0.0024
11982SOL    HW137018   0.170   7.786   6.251  0.8003 -1.2328 -0.9996
11982SOL    HW237019   0.127   7.732   6.116 -1.5908  0.6096 -1.0187
11983SOL     OW37020   4.936   4.540   7.790 -0.1820  0.1640  0.4664
11983SOL    HW137021   4.959   4.452   7.818  0.4453  0.3636  0.6051
11983SOL    HW237022   4.895   4.580   7.867 -0.4280  0.0081  0.4162
11984SOL     OW37023   5.345   0.202   2.808  0.2973 -1.1603 -0.2122
11984SOL    HW137024   5.403   0.160   2.871  0.2102 -2.9656 -1.2623
11984SOL    HW237025   5.348   0.144   2.731 -2.5392 -1.0681 -0.4696
11985SOL     OW37026   4.394   5.463   2.540 -0.2669 -0.0362  0.0102
11985SOL    HW137027   4.330   5.401   2.575  0.6157 -0.5049  0.8270
11985SOL    HW237028   4.342   5.542   2.521 -0.9337 -0.0500  1.6074
11986SOL     OW37029   0.950   0.502   6.316 -0.0646 -0.2799 -0.0274
11986SOL    HW137030   1.018   0.556   6.276 -0.6720  1.3627  1.0749
11986SOL    HW237031   0.874   0.515   6.259 -0.0593 -0.3951 -0.0599
11987SOL     OW37032   2.239   5.499   5.617 -0.5535 -0.2595  0.1329
11987SOL    HW137033   2.261   5.584   5.655  1.6706  0.5221 -2.5349
11987SOL    HW237034   2.182   5.520   5.543 -0.4459 -1.1526 -0.2189
11988SOL     OW37035   1.052   1.202   2.999  0.0424 -0.6386 -0.0300
11988SOL    HW137036   1.005   1.130   2.956  1.7408 -0.4101 -2.4981
11988SOL    HW237037   0.988   1.274   3.002 -0.8612 -1.4190  0.0475
11989SOL     OW37038   6.870   0.458   7.082  0.2340 -0.4128 -0.1876
11989SOL    HW137039   6.834   0.490   7.164  1.4778  0.5857 -0.0137
11989SOL    HW237040   6.811   0.386   7.057 -1.7916  1.0270  0.1439
11990SOL     OW37041   8.116   4.839   4.705  0.5723  0.0374 -0.3038
11990SOL    HW137042   8.203   4.870   4.680  0.4351  0.5329 -0.1892
11990SOL    HW237043   8.132   4.755   4.748  1.0467  0.3491  0.1460
11991SOL     OW37044   4.661   4.742   0.362  0.2113 -0.0156  0.2893
11991SOL    HW137045   4.725   4.678   0.390 -0.6534 -1.2963 -0.5686
11991SOL    HW237046   4.629   4.781   0.444 -0.7283 -2.1519  1.0071
11992SOL     OW37047   0.882   7.956   4.118  0.8771 -0.4571 -0.2855
11992SOL    HW137048   0.803   7.946   4.171  1.0038 -0.8241 -0.1639
11992SOL    HW237049   0.891   7.873   4.072  2.6072 -1.4381  1.6568
11993SOL     OW37050   3.221   4.455   2.123 -0.4642  0.1067 -0.3309
11993SOL    HW137051   3.252   4.528   2.177  2.6481 -1.2126 -0.0915
11993SOL    HW237052   3.189   4.391   2.186  2.0346 -0.9338 -0.0201
11994SOL     OW37053   6.894   6.013   4.613  0.1394 -0.6395  0.4870
11994SOL    HW137054   6.834   6.079   4.577  1.5876  0.2307 -0.4664
11994SOL    HW237055   6.856   5.929   4.588 -0.3302 -0.0937 -0.7202
11995SOL     OW37056   1.882   1.921   0.970  0.3366  0.2039 -0.0720
11995SOL    HW137057   1.820   1.866   1.018 -1.0861  0.7800 -1.1745
11995SOL    HW237058   1.877   1.889   0.880  1.0553  0.7740 -0.3208
11996SOL     OW37059   7.976   3.307   2.680 -0.0002 -0.0182  0.1020
11996SOL    HW137060   7.896   3.358   2.696 -0.2471 -0.4338  0.1972
11996SOL    HW237061   8.047   3.365   2.708 -0.0653  1.4168 -2.3983
11997SOL     OW37062   2.269   0.053   6.950 -0.1382 -0.6225  0.9099
11997SOL    HW137063   2.283  -0.034   6.987  3.3801  0.5560  2.8549
11997SOL    HW237064   2.356   0.081   6.921 -1.5375  1.4238 -1.7766
11998SOL     OW37065   8.076   4.046   0.320  0.0083  0.2116  0.4651
11998SOL    HW137066   8.057   4.080   0.408  0.0635 -0.6098  0.8089
11998SOL    HW237067   8.097   4.124   0.268 -2.7217  1.0447  0.4476
11999SOL     OW37068   2.217   7.241   6.656 -0.0817 -0.1828  0.6315
11999SOL    HW137069   2.213   7.145   6.649  1.7180 -0.1694 -4.4944
11999SOL    HW237070   2.304   7.264   6.623 -0.6381  3.2723  1.2157
12000SOL     OW37071   8.067   7.132   4.379 -0.2744 -0.4985  0.1774
12000SOL    HW137072   8.059   7.079   4.299 -0.7386  0.5513 -0.4814
12000SOL    HW237073   8.037   7.074   4.449 -0.7747 -1.1137 -0.5305
12001SOL     OW37074   6.170   1.233   7.459 -0.1619 -0.4403  0.2749
12001SOL    HW137075   6.237   1.167   7.448  0.4732  0.0011  1.3294
12001SOL    HW237076   6.094   1.200   7.411  1.1611 -0.3805 -1.9425
12002SOL     OW37077   1.824   5.456   7.987  0.0574  0.4217  0.2016
12002SOL    HW137078   1.913   5.423   8.002  0.1368  1.6712  3.0423
12002SOL    HW237079   1.780   5.385   7.941  2.1216 -0.7969 -0.0218
12003SOL     OW37080   1.372   7.852   3.474 -0.1288 -0.2023  0.3093
12003SOL    HW137081   1.422   7.886   3.400  0.7047 -0.7908  0.5845
12003SOL    HW237082   1.367   7.926   3.535 -0.3424  0.1196 -0.0984
12004SOL     OW37083   0.924   7.276   7.109  0.0739  0.0989 -0.6751
12004SOL    HW137084   0.968   7.209   7.057 -0.3877  0.1888 -1.1814
12004SOL    HW237085   0.996   7.326   7.148  0.4921 -1.8459  1.3041
12005SOL     OW37086   2.277   1.829   4.327 -0.0583 -0.3923  0.1550
12005SOL    HW137087   2.355   1.881   4.305 -0.6111  0.2202 -0.3849
12005SOL    HW237088   2.255   1.783   4.247  0.1748 -1.1470  0.5162
12006SOL     OW37089   3.662   7.367   8.130  0.3870 -0.2424  0.8434
12006SOL    HW137090   3.643   7.291   8.075 -1.7563  1.2609 -0.6265
12006SOL    HW237091   3.577   7.391   8.168  0.4217  2.9501 -0.8142
12007SOL     OW37092   0.762   1.123   0.510  0.0898 -0.3502  0.3439
12007SOL    HW137093   0.688   1.180   0.532  0.0469  0.7342 -2.3244
12007SOL    HW237094   0.839   1.179   0.520  0.9299 -1.9025  4.7422
12008SOL     OW37095   7.861   0.841   1.856  0.3008 -0.2700 -0.5792
12008SOL    HW137096   7.878   0.788   1.778  1.8170 -0.2593 -0.2804
12008SOL    HW237097   7.831   0.777   1.921 -0.3679 -0.3664 -0.9660
12009SOL     OW37098   4.577   1.650   5.243 -0.3882  0.2549 -0.1297
12009SOL    HW137099   4.634   1.625   5.316 -0.7989 -0.7726 -0.1415
12009SOL    HW237100   4.565   1.744   5.253  1.3521  0.5224 -0.1579
12010SOL     OW37101   2.750   1.167   6.497  0.1404 -0.1345 -0.3229
12010SOL    HW137102   2.826   1.178   6.555 -0.1329  0.1153 -0.0011
12010SOL    HW237103   2.683   1.225   6.535  0.5276  1.4180 -1.9042
12011SOL     OW37104   7.749   4.255   6.048 -0.4215 -0.2420  0.5444
12011SOL    HW137105   7.805   4.239   5.971 -1.6698  1.6407 -0.8299
12011SOL    HW237106   7.699   4.174   6.058  1.3334 -1.3398  0.7919
12012SOL     OW37107   2.424   4.346   5.166  0.0186  0.8873 -0.3907
12012SOL    HW137108   2.515   4.377   5.166  0.1942  0.4115  0.4414
12012SOL    HW237109   2.376   4.409   5.219  0.1428  0.4058  0.3105
12013SOL     OW37110   1.559   5.565   7.045 -0.3426  0.8348  0.3500
12013SOL    HW137111   1.593   5.488   7.091  1.8218  2.1942  1.2152
12013SOL    HW237112   1.475   5.538   7.011  0.3016 -1.8758  0.7151
12014SOL     OW37113   1.012   7.539   5.261  0.3349  0.3399  0.8638
12014SOL    HW137114   1.034   7.508   5.349  1.1043 -1.3555  0.1158
12014SOL    HW237115   1.091   7.525   5.210 -0.6978 -0.5862 -0.5593
12015SOL     OW37116   2.953   7.483   4.391 -0.7866  0.1835 -0.3759
12015SOL    HW137117   2.905   7.416   4.439 -0.8345  0.3332 -0.2107
12015SOL    HW237118   3.019   7.435   4.341 -0.5538  0.0467  0.0549
12016SOL     OW37119   6.869   4.025   1.416  0.4207 -0.1301  0.3489
12016SOL    HW137120   6.903   4.004   1.503 -0.3951  0.7920  0.9097
12016SOL    HW237121   6.797   4.087   1.432 -0.4738 -0.7846 -0.8958
12017SOL     OW37122   5.162   3.500   7.785  0.0153  0.0859  0.5973
12017SOL    HW137123   5.150   3.568   7.719 -1.3793 -0.8396 -0.1478
12017SOL    HW237124   5.236   3.531   7.838  0.1306  1.6221 -0.3967
12018SOL     OW37125   7.353   7.215   8.157  0.0657  0.1638  0.1005
12018SOL    HW137126   7.360   7.129   8.115 -0.0467 -0.3689  1.1322
12018SOL    HW237127   7.368   7.197   8.250 -2.1433  0.9344  0.6540
12019SOL     OW37128   1.845   1.313   5.206 -0.1214 -0.3609 -0.3046
12019SOL    HW137129   1.792   1.233   5.209 -0.2508 -0.2874 -0.6319
12019SOL    HW237130   1.878   1.323   5.295 -0.3092 -0.6424 -0.2026
12020SOL     OW37131   1.615   5.212   0.039 -0.5675  0.3805  0.2261
12020SOL    HW137132   1.596   5.303   0.016  0.2479  0.4106 -0.3634
12020SOL    HW237133   1.529   5.171   0.048 -0.9275  0.9387 -0.6142
12021SOL     OW37134   0.422   0.792   5.578 -0.1873 -0.1765 -0.3079
12021SOL    HW137135   0.454   0.711   5.617 -1.4810 -1.1077 -1.1047
12021SOL    HW237136   0.355   0.822   5.639  2.1599  1.8983  1.4848
12022SOL     OW37137   3.114   6.470   0.134 -0.2758  0.7600  0.3651
12022SOL    HW137138   3.019   6.466   0.139 -0.4788 -1.8709 -2.5174
12022SOL    HW237139   3.134   6.450   0.043  3.0816 -1.9452  1.4677
12023SOL     OW37140   7.346   6.204   7.972 -0.6621  0.3347 -0.2688
12023SOL    HW137141   7.375   6.295   7.971  1.4154 -0.2807 -0.7962
12023SOL    HW237142   7.408   6.159   7.916  0.0186 -1.8962  2.1156
12024SOL     OW37143   7.605   0.640   8.144  0.5119  0.2623  0.4874
12024SOL    HW137144   7.567   0.557   8.114 -0.6887  0.3483  1.6832
12024SOL    HW237145   7.684   0.650   8.092  1.3218 -2.2104  1.1106
12025SOL     OW37146   2.417   3.519   4.613  0.4825  0.3363 -0.0069
12025SOL    HW137147   2.424   3.453   4.543  3.5103  0.7001 -0.1994
12025SOL    HW237148   2.371   3.474   4.684 -1.7346 -0.3827 -1.7684
12026SOL     OW37149   0.525   2.202   7.506  0.4194  0.5902  0.0976
12026SOL    HW137150   0.464   2.199   7.431 -1.1108  1.2325  1.2575
12026SOL    HW237151   0.583   2.127   7.492 -1.1944 -0.6122 -0.6228
12027SOL     OW37152   0.388   5.362   7.956  0.7108 -0.3548  0.5065
12027SOL    HW137153   0.448   5.318   7.896  1.3256 -0.9637  1.5474
12027SOL    HW237154   0.439   5.437   7.990  1.3934 -1.5814  2.3507
12028SOL     OW37155   7.474   3.771   2.559  0.0314  0.8935 -0.4563
12028SOL    HW137156   7.505   3.852   2.518  3.4562  0.3180  0.5968
12028SOL    HW237157   7.510   3.701   2.504 -0.2694  0.1151  0.3089
12029SOL     OW37158   7.687   7.425   0.058 -0.1082  0.9149 -0.2829
12029SOL    HW137159   7.654   7.349   0.011  0.7351 -0.5572  1.3769
12029SOL    HW237160   7.756   7.390   0.115  1.6298  3.2174 -0.7915
12030SOL     OW37161   2.269   6.072   6.377  0.5834 -0.6399  0.3375
12030SOL    HW137162   2.293   5.979   6.375  0.1908 -0.7518  0.7245
12030SOL    HW237163   2.221   6.083   6.459 -0.2207 -0.3045 -0.1677
12031SOL     OW37164   5.273   3.925   4.292 -0.0618 -0.5040  0.5207
12031SOL    HW137165   5.351   3.870   4.284  0.5084  0.4750 -1.3305
12031SOL    HW237166   5.231   3.918   4.206 -1.9623 -0.8993  1.4489
12032SOL     OW37167   7.450   8.097   5.404  0.6573 -0.1314  0.1088
12032SOL    HW137168   7.398   8.170   5.435  1.4592  0.3790  0.2976
12032SOL    HW237169   7.399   8.019   5.425  0.3914  0.3065  1.1078
12033SOL     OW37170   1.859   6.259   3.125  0.0262 -0.0646  0.0816
12033SOL    HW137171   1.806   6.288   3.199  2.2017  3.2271  0.5721
12033SOL    HW237172   1.921   6.197   3.162 -0.5467 -0.4462  0.4252
12034SOL     OW37173   7.546   7.181   2.648 -0.2091  0.6092  0.1344
12034SOL    HW137174   7.496   7.102   2.668  1.2183 -0.0201  1.3761
12034SOL    HW237175   7.494   7.226   2.581 -1.2194 -1.1928 -0.3415
12035SOL     OW37176   5.953   7.141   2.528  0.3000 -0.1410  0.9034
12035SOL    HW137177   5.988   7.075   2.469  0.3412 -0.5342  1.3635
12035SOL    HW237178   5.902   7.200   2.471 -1.5023 -1.7441  0.7565
12036SOL     OW37179   5.973   4.341   8.090  0.1408  0.4050  0.0487
12036SOL    HW137180   5.911   4.414   8.083  1.6455  1.7575  0.1136
12036SOL    HW237181   5.969   4.297   8.005 -2.2570 -0.7510  0.6746
12037SOL     OW37182   3.865   3.805   0.053  0.2058 -0.0761 -0.2787
12037SOL    HW137183   3.819   3.721   0.048 -2.6636  1.4330 -1.7836
12037SOL    HW237184   3.887   3.816   0.145 -0.5094 -1.8859  0.1351
12038SOL     OW37185   6.342   0.117   0.307 -0.6974  0.7707  0.6916
12038SOL    HW137186   6.381   0.193   0.266 -1.2528  1.6948  1.8265
12038SOL    HW237187   6.405   0.046   0.292 -0.6269  1.1692 -1.2433
12039SOL     OW37188   3.269   5.237   2.203  0.8168 -0.2476  0.3454
12039SOL    HW137189   3.233   5.324   2.223  2.3655  0.3680  0.5668
12039SOL    HW237190   3.271   5.191   2.287 -1.2278 -1.0303  0.0350
12040SOL     OW37191   4.315   0.305   3.404  0.4546 -0.2779  0.2779
12040SOL    HW137192   4.373   0.229   3.410  0.7877 -0.1675 -1.1640
12040SOL    HW237193   4.274   0.311   3.491  1.3110 -1.3794  0.7851
12041SOL     OW37194   5.215   1.764   7.664  0.4103  0.5187 -0.3864
12041SOL    HW137195   5.213   1.671   7.683  0.6107  0.3394 -1.1817
12041SOL    HW237196   5.153   1.803   7.725 -0.7529 -0.3308 -0.9887
12042SOL     OW37197   3.846   1.104   4.008  0.5576  0.0330 -0.0553
12042SOL    HW137198   3.843   1.173   4.075  1.5664 -0.3391  0.3948
12042SOL    HW237199   3.883   1.146   3.931  2.9240 -0.3785  0.7622
12043SOL     OW37200   0.838   4.668   6.098  0.3924  0.2428 -0.1450
12043SOL    HW137201   0.797   4.660   6.012  0.1966 -0.4072  0.0010
12043SOL    HW237202   0.817   4.757   6.127 -0.8105 -0.0331 -0.1286
12044SOL     OW37203   7.321   2.509   0.268  0.5312  0.2966  0.0898
12044SOL    HW137204   7.361   2.589   0.234  0.5301 -0.2227 -1.2010
12044SOL    HW237205   7.369   2.439   0.224 -1.6401 -0.3582 -1.3513
12045SOL     OW37206   3.420   3.303   6.199 -0.6413  0.1959 -0.2780
12045SOL    HW137207   3.466   3.238   6.146 -0.5417  0.2778 -0.2912
12045SOL    HW237208   3.375   3.251   6.266 -0.5680  0.1124 -0.2929
12046SOL     OW37209   4.301   4.219   0.463  0.5526 -0.2927 -0.0884
12046SOL    HW137210   4.328   4.282   0.530  0.9997 -2.1487  1.5718
12046SOL    HW237211   4.363   4.232   0.391  1.0738  0.6511  0.5136
12047SOL     OW37212   5.305   5.844   5.026 -0.1944 -0.6230  0.3942
12047SOL    HW137213   5.226   5.850   4.972 -1.0330 -2.3501  1.3482
12047SOL    HW237214   5.287   5.903   5.100 -0.2518 -0.4100  0.2122
12048SOL     OW37215   2.777   7.577   4.837 -0.1276 -0.7705  0.2188
12048SOL    HW137216   2.733   7.655   4.871  1.8505 -0.0718  1.3522
12048SOL    HW237217   2.813   7.535   4.915  2.0016 -0.7510 -0.6762
12049SOL     OW37218   1.443   3.335   0.650  0.1944  0.7510  0.1022
12049SOL    HW137219   1.484   3.382   0.577  0.4135  1.3721  0.6101
12049SOL    HW237220   1.407   3.405   0.705 -0.9704  0.2397  0.0059
12050SOL     OW37221   2.143   1.359   3.643  0.2214 -0.3370 -0.0437
12050SOL    HW137222   2.050   1.374   3.629  0.4419 -0.1428 -1.4548
12050SOL    HW237223   2.150   1.266   3.663 -0.2355 -0.4296 -0.3097
12051SOL     OW37224   4.818   6.871   5.240  0.2628  0.0404 -0.3119
12051SOL    HW137225   4.904   6.907   5.261  0.1676  0.8369 -1.2302
12051SOL    HW237226   4.837   6.790   5.192  0.4991  0.0852 -0.2944
12052SOL     OW37227   2.596   6.244   1.409  0.1222 -0.3256  0.2566
12052SOL    HW137228   2.521   6.274   1.461 -0.4865  0.7710 -1.1819
12052SOL    HW237229   2.656   6.206   1.473  0.1544  2.3785  1.9990
12053SOL     OW37230   5.027   7.038   5.795 -0.7606  0.8169  0.3986
12053SOL    HW137231   5.071   7.023   5.879 -0.9287 -0.1663  0.3317
12053SOL    HW237232   4.934   7.032   5.816 -0.8587  2.1318  0.4059
12054SOL     OW37233   2.152   2.674   4.217  0.0240 -0.2100 -0.2840
12054SOL    HW137234   2.125   2.737   4.150  1.4567  2.4975  1.5005
12054SOL    HW237235   2.072   2.657   4.267 -0.4832 -0.2101 -1.0756
12055SOL     OW37236   7.386   1.937   6.230 -0.3338  0.1450  0.0268
12055SOL    HW137237   7.422   2.009   6.283  0.4380 -0.3972  0.2633
12055SOL    HW237238   7.301   1.920   6.269  0.5669 -0.8223  1.7150
12056SOL     OW37239   6.809   7.941   2.643 -0.1463 -0.4339 -0.0092
12056SOL    HW137240   6.756   7.863   2.659 -2.0052  0.6547 -0.6269
12056SOL    HW237241   6.751   8.014   2.662  1.1146  0.8153 -0.8041
12057SOL     OW37242   5.018   0.876   0.279 -0.3451  0.5285  0.6332
12057SOL    HW137243   5.105   0.844   0.257 -0.7265 -0.2307  0.1900
12057SOL    HW237244   5.033   0.949   0.338  0.5943  0.4705  0.4700
12058SOL     OW37245   6.317   0.913   4.593  1.0462 -0.1582  0.3541
12058SOL    HW137246   6.329   0.988   4.650  0.8071  0.7416 -0.7357
12058SOL    HW237247   6.222   0.907   4.581  1.1270  0.1068 -0.4961
12059SOL     OW37248   6.054   7.529   3.193 -0.1340 -0.0343  0.0139
12059SOL    HW137249   6.027   7.463   3.257  0.5987  0.5135  0.9125
12059SOL    HW237250   6.143   7.503   3.169 -0.4892 -0.3783 -0.9987
12060SOL     OW37251   4.133   2.624   2.048 -0.1271 -0.2386  0.0927
12060SOL    HW137252   4.218   2.608   2.089 -1.4723 -1.0774  2.7647
12060SOL    HW237253   4.148   2.606   1.955  2.6724  0.0155  0.3902
12061SOL     OW37254   6.411   3.796   6.166 -0.9528 -0.2984  0.3795
12061SOL    HW137255   6.487   3.778   6.221 -0.2786  0.5734 -0.2289
12061SOL    HW237256   6.356   3.854   6.218  0.5909  2.0869 -0.4997
12062SOL     OW37257   7.276   5.919   1.904  0.5119 -0.0438  0.5555
12062SOL    HW137258   7.226   5.839   1.886 -1.1220  1.0288  0.0212
12062SOL    HW237259   7.272   5.968   1.822  0.5776  1.0358  1.1769
12063SOL     OW37260   5.601   1.365   0.814 -0.2007  0.2048 -0.2479
12063SOL    HW137261   5.548   1.442   0.833  0.7872  0.6647  0.7714
12063SOL    HW237262   5.691   1.394   0.827  0.1938 -1.1321  0.1930
12064SOL     OW37263   2.734   3.287   4.166  0.0611  0.1503 -0.3347
12064SOL    HW137264   2.699   3.376   4.175  0.5776  0.4378 -1.0518
12064SOL    HW237265   2.672   3.243   4.109 -0.3201 -0.0256  0.2095
12065SOL     OW37266   4.728   1.634   2.836  0.2206  0.1993  0.0430
12065SOL    HW137267   4.760   1.549   2.865  0.3322  0.2316  0.0133
12065SOL    HW237268   4.648   1.648   2.887  0.4777  0.3077  0.4201
12066SOL     OW37269   3.320   0.219   7.124  0.5189  0.2339  0.0312
12066SOL    HW137270   3.285   0.308   7.136 -0.0957 -0.0413  0.3373
12066SOL    HW237271   3.298   0.196   7.034  1.0967  0.5690 -0.1987
12067SOL     OW37272   1.817   6.769   6.850 -0.2725 -0.0410  0.2764
12067SOL    HW137273   1.910   6.781   6.870 -0.2450  0.0871  0.0759
12067SOL    HW237274   1.805   6.674   6.847 -0.5923 -0.1216  2.3802
12068SOL     OW37275   0.676   7.874   5.547 -0.2246  0.1286 -0.2528
12068SOL    HW137276   0.733   7.899   5.620 -2.1465  2.6876  0.5294
12068SOL    HW237277   0.603   7.828   5.589 -0.6717  0.3970 -0.7332
12069SOL     OW37278   7.264   0.364   6.944  0.7280 -0.2489 -0.3155
12069SOL    HW137279   7.346   0.414   6.942  0.3304  0.4712  0.6640
12069SOL    HW237280   7.235   0.369   7.035 -0.8586  0.2711 -0.8127
12070SOL     OW37281   2.405   3.613   7.737  0.3144  0.6663 -0.2943
12070SOL    HW137282   2.453   3.672   7.678  0.3436  1.2583  0.3062
12070SOL    HW237283   2.410   3.528   7.695  3.2656  0.3459  0.5070
12071SOL     OW37284   4.316   3.362   7.781  0.2202 -0.2287  0.5438
12071SOL    HW137285   4.250   3.295   7.760  0.7596 -0.0783 -1.9066
12071SOL    HW237286   4.265   3.442   7.793 -0.3067 -0.7579  2.2332
12072SOL     OW37287   0.860   4.075   7.217 -0.1330  0.5732 -0.1342
12072SOL    HW137288   0.832   4.152   7.168  1.5020  0.9308 -0.5643
12072SOL    HW237289   0.824   4.001   7.167 -1.2131  1.0123 -0.0435
12073SOL     OW37290   3.217   2.266   6.581  0.7801  0.4205 -0.8206
12073SOL    HW137291   3.232   2.172   6.571 -0.6826  0.2187 -1.4880
12073SOL    HW237292   3.123   2.277   6.562  0.9430  2.0226 -0.8277
12074SOL     OW37293   1.511   0.726   3.231 -0.1292 -0.5138 -0.1716
12074SOL    HW137294   1.515   0.644   3.279  0.5192 -0.8078 -0.7197
12074SOL    HW237295   1.435   0.772   3.268  0.2564 -0.8012  1.0137
12075SOL     OW37296   7.576   4.963   1.666  0.3111 -0.4213 -0.4589
12075SOL    HW137297   7.667   4.979   1.639  0.6237 -0.7427  0.3741
12075SOL    HW237298   7.577   4.974   1.761 -0.0312 -2.6360 -0.1485
12076SOL     OW37299   6.561   7.942   1.955 -0.1450  0.3505  0.7474
12076SOL    HW137300   6.514   8.001   2.013  1.4271  1.0051  1.4167
12076SOL    HW237301   6.608   7.883   2.014  0.6621  0.3616  0.1345
12077SOL     OW37302   3.222   6.026   1.042 -0.0389  0.3989  0.0870
12077SOL    HW137303   3.225   5.978   0.959 -1.5761 -0.3441  0.4288
12077SOL    HW237304   3.274   6.105   1.026 -0.7993  0.5679 -1.7829
12078SOL     OW37305   1.880   7.258   2.955  0.3582 -0.0258 -0.5068
12078SOL    HW137306   1.838   7.191   3.009 -1.0706 -0.0250 -1.5538
12078SOL    HW237307   1.832   7.339   2.977 -0.3176 -0.0457 -1.8061
12079SOL     OW37308   8.131   6.623   6.175  0.2435  0.1304 -0.0106
12079SOL    HW137309   8.049   6.654   6.136  0.6845  2.3250  0.6140
12079SOL    HW237310   8.199   6.657   6.118  0.7694 -2.0970 -0.7964
12080SOL     OW37311   5.240   5.592   3.301  0.2969 -0.0898  0.5779
12080SOL    HW137312   5.268   5.500   3.299  0.1721 -0.1646  1.7771
12080SOL    HW237313   5.320   5.641   3.280 -0.0517 -0.5073 -2.0011
12081SOL     OW37314   8.098   7.862   4.321 -0.0268  0.0488 -0.1426
12081SOL    HW137315   8.189   7.889   4.334 -0.6867  2.5100 -0.1277
12081SOL    HW237316   8.090   7.779   4.368  2.1547 -0.1479 -0.0260
12082SOL     OW37317   7.903   8.109   7.138  0.0805  0.1236 -0.1308
12082SOL    HW137318   7.825   8.079   7.184 -0.0134  1.0595  0.3549
12082SOL    HW237319   7.976   8.080   7.193 -0.0781  3.1301  1.9253
12083SOL     OW37320   5.237   1.044   4.866  0.3229 -0.1595 -0.1236
12083SOL    HW137321   5.266   1.132   4.890 -1.9172  0.7304 -0.4048
12083SOL    HW237322   5.312   0.987   4.885  0.6630  1.2532  3.4827
12084SOL     OW37323   7.540   3.338   0.702 -0.3385 -0.6095  0.1800
12084SOL    HW137324   7.557   3.271   0.768 -2.5089  0.4111  1.9256
12084SOL    HW237325   7.453   3.318   0.668  0.4132 -0.6456 -1.8722
12085SOL     OW37326   7.282   4.911   7.916  0.4077 -0.2244 -0.5468
12085SOL    HW137327   7.233   4.925   7.835  0.3940 -1.5487 -0.7929
12085SOL    HW237328   7.230   4.848   7.966 -0.3187  1.6298  1.1955
12086SOL     OW37329   5.218   3.157   7.439 -0.1565  0.0111 -0.1520
12086SOL    HW137330   5.210   3.233   7.496  1.6538  0.8895 -1.0036
12086SOL    HW237331   5.237   3.085   7.499  3.4043  1.2020  0.3926
12087SOL     OW37332   5.456   5.241   8.038  0.1709 -0.2421  0.0998
12087SOL    HW137333   5.390   5.228   7.970  0.5684 -0.1170 -0.3094
12087SOL    HW237334   5.519   5.171   8.025 -0.6695 -1.3090  1.4522
12088SOL     OW37335   7.092   8.151   7.273 -0.1055  0.3216 -0.7664
12088SOL    HW137336   7.062   8.187   7.356  0.7276 -0.2676 -0.1913
12088SOL    HW237337   7.174   8.197   7.255 -0.1726  0.2903 -1.1527
12089SOL     OW37338   0.452   6.308   7.127 -0.6176  0.4579  0.0447
12089SOL    HW137339   0.491   6.223   7.107 -0.3713  0.7863 -0.9380
12089SOL    HW237340   0.511   6.371   7.085 -0.6121  1.1395  1.0451
12090SOL     OW37341   1.266   3.924   4.618 -0.0651  0.6760 -0.3885
12090SOL    HW137342   1.227   3.960   4.697  0.6403  1.7003 -0.4948
12090SOL    HW237343   1.301   3.839   4.644  1.0383  1.4282  0.6571
12091SOL     OW37344   1.720   0.774   3.629  0.0320  0.0698  0.1572
12091SOL    HW137345   1.655   0.707   3.654 -1.4224  0.6721 -1.7345
12091SOL    HW237346   1.762   0.738   3.551 -0.7152  1.2559 -0.8423
12092SOL     OW37347   2.569   5.449   4.730 -0.3470 -0.3136 -0.0478
12092SOL    HW137348   2.584   5.360   4.700 -0.0021 -0.2927  0.0564
12092SOL    HW237349   2.544   5.497   4.651 -2.2028 -0.8551  0.1604
12093SOL     OW37350   1.702   7.833   7.347 -0.1212  0.2891 -0.2514
12093SOL    HW137351   1.791   7.799   7.348 -0.2460 -0.4060 -3.2472
12093SOL    HW237352   1.711   7.922   7.311 -0.5636  0.5858  0.3516
12094SOL     OW37353   3.787   7.602   8.086 -0.8702 -0.2667 -0.1240
12094SOL    HW137354   3.740   7.526   8.119 -0.8436 -0.0701  0.3729
12094SOL    HW237355   3.791   7.588   7.991 -0.2400 -1.2477  0.0234
12095SOL     OW37356   4.362   1.075   1.613  0.0413  0.2902  0.2629
12095SOL    HW137357   4.327   1.066   1.701  0.2422 -0.4566  0.2722
12095SOL    HW237358   4.391   1.166   1.608 -0.8940  0.6170  0.6132
12096SOL     OW37359   2.128   2.256   3.820  0.3750 -0.1526 -0.3971
12096SOL    HW137360   2.066   2.300   3.878  0.1354 -0.5183 -0.3722
12096SOL    HW237361   2.174   2.195   3.877  1.3675  0.7221 -0.2389
12097SOL     OW37362   1.054   4.786   1.853  0.4144 -0.0802 -0.0583
12097SOL    HW137363   0.981   4.729   1.828 -0.2024  0.4054  0.5806
12097SOL    HW237364   1.117   4.777   1.782 -0.0838 -0.8333 -0.4195
12098SOL     OW37365   6.094   0.251   0.332 -0.3322  0.6000  0.1625
12098SOL    HW137366   6.169   0.222   0.280 -0.8633  0.1141 -0.3391
12098SOL    HW237367   6.095   0.347   0.324 -0.2422  0.5450 -0.5169
12099SOL     OW37368   3.585   5.016   7.119 -0.3257  0.8946  0.1444
12099SOL    HW137369   3.528   5.045   7.048  0.0264  0.1920 -0.4361
12099SOL    HW237370   3.612   4.927   7.094  0.6079  1.0157  0.6640
12100SOL     OW37371   0.092   6.504   4.189  0.5790  0.1220 -0.1847
12100SOL    HW137372   0.091   6.471   4.279 -2.5552  1.0075  0.2496
12100SOL    HW237373   0.028   6.450   4.143  0.3595  1.2149 -1.2165
12101SOL     OW37374   5.281   6.961   6.620 -0.6968 -0.3906 -0.3366
12101SOL    HW137375   5.316   6.893   6.563 -0.5487 -0.4877 -0.1313
12101SOL    HW237376   5.351   7.027   6.624 -0.7591 -0.3226 -0.3718
12102SOL     OW37377   6.816   6.804   7.816  0.2368  0.2283 -0.7450
12102SOL    HW137378   6.810   6.713   7.847 -0.1437  0.6666  0.5304
12102SOL    HW237379   6.843   6.796   7.725 -0.0739 -1.1807 -0.7400
12103SOL     OW37380   1.225   6.449   3.378 -0.3441  0.3439  0.5056
12103SOL    HW137381   1.145   6.495   3.406  0.1823  0.4037  2.0458
12103SOL    HW237382   1.290   6.518   3.370  0.5012 -0.0496  3.0145
12104SOL     OW37383   0.008   6.450   2.793  0.4952 -0.2116  0.1946
12104SOL    HW137384  -0.077   6.491   2.775  0.3796 -0.7650 -0.5714
12104SOL    HW237385   0.053   6.451   2.709  1.5774  0.7930  0.7684
12105SOL     OW37386   3.358   3.952   2.843  0.1503  0.1354 -0.1747
12105SOL    HW137387   3.436   3.975   2.792  0.7100 -1.6544 -0.1837
12105SOL    HW237388   3.367   4.003   2.924  1.0436  0.3742 -0.4077
12106SOL     OW37389   6.039   2.177   7.633 -0.6460 -0.7301 -0.3808
12106SOL    HW137390   5.983   2.248   7.604 -0.3430 -0.0541  0.6413
12106SOL    HW237391   6.022   2.170   7.727  1.5345  0.0361  0.1206
12107SOL     OW37392   0.961   0.742   1.494 -0.7579 -0.2935  0.5387
12107SOL    HW137393   1.024   0.676   1.465 -0.9084 -0.8188  1.3611
12107SOL    HW237394   1.002   0.781   1.571 -0.1687  1.3709 -0.5686
12108SOL     OW37395   6.802   4.542   3.017 -0.1811  0.8028 -0.2320
12108SOL    HW137396   6.817   4.617   3.074 -2.6386  2.0708 -1.0961
12108SOL    HW237397   6.864   4.554   2.945  2.8477 -0.7345  1.9087
12109SOL     OW37398   1.391   5.614   4.641 -0.0062 -0.6584  0.6403
12109SOL    HW137399   1.469   5.640   4.690 -0.0743 -1.4856  1.1959
12109SOL    HW237400   1.423   5.551   4.576  0.3696  1.5943 -1.5315
12110SOL     OW37401   5.070   4.626   2.589 -0.0098  0.0240  0.3824
12110SOL    HW137402   5.166   4.633   2.592  0.2310 -2.0509 -0.5825
12110SOL    HW237403   5.041   4.652   2.677  1.6083 -1.0102  1.2793
12111SOL     OW37404   6.302   3.134   8.079 -0.0175  0.1556  0.6842
12111SOL    HW137405   6.361   3.085   8.136  1.0023  0.6015  0.0378
12111SOL    HW237406   6.223   3.145   8.131  0.4236 -0.5487  1.5329
12112SOL     OW37407   5.767   3.941   2.525  0.2740  0.3191  0.6133
12112SOL    HW137408   5.765   3.996   2.446 -1.7748 -1.6637 -0.8566
12112SOL    HW237409   5.700   3.979   2.582  0.0585  0.3415  0.3469
12113SOL     OW37410   4.440   4.912   2.247 -0.4852  0.8957  0.0824
12113SOL    HW137411   4.466   4.887   2.158 -0.8513 -0.3225  0.2968
12113SOL    HW237412   4.354   4.871   2.259  0.3218 -0.4472  1.6032
12114SOL     OW37413   1.456   4.253   6.309 -0.3244 -0.3111  0.0283
12114SOL    HW137414   1.399   4.248   6.232 -0.4001 -1.2322  0.1297
12114SOL    HW237415   1.532   4.199   6.285  0.6735  1.1733 -0.2392
12115SOL     OW37416   6.006   7.671   3.997  0.2686 -0.1197 -1.0612
12115SOL    HW137417   6.001   7.766   3.990 -0.3592  0.0412  0.8337
12115SOL    HW237418   6.067   7.644   3.929  0.1707  1.5976 -1.8677
12116SOL     OW37419   5.166   2.394   2.978 -0.3641  0.7557 -0.9781
12116SOL    HW137420   5.262   2.387   2.970 -0.2062  0.8926  0.5281
12116SOL    HW237421   5.142   2.466   2.919  0.4704  0.7510 -1.3348
12117SOL     OW37422   6.275   0.705   5.918 -0.1512  0.0088  0.4188
12117SOL    HW137423   6.352   0.686   5.971  1.3112  1.4643 -1.0538
12117SOL    HW237424   6.253   0.796   5.940  1.5187  1.2701 -2.4896
12118SOL     OW37425   3.664   7.008   5.135  0.8664 -0.2450 -0.3788
12118SOL    HW137426   3.724   6.958   5.079 -1.1589 -1.4854 -1.5422
12118SOL    HW237427   3.610   7.058   5.074 -1.6774 -1.9371  0.3230
12119SOL     OW37428   7.466   4.824   7.014 -0.1505 -0.3262  0.3030
12119SOL    HW137429   7.388   4.783   6.976 -0.8997  0.8244  0.5480
12119SOL    HW237430   7.460   4.803   7.108 -1.4220  1.6438  0.7129
12120SOL     OW37431   0.911   6.186   7.880  0.2700 -0.0486  0.0952
12120SOL    HW137432   0.972   6.236   7.934  0.7780  1.5601 -1.8374
12120SOL    HW237433   0.828   6.190   7.927  0.4885  2.0147  0.3971
12121SOL     OW37434   1.812   5.167   5.919  0.1616 -0.2301  0.2163
12121SOL    HW137435   1.772   5.189   6.003  0.7644 -0.4985  0.5804
12121SOL    HW237436   1.886   5.228   5.910 -0.9131  0.9714 -0.9414
12122SOL     OW37437   4.509   1.980   2.966  0.4341  0.3543 -0.0487
12122SOL    HW137438   4.421   2.016   2.978  0.5400 -0.0164  2.6210
12122SOL    HW237439   4.564   2.034   3.024  1.3806 -1.2880  0.6501
12123SOL     OW37440   4.715   1.886   6.286 -0.3056  0.0175  0.7023
12123SOL    HW137441   4.687   1.872   6.196  1.7820 -1.0456  0.1674
12123SOL    HW237442   4.720   1.981   6.295  0.4072  0.1203 -0.6208
12124SOL     OW37443   0.234   1.413   1.068 -0.1233  0.1917 -0.1603
12124SOL    HW137444   0.162   1.470   1.098  0.4776  0.5092  0.7237
12124SOL    HW237445   0.279   1.464   1.001 -2.4247 -1.1291 -2.9154
12125SOL     OW37446   3.965   4.775   6.339 -0.1533 -0.0365  1.1179
12125SOL    HW137447   4.033   4.840   6.358  0.2568 -0.0990 -0.0988
12125SOL    HW237448   4.012   4.703   6.297 -0.9107 -0.2635  0.6514
12126SOL     OW37449   6.658   5.513   1.899 -0.6073  0.3450  0.1028
12126SOL    HW137450   6.723   5.460   1.945 -0.3388 -0.7565 -1.4525
12126SOL    HW237451   6.598   5.449   1.860  0.4390  1.0220 -2.9163
12127SOL     OW37452   4.763   2.546   4.647 -0.2486  0.0609 -0.4153
12127SOL    HW137453   4.703   2.477   4.619  1.5366 -1.5760 -0.4381
12127SOL    HW237454   4.836   2.540   4.586  1.2598  0.0180  1.2921
12128SOL     OW37455   0.484   0.875   4.043  0.2408 -0.2026  0.1066
12128SOL    HW137456   0.549   0.833   4.100  1.0528  0.1709 -0.5235
12128SOL    HW237457   0.494   0.969   4.059  2.1694  0.1047 -2.3293
12129SOL     OW37458   1.921   1.664   6.200 -0.3433  0.3587  0.1095
12129SOL    HW137459   1.947   1.609   6.126 -1.4514  0.8606 -0.6684
12129SOL    HW237460   1.960   1.749   6.182 -0.2548  0.3636  0.3220
12130SOL     OW37461   5.344   1.021   7.201  0.2457 -0.1899  0.6952
12130SOL    HW137462   5.301   0.958   7.142  1.7826 -0.7933  0.1531
12130SOL    HW237463   5.285   1.096   7.203  0.1888 -0.0666 -1.7947
12131SOL     OW37464   5.949   1.487   6.670  0.2142  0.3625  0.3915
12131SOL    HW137465   5.988   1.517   6.752 -2.6790  0.3625  1.8935
12131SOL    HW237466   5.909   1.403   6.691  1.4138 -0.8093 -1.6950
12132SOL     OW37467   6.583   2.861   6.674 -0.0426  0.7267  0.1648
12132SOL    HW137468   6.594   2.826   6.586 -1.6541  2.1663 -0.6726
12132SOL    HW237469   6.672   2.870   6.707  0.7183  1.5415 -1.9062
12133SOL     OW37470   7.786   2.532   6.349  0.0048  0.0241 -0.3977
12133SOL    HW137471   7.758   2.502   6.262 -0.2536 -1.8139  0.2786
12133SOL    HW237472   7.869   2.486   6.364  0.2203  0.6038  0.1944
12134SOL     OW37473   5.521   4.851   3.917  0.0672  0.2072  0.0962
12134SOL    HW137474   5.600   4.853   3.971  0.0607  2.6289  0.1222
12134SOL    HW237475   5.451   4.829   3.978  0.4152  0.3409  0.5468
12135SOL     OW37476   7.464   4.539   1.114 -0.6454  0.3843  0.2067
12135SOL    HW137477   7.400   4.475   1.145 -0.3501  1.5744  3.7620
12135SOL    HW237478   7.415   4.622   1.110  0.3003  1.0366  1.5884
12136SOL     OW37479   7.975   7.565   7.232 -0.3225  0.5188  0.2923
12136SOL    HW137480   8.057   7.517   7.224  0.7220  2.0131  1.5620
12136SOL    HW237481   7.974   7.623   7.156  0.6738  1.6971  1.1306
12137SOL     OW37482   0.584   1.991   5.379 -0.2040  0.2560 -0.2472
12137SOL    HW137483   0.660   1.935   5.397  0.5297  1.7054  1.5823
12137SOL    HW237484   0.528   1.981   5.456 -0.9832  0.5949 -0.7584
12138SOL     OW37485   3.084   6.827   6.516  0.0610 -0.1081  0.1982
12138SOL    HW137486   3.008   6.854   6.568 -0.4651  1.5780 -1.3406
12138SOL    HW237487   3.067   6.734   6.496 -3.6498  0.9883 -3.1573
12139SOL     OW37488   5.307   2.092   7.464  0.5111 -0.0976 -0.0233
12139SOL    HW137489   5.224   2.086   7.416 -0.7439 -0.7452  2.0874
12139SOL    HW237490   5.359   2.156   7.414 -1.5705  0.9527 -0.9823
12140SOL     OW37491   6.824   6.133   3.387 -0.3091 -0.4286  0.5120
12140SOL    HW137492   6.886   6.205   3.385 -0.6807 -0.1096  0.4613
12140SOL    HW237493   6.752   6.162   3.332 -0.1524 -1.1215 -0.0711
12141SOL     OW37494   0.654   4.081   7.613 -0.3484 -0.0550 -0.0218
12141SOL    HW137495   0.621   4.052   7.528 -0.1042  1.1364 -0.5355
12141SOL    HW237496   0.600   4.034   7.676 -0.7205 -0.7439 -0.8364
12142SOL     OW37497   7.160   2.244   0.703 -0.3207 -0.1143  0.2583
12142SOL    HW137498   7.194   2.312   0.644 -0.6131  0.5806  0.8699
12142SOL    HW237499   7.223   2.241   0.775  0.2567 -1.2501 -0.2710
12143SOL     OW37500   1.870   4.181   1.961 -0.6276 -0.1430 -0.9355
12143SOL    HW137501   1.858   4.196   1.867  0.3753  0.1548 -1.0208
12143SOL    HW237502   1.882   4.268   1.998 -1.7185 -0.1905 -0.4079
12144SOL     OW37503   6.036   8.090   6.338 -0.0000  0.1871 -0.4207
12144SOL    HW137504   6.014   7.997   6.327 -0.4506  0.4283 -1.7954
12144SOL    HW237505   6.124   8.099   6.302  0.3164  0.1620  0.3532
12145SOL     OW37506   7.081   5.390   5.872 -0.5112  0.2606  0.0433
12145SOL    HW137507   7.072   5.297   5.850 -0.8686  0.3949 -0.3891
12145SOL    HW237508   7.172   5.410   5.851 -0.2018 -0.1955  0.9284
12146SOL     OW37509   5.445   0.840   7.850 -0.3680  0.2389 -0.2022
12146SOL    HW137510   5.524   0.830   7.796 -0.3149 -1.4316  0.1393
12146SOL    HW237511   5.445   0.764   7.908 -1.6638  0.7847  0.5707
12147SOL     OW37512   0.237   6.853   7.708  0.0093 -0.1467  0.4003
12147SOL    HW137513   0.187   6.926   7.672  1.2637  1.4575  1.7251
12147SOL    HW237514   0.214   6.852   7.801  0.4583 -1.0606  0.5084
12148SOL     OW37515   5.326   6.815   1.643 -0.1963 -0.2910  0.5830
12148SOL    HW137516   5.353   6.794   1.554 -1.2744 -0.2800  0.2372
12148SOL    HW237517   5.326   6.911   1.647  0.6172 -0.2966  0.8473
12149SOL     OW37518   0.736   2.974   7.483 -0.6394  0.4355  0.2290
12149SOL    HW137519   0.751   2.998   7.391 -1.1689  2.6852  0.6851
12149SOL    HW237520   0.680   2.896   7.478  2.3021 -1.7744 -1.3369
12150SOL     OW37521   0.167   7.319   8.113  0.0786 -0.2518  0.0381
12150SOL    HW137522   0.195   7.350   8.199  1.6720  0.2097 -0.6099
12150SOL    HW237523   0.074   7.301   8.123  0.0868  0.4408  1.6662
12151SOL     OW37524   4.303   6.766   4.447 -0.3477  0.0804 -0.6515
12151SOL    HW137525   4.358   6.829   4.402 -0.9905  0.8722 -0.3606
12151SOL    HW237526   4.245   6.819   4.501  1.7264 -0.8341  2.7756
12152SOL     OW37527   7.610   8.089   2.622 -0.3977  0.0779 -0.2911
12152SOL    HW137528   7.689   8.062   2.575 -0.7928 -0.4522 -0.6683
12152SOL    HW237529   7.632   8.174   2.660 -0.3580  0.9564 -2.1868
12153SOL     OW37530   2.550   2.951   4.079  0.1987 -0.1639  0.2531
12153SOL    HW137531   2.554   2.859   4.053  1.9927 -0.0208 -0.1480
12153SOL    HW237532   2.482   2.955   4.145 -1.2175 -1.4274 -1.0570
12154SOL     OW37533   3.356   1.673   6.849 -0.0968  0.7472 -0.4085
12154SOL    HW137534   3.323   1.585   6.833  0.4082  0.2276  1.1815
12154SOL    HW237535   3.451   1.662   6.856 -0.1716  1.0571  1.6744
12155SOL     OW37536   7.969   1.900   0.257 -0.0669 -0.1918  0.6215
12155SOL    HW137537   7.938   1.990   0.257 -1.8035 -0.7413  1.4929
12155SOL    HW237538   7.950   1.868   0.169  0.4697  0.2432  0.3391
12156SOL     OW37539   6.661   6.232   0.362  0.2193 -0.2412  0.2118
12156SOL    HW137540   6.671   6.201   0.272 -1.3378  1.4551 -0.6138
12156SOL    HW237541   6.580   6.191   0.393  0.5358 -0.5000  0.7277
12157SOL     OW37542   0.976   3.427   3.245  0.1436 -0.2718  0.1390
12157SOL    HW137543   0.886   3.430   3.277  0.1497 -2.1729  0.4377
12157SOL    HW237544   1.029   3.407   3.322  0.9312  1.4493  0.0882
12158SOL     OW37545   5.291   7.166   4.045  0.4540 -0.4513 -0.2385
12158SOL    HW137546   5.267   7.073   4.041  1.0544 -0.6850  1.2190
12158SOL    HW237547   5.260   7.195   4.131  2.3584  0.0920  0.3026
12159SOL     OW37548   1.014   0.740   3.305 -0.0303 -0.2455  0.0146
12159SOL    HW137549   0.918   0.735   3.300 -0.0429 -2.0966  1.2036
12159SOL    HW237550   1.042   0.753   3.214 -1.3423 -1.7083 -0.6495
12160SOL     OW37551   6.448   0.416   0.344 -0.4418 -0.0802  0.1739
12160SOL    HW137552   6.367   0.441   0.387  0.7171  1.3083  1.6558
12160SOL    HW237553   6.490   0.355   0.405  0.4882  0.6862  0.3230
12161SOL     OW37554   0.758   3.432   2.770 -0.3842 -0.1126  0.5206
12161SOL    HW137555   0.693   3.363   2.780 -1.6096  1.0634  0.9974
12161SOL    HW237556   0.832   3.389   2.726 -0.1314 -2.2827  2.8307
12162SOL     OW37557   6.472   4.885   4.995 -0.2024 -0.2728  0.0098
12162SOL    HW137558   6.554   4.918   5.031  0.6458  0.1489 -2.1892
12162SOL    HW237559   6.407   4.952   5.016  0.6625  0.8682 -0.8786
12163SOL     OW37560   7.039   4.423   6.415  0.3199  0.1917  0.3384
12163SOL    HW137561   7.132   4.430   6.436  0.4255  1.3855 -0.4182
12163SOL    HW237562   6.994   4.443   6.497  0.7345  3.0553 -0.0172
12164SOL     OW37563   7.011   0.611   7.770 -0.1299  0.2239 -0.3552
12164SOL    HW137564   6.986   0.684   7.827 -0.2755 -0.1582  0.0745
12164SOL    HW237565   6.982   0.533   7.817  0.7504 -0.1605 -0.4414
12165SOL     OW37566   8.140   4.354   3.960  0.1427 -0.2208  0.3698
12165SOL    HW137567   8.085   4.292   3.912 -0.5213  1.5949 -1.3537
12165SOL    HW237568   8.185   4.404   3.892  0.9512  0.9402  1.6917
12166SOL     OW37569   6.041   6.143   5.143  0.3607 -0.1173 -0.3127
12166SOL    HW137570   6.093   6.206   5.094  0.4579 -0.1122 -0.2029
12166SOL    HW237571   6.028   6.070   5.082 -2.6111  1.3672 -1.7031
12167SOL     OW37572   0.569   2.226   4.071  0.0551 -0.4192  0.1779
12167SOL    HW137573   0.512   2.277   4.015  1.4773  0.3322 -0.6339
12167SOL    HW237574   0.538   2.136   4.062 -2.1320  0.1709  1.2019
12168SOL     OW37575   0.385   1.555   1.758  0.2624 -0.7655  0.3641
12168SOL    HW137576   0.433   1.625   1.713 -2.2575  0.4173 -0.6509
12168SOL    HW237577   0.440   1.534   1.834  2.2094  0.6875 -0.5497
12169SOL     OW37578   2.829   1.426   5.494  0.1411  0.2488 -0.0211
12169SOL    HW137579   2.803   1.344   5.452 -0.8016  0.1746  0.6813
12169SOL    HW237580   2.808   1.414   5.586 -2.2186  2.1119 -0.2235
12170SOL     OW37581   3.556   1.864   1.201  0.1294 -0.1099  0.2623
12170SOL    HW137582   3.468   1.853   1.236 -0.6952  2.2282 -0.8661
12170SOL    HW237583   3.612   1.873   1.278 -1.1096  1.4924  1.0226
12171SOL     OW37584   4.902   5.161   4.068 -0.1100  0.0103  0.1427
12171SOL    HW137585   4.987   5.118   4.062  0.5753  1.3058  0.3611
12171SOL    HW237586   4.921   5.249   4.101 -1.2226  1.2545 -2.2537
12172SOL     OW37587   4.870   3.857   5.036  0.2987  0.2719  0.2284
12172SOL    HW137588   4.926   3.878   5.110  1.1800 -0.1811 -0.2848
12172SOL    HW237589   4.855   3.762   5.043  0.3746  0.2273 -0.1452
12173SOL     OW37590   5.543   2.261   2.173  0.4292 -0.6369 -0.4892
12173SOL    HW137591   5.451   2.239   2.163  0.5803 -0.9887 -1.1995
12173SOL    HW237592   5.565   2.310   2.093  0.4848  0.7955  0.3740
12174SOL     OW37593   0.075   7.712   3.875  0.1171  0.0701 -0.0217
12174SOL    HW137594   0.107   7.644   3.933  1.1527  0.1268 -0.5010
12174SOL    HW237595  -0.013   7.732   3.907  0.8664  0.5003  1.8782
12175SOL     OW37596   5.096   6.525   5.388 -0.4872  0.3032  0.5776
12175SOL    HW137597   5.076   6.471   5.464  0.3622  1.1418  1.4215
12175SOL    HW237598   5.189   6.546   5.397 -0.0021 -0.6847 -1.4138
12176SOL     OW37599   5.211   1.017   7.531 -0.4990 -1.2392 -0.0598
12176SOL    HW137600   5.301   1.010   7.498  0.7063  0.2105  2.5371
12176SOL    HW237601   5.171   0.933   7.510  1.7504 -2.2521 -0.6101
12177SOL     OW37602   1.192   3.826   0.247  0.3433 -0.5835  0.4780
12177SOL    HW137603   1.105   3.805   0.280 -1.0786 -0.7701 -2.9759
12177SOL    HW237604   1.221   3.748   0.201  0.9698  0.4796 -1.0278
12178SOL     OW37605   2.650   2.435   2.534 -0.0054  0.0474 -0.1917
12178SOL    HW137606   2.665   2.388   2.616 -0.1477  1.7165  0.8382
12178SOL    HW237607   2.580   2.497   2.553 -1.2337 -0.6736 -2.0807
12179SOL     OW37608   4.899   7.180   7.675 -0.0660  0.0507  0.3938
12179SOL    HW137609   4.852   7.120   7.617  0.9382  0.2522 -0.6672
12179SOL    HW237610   4.830   7.231   7.717 -0.8688 -0.8067  0.1776
12180SOL     OW37611   7.250   2.153   3.552  0.3074 -0.6577 -0.3104
12180SOL    HW137612   7.171   2.171   3.603 -0.0878 -0.6822 -0.9080
12180SOL    HW237613   7.311   2.223   3.576  0.2360 -0.8357  0.4124
12181SOL     OW37614   4.288   1.755   1.076 -0.3684  0.0197 -0.4518
12181SOL    HW137615   4.294   1.842   1.037  0.6618 -0.4136 -1.3360
12181SOL    HW237616   4.293   1.695   1.001 -2.4183 -0.8023  0.0104
12182SOL     OW37617   1.691   6.447   1.592 -0.0355  0.0591  0.2396
12182SOL    HW137618   1.773   6.497   1.593  0.0480 -0.0106 -1.2315
12182SOL    HW237619   1.629   6.503   1.547 -0.4965 -0.3522  0.3569
12183SOL     OW37620   7.885   5.158   2.761 -0.0632 -0.1756 -0.3973
12183SOL    HW137621   7.806   5.207   2.738  0.0831  0.1337 -0.2572
12183SOL    HW237622   7.944   5.224   2.799  0.3406 -0.3638 -0.6868
12184SOL     OW37623   8.155   5.752   4.898  0.0609 -0.1210  0.2669
12184SOL    HW137624   8.170   5.814   4.970 -0.5304 -0.8315  1.0208
12184SOL    HW237625   8.156   5.666   4.940 -1.6946 -0.4735 -0.3231
12185SOL     OW37626   3.809   6.422   2.761 -0.5240  0.0604  0.3917
12185SOL    HW137627   3.897   6.409   2.795 -0.5604  1.2392  0.9824
12185SOL    HW237628   3.815   6.400   2.668  0.5697  0.8240  0.2678
12186SOL     OW37629   5.174   2.609   5.696 -0.0036  0.2264  0.0020
12186SOL    HW137630   5.139   2.520   5.689 -0.1633  0.2758  0.1813
12186SOL    HW237631   5.175   2.641   5.606 -2.1393  0.8861  0.1565
12187SOL     OW37632   3.004   4.078   7.399 -0.7640 -0.0844 -0.3774
12187SOL    HW137633   2.957   3.996   7.412  1.1224 -1.9412 -3.9409
12187SOL    HW237634   3.092   4.061   7.434 -0.3429  0.3963 -1.1824
12188SOL     OW37635   1.987   1.321   1.906  0.4749  0.6003  0.3106
12188SOL    HW137636   2.046   1.302   1.833  0.2463  1.7222 -0.1778
12188SOL    HW237637   1.923   1.250   1.904  1.6992 -0.5643  0.7687
12189SOL     OW37638   7.015   1.970   3.777  0.3947  0.4005  0.0281
12189SOL    HW137639   6.930   1.928   3.791  1.1857 -1.1393  0.5115
12189SOL    HW237640   7.011   2.051   3.829 -0.7528  0.3304  0.0617
12190SOL     OW37641   7.321   0.328   3.468  0.0440  0.5309 -0.1421
12190SOL    HW137642   7.377   0.299   3.540 -0.2520  0.0192 -0.1092
12190SOL    HW237643   7.368   0.301   3.389  0.8737  2.0102 -0.1949
12191SOL     OW37644   3.087   6.039   5.244  0.0797  0.6039 -0.3076
12191SOL    HW137645   3.117   5.975   5.179  1.0122  2.1102 -1.4386
12191SOL    HW237646   3.016   6.086   5.200  0.5297  1.4527 -0.1473
12192SOL     OW37647   2.666   7.460   4.180  0.0928  0.1476  0.0810
12192SOL    HW137648   2.576   7.432   4.198 -0.4810 -1.2480 -3.9946
12192SOL    HW237649   2.718   7.380   4.188  0.6365  0.5281  0.4181
12193SOL     OW37650   0.470   6.172   7.728  0.7417  0.6094  0.2219
12193SOL    HW137651   0.559   6.141   7.717  1.0744  1.4551  0.4741
12193SOL    HW237652   0.424   6.100   7.771  1.5607  0.5671  1.0466
12194SOL     OW37653   5.304   5.762   0.236  0.1267 -0.4685  0.3775
12194SOL    HW137654   5.224   5.737   0.189 -0.7977  1.4393  0.8713
12194SOL    HW237655   5.372   5.764   0.168 -0.6391 -0.3030 -0.4006
12195SOL     OW37656   5.619   0.257   3.643  0.2160 -0.4725 -0.2341
12195SOL    HW137657   5.705   0.273   3.682 -0.8020 -1.3711  2.6777
12195SOL    HW237658   5.579   0.344   3.638  1.0867 -0.1076 -1.1731
12196SOL     OW37659   1.783   2.258   4.839 -0.6668  0.3884  0.7411
12196SOL    HW137660   1.878   2.266   4.847 -0.4754 -2.2347  2.2993
12196SOL    HW237661   1.768   2.164   4.827 -3.1086  0.5357  2.0119
12197SOL     OW37662   2.398   2.635   5.578  0.3204 -0.1224 -0.0951
12197SOL    HW137663   2.308   2.610   5.557  0.2232 -1.3713  1.5703
12197SOL    HW237664   2.451   2.590   5.512 -0.2206  0.2100 -0.7772
12198SOL     OW37665   0.981   2.812   1.042  0.0598 -0.8376  0.1675
12198SOL    HW137666   1.043   2.742   1.057 -0.1289 -1.1354 -0.4126
12198SOL    HW237667   0.919   2.776   0.979 -0.8011 -0.6069  0.8568
12199SOL     OW37668   4.038   3.412   2.474  0.1620 -0.2253  0.0226
12199SOL    HW137669   4.029   3.341   2.410  0.7842 -0.8974  0.6655
12199SOL    HW237670   4.129   3.438   2.468  0.2043 -0.2295  0.5641
12200SOL     OW37671   0.740   0.533   4.104  0.1005 -0.4005 -0.1173
12200SOL    HW137672   0.688   0.485   4.039 -1.6625 -1.8259  2.2006
12200SOL    HW237673   0.816   0.477   4.121  1.4685  0.7407 -2.0154
12201SOL     OW37674   0.479   4.799   5.222  1.1239  0.0643 -0.1476
12201SOL    HW137675   0.436   4.882   5.201  0.4059 -0.0610  0.7717
12201SOL    HW237676   0.504   4.808   5.314  0.9775 -0.7662 -0.0231
12202SOL     OW37677   2.199   4.927   5.121  0.5123  0.2796  0.3667
12202SOL    HW137678   2.293   4.935   5.108  0.6504 -0.8643  0.5785
12202SOL    HW237679   2.181   4.834   5.109 -1.2478  0.9250 -3.9460
12203SOL     OW37680   7.010   1.214   3.634 -0.3977  0.4727  0.2433
12203SOL    HW137681   7.014   1.120   3.651  1.3388  0.4145 -0.2473
12203SOL    HW237682   6.917   1.233   3.623 -0.7064 -1.4424 -0.9575
12204SOL     OW37683   0.672   5.714   3.132  0.2811  0.0629  0.4172
12204SOL    HW137684   0.578   5.705   3.117 -0.1189  1.1530  2.0108
12204SOL    HW237685   0.705   5.624   3.127 -0.6177 -0.2143 -1.3198
12205SOL     OW37686   2.812   6.442   3.929 -0.1027 -0.3234  0.5160
12205SOL    HW137687   2.752   6.422   3.857  1.1871  1.8869 -1.3209
12205SOL    HW237688   2.879   6.374   3.924 -0.1993 -0.3736 -0.1693
12206SOL     OW37689   2.803   3.886   7.439  0.2359  0.0448  0.0562
12206SOL    HW137690   2.732   3.950   7.445  0.5742  0.5415 -0.9583
12206SOL    HW237691   2.770   3.820   7.378  0.3364 -0.1419  0.2048
12207SOL     OW37692   7.414   1.241   3.722 -0.1279  0.0162 -0.3736
12207SOL    HW137693   7.363   1.273   3.648 -1.6447  0.8952  0.9593
12207SOL    HW237694   7.450   1.321   3.762 -0.9241 -0.2309  0.9006
12208SOL     OW37695   7.647   3.896   0.219  0.6489 -0.0586  0.3908
12208SOL    HW137696   7.624   3.925   0.308  1.4904 -0.9797  0.9323
12208SOL    HW237697   7.725   3.946   0.196 -0.0756  0.8200 -0.1974
12209SOL     OW37698   0.960   5.103   0.969 -0.1559 -0.1056 -0.1361
12209SOL    HW137699   0.950   5.160   0.893 -2.4365  1.0128  0.9043
12209SOL    HW237700   0.951   5.161   1.044  0.5857 -1.3950  0.9977
12210SOL     OW37701   6.039   6.193   1.579  0.0758 -0.2304 -0.3405
12210SOL    HW137702   6.125   6.221   1.609  0.4231 -0.9828 -0.5954
12210SOL    HW237703   5.994   6.273   1.554  0.8217  0.1375 -0.5143
12211SOL     OW37704   4.748   1.846   3.865  0.0424  0.4751 -0.2810
12211SOL    HW137705   4.841   1.834   3.849 -0.0974 -0.4642 -0.4249
12211SOL    HW237706   4.744   1.911   3.936  0.7468  1.7489 -1.3601
12212SOL     OW37707   5.283   7.293   5.908 -0.2324  0.1762  0.2787
12212SOL    HW137708   5.319   7.221   5.960  0.6068  0.3390 -0.0663
12212SOL    HW237709   5.204   7.319   5.956  0.3437  0.1061  1.3110
12213SOL     OW37710   3.717   5.778   5.571  0.3395  0.3689 -0.2026
12213SOL    HW137711   3.672   5.841   5.514  2.2744  1.8365 -0.2059
12213SOL    HW237712   3.682   5.797   5.658 -0.6739 -0.0712 -0.4921
12214SOL     OW37713   5.230   2.573   4.207  0.2358 -0.1097  0.5611
12214SOL    HW137714   5.238   2.607   4.118 -0.4806 -1.2425  0.0347
12214SOL    HW237715   5.201   2.648   4.259 -1.9931 -0.0456 -0.6806
12215SOL     OW37716   3.869   7.596   2.192  0.1754  0.5822  0.5810
12215SOL    HW137717   3.844   7.606   2.283  0.6377 -0.4116  0.8353
12215SOL    HW237718   3.908   7.680   2.168  0.8535  0.5661  1.5668
12216SOL     OW37719   0.037   4.242   5.915 -0.1408 -1.0569  0.7538
12216SOL    HW137720   0.094   4.317   5.896 -0.0735 -1.3201 -0.1190
12216SOL    HW237721  -0.050   4.280   5.923 -0.8678 -1.2341 -3.7340
12217SOL     OW37722   6.865   5.187   8.054  0.2334  0.6556  0.7513
12217SOL    HW137723   6.854   5.144   7.970 -0.7539  0.6336  0.8799
12217SOL    HW237724   6.817   5.269   8.045  0.8605  1.0627  1.0068
12218SOL     OW37725   4.620   0.305   2.491  0.6901 -0.1760  0.2948
12218SOL    HW137726   4.685   0.368   2.522  1.0065 -0.0570 -0.5756
12218SOL    HW237727   4.591   0.259   2.569  2.9409 -1.3070  0.5368
12219SOL     OW37728   0.582   7.810   2.632 -0.3393 -0.5321 -0.0093
12219SOL    HW137729   0.496   7.819   2.672 -0.2744  2.4704 -0.2669
12219SOL    HW237730   0.644   7.824   2.704 -0.1453 -0.1592 -0.2389
12220SOL     OW37731   3.761   2.580   3.273 -0.3109  0.1455  0.5768
12220SOL    HW137732   3.755   2.675   3.283  0.5690  0.4613 -1.4523
12220SOL    HW237733   3.853   2.565   3.250 -0.3545 -1.2563  1.2281
12221SOL     OW37734   6.796   3.415   6.739 -0.5007  0.2896  0.1530
12221SOL    HW137735   6.803   3.371   6.824  0.2505  0.6569  0.2935
12221SOL    HW237736   6.706   3.400   6.711 -1.6696  2.5963  2.3401
12222SOL     OW37737   1.742   1.842   4.446  0.6692 -0.1380  0.4569
12222SOL    HW137738   1.731   1.930   4.408 -1.0228 -0.5192 -0.0327
12222SOL    HW237739   1.695   1.847   4.530 -1.5041 -1.1917 -0.6252
12223SOL     OW37740   4.564   5.462   3.151  0.1602 -0.6352 -0.5637
12223SOL    HW137741   4.582   5.479   3.059 -0.6620 -0.3747 -0.6839
12223SOL    HW237742   4.642   5.493   3.197  0.0813  0.3513 -1.0752
12224SOL     OW37743   1.466   4.396   0.429 -0.0424 -0.3118 -0.1581
12224SOL    HW137744   1.479   4.311   0.471 -0.8767  0.1563  1.0911
12224SOL    HW237745   1.521   4.456   0.480  1.2120 -0.2257 -1.5558
12225SOL     OW37746   1.009   0.036   7.035  0.6635  0.2210 -0.6682
12225SOL    HW137747   1.020   0.074   6.948  0.5717  0.8304 -0.4189
12225SOL    HW237748   1.075  -0.034   7.040 -0.1611 -0.6700 -1.6936
12226SOL     OW37749   6.879   5.936   6.594 -0.0896  0.0809  0.5031
12226SOL    HW137750   6.850   5.933   6.503 -0.5950  1.1063  0.6127
12226SOL    HW237751   6.944   6.006   6.596 -0.5920  0.5418  1.0566
12227SOL     OW37752   3.324   2.783   4.995 -0.2534  0.3363 -0.3218
12227SOL    HW137753   3.278   2.860   5.028 -1.0669  0.1049 -0.8830
12227SOL    HW237754   3.285   2.710   5.043 -0.5325  0.1304 -0.8518
12228SOL     OW37755   7.378   8.164   3.816 -0.3146  0.7314  0.2593
12228SOL    HW137756   7.296   8.143   3.862 -0.4617 -0.6982 -0.5802
12228SOL    HW237757   7.447   8.139   3.877 -0.5098 -1.1224 -0.1909
12229SOL     OW37758   6.244   1.639   5.784  0.1801 -0.1656  0.0331
12229SOL    HW137759   6.155   1.651   5.750 -0.1189 -0.6023  0.6526
12229SOL    HW237760   6.255   1.544   5.789  0.2308 -0.1049  1.1326
12230SOL     OW37761   6.969   5.213   5.455  0.3624 -0.4510 -0.0036
12230SOL    HW137762   6.939   5.123   5.441  1.7710 -0.7671 -1.1921
12230SOL    HW237763   6.989   5.246   5.367  1.8234  0.3094  0.5799
12231SOL     OW37764   4.266   3.785   3.526  0.8940 -0.1533  0.9368
12231SOL    HW137765   4.343   3.802   3.473  1.1826 -0.0855  1.3696
12231SOL    HW237766   4.244   3.869   3.564 -0.8276  0.3597 -1.0354
12232SOL     OW37767   5.995   4.745   1.935 -0.4023 -0.1038 -0.4026
12232SOL    HW137768   6.018   4.787   2.018  0.3016 -0.3034 -0.4906
12232SOL    HW237769   5.932   4.805   1.894  0.3299  0.7030 -0.3743
12233SOL     OW37770   3.951   2.881   5.658 -0.1747  0.2357  0.4561
12233SOL    HW137771   3.876   2.940   5.670  0.5407  1.2569  0.0476
12233SOL    HW237772   4.025   2.940   5.642  1.0305 -0.6810  2.3673
12234SOL     OW37773   5.408   0.052   5.340  0.0301 -0.1489  0.2613
12234SOL    HW137774   5.344   0.003   5.391  0.0120  0.8092  1.1983
12234SOL    HW237775   5.465   0.092   5.405  2.2443 -1.7697 -0.5363
12235SOL     OW37776   0.071   5.853   5.455  0.5517  0.9937  0.2794
12235SOL    HW137777   0.158   5.818   5.438  0.2359 -0.3280  1.2381
12235SOL    HW237778   0.074   5.881   5.546 -0.4087 -0.2983  0.7271
12236SOL     OW37779   4.931   7.809   7.330  0.2835 -0.0745 -0.2998
12236SOL    HW137780   4.920   7.904   7.331 -0.8326 -0.1702  1.7819
12236SOL    HW237781   4.870   7.777   7.397  0.4178 -2.2933 -1.1479
12237SOL     OW37782   2.470   5.361   3.264  0.0653  0.2862  0.4002
12237SOL    HW137783   2.521   5.420   3.320  0.0093 -0.5354  1.3482
12237SOL    HW237784   2.384   5.358   3.305 -1.0744  2.2876 -1.6294
12238SOL     OW37785   2.678   1.589   1.019 -0.0083 -0.2622 -0.2455
12238SOL    HW137786   2.734   1.663   0.995  0.3599 -0.2565  0.5831
12238SOL    HW237787   2.593   1.628   1.037 -0.1560 -0.2069 -1.0489
12239SOL     OW37788   6.346   1.313   7.939  0.1453 -0.1276 -0.6630
12239SOL    HW137789   6.414   1.360   7.988  0.0051 -1.1453  0.5621
12239SOL    HW237790   6.263   1.345   7.977 -0.0963  1.1557 -2.1899
12240SOL     OW37791   4.026   7.190   3.959  0.2522  0.2225 -0.3453
12240SOL    HW137792   4.074   7.153   3.885  0.8574 -0.6764  0.4721
12240SOL    HW237793   4.062   7.145   4.035 -0.4281  1.0639  0.4899
12241SOL     OW37794   5.956   4.318   6.763 -0.3169  0.0502  0.2923
12241SOL    HW137795   5.902   4.350   6.691  0.6104  1.1018  0.0377
12241SOL    HW237796   5.977   4.227   6.740  0.2163  0.4653 -0.9186
12242SOL     OW37797   0.391   0.213   6.810 -0.0670 -0.4975  0.3647
12242SOL    HW137798   0.440   0.294   6.795 -0.2795 -0.5133 -0.4725
12242SOL    HW237799   0.436   0.171   6.883  1.1074 -0.4597 -0.3156
12243SOL     OW37800   8.144   7.826   2.167 -0.2655 -0.1242 -0.1027
12243SOL    HW137801   8.233   7.797   2.185  0.2546  0.4833 -1.5121
12243SOL    HW237802   8.120   7.879   2.243  0.6529 -0.1191  0.1962
12244SOL     OW37803   4.143   0.759   0.213 -0.1961 -0.4103  0.4309
12244SOL    HW137804   4.092   0.679   0.226  0.1950 -0.8601 -0.7207
12244SOL    HW237805   4.112   0.795   0.130 -0.3750  0.6531  0.9353
12245SOL     OW37806   6.683   5.215   6.297 -0.2663  0.1934 -0.2184
12245SOL    HW137807   6.631   5.150   6.343  0.4773  0.6588  1.3228
12245SOL    HW237808   6.742   5.163   6.241 -1.0867 -0.3760 -0.5631
12246SOL     OW37809   2.717   1.705   7.647  0.3976  0.2045 -0.1993
12246SOL    HW137810   2.697   1.612   7.663  0.2877  0.3044  0.2650
12246SOL    HW237811   2.724   1.712   7.552  0.4202 -0.2847 -0.2370
12247SOL     OW37812   2.442   4.938   1.515 -0.0950  0.0690  0.1289
12247SOL    HW137813   2.517   4.879   1.528  0.1712  0.3328 -0.1747
12247SOL    HW237814   2.399   4.942   1.601  0.6694  0.4905  0.5039
12248SOL     OW37815   6.155   0.494   6.214  0.7273  0.6112 -0.3515
12248SOL    HW137816   6.075   0.473   6.263 -0.4148 -0.9256 -2.6951
12248SOL    HW237817   6.224   0.447   6.260  0.0108  0.6761  0.8229
12249SOL     OW37818   4.619   7.278   0.580 -0.4363 -0.1711 -0.0081
12249SOL    HW137819   4.668   7.222   0.520  0.4128 -0.6915  1.1254
12249SOL    HW237820   4.662   7.363   0.573 -0.6945 -0.0801 -0.5359
12250SOL     OW37821   5.844   3.675   8.119  0.5900 -0.1482  0.5618
12250SOL    HW137822   5.879   3.591   8.149 -0.3881  0.0664  2.4503
12250SOL    HW237823   5.881   3.686   8.032  0.8369 -2.4902  0.2933
12251SOL     OW37824   5.849   7.661   4.226  0.3181  0.7155  0.2376
12251SOL    HW137825   5.896   7.706   4.297  1.5519  0.1030 -0.1800
12251SOL    HW237826   5.912   7.655   4.155 -0.7636  0.9067 -0.7692
12252SOL     OW37827   5.775   5.576   2.067  0.1576 -0.0255 -0.0514
12252SOL    HW137828   5.711   5.646   2.053  0.7198  0.7117  0.8999
12252SOL    HW237829   5.860   5.619   2.060  0.5299 -0.7365 -0.0176
12253SOL     OW37830   5.836   2.338   7.526 -0.4329 -0.6344  0.4373
12253SOL    HW137831   5.825   2.267   7.464 -0.8377 -0.1496 -0.0585
12253SOL    HW237832   5.768   2.401   7.502  1.2567  0.9248 -0.5197
12254SOL     OW37833   5.384   0.069   2.552  0.4839  0.0764 -0.0236
12254SOL    HW137834   5.401  -0.017   2.589 -0.7742 -0.4685 -0.6421
12254SOL    HW237835   5.416   0.063   2.462 -0.5927 -0.1379 -0.4131
12255SOL     OW37836   2.507   2.131   7.749 -0.7377  0.4441  0.5330
12255SOL    HW137837   2.504   2.226   7.762 -0.8616  0.6791 -0.9578
12255SOL    HW237838   2.418   2.101   7.767 -0.9604  0.7739  0.0029
12256SOL     OW37839   4.671   3.407   3.216 -0.0648 -0.3125  1.0913
12256SOL    HW137840   4.705   3.493   3.193 -2.7821  0.2927 -1.1558
12256SOL    HW237841   4.654   3.364   3.132 -1.1660 -2.0326  2.1307
12257SOL     OW37842   3.949   1.520   4.995 -0.1136  0.3401 -0.1471
12257SOL    HW137843   3.979   1.571   5.070 -0.2254  0.2240 -0.0213
12257SOL    HW237844   3.859   1.550   4.980 -0.9944 -1.3418  1.3181
12258SOL     OW37845   2.800   2.215   4.115  0.6668  1.5329  0.0073
12258SOL    HW137846   2.721   2.178   4.076  0.9240  1.9630 -0.9601
12258SOL    HW237847   2.773   2.245   4.202 -0.1215  1.2945 -0.1524
12259SOL     OW37848   3.036   2.451   2.712 -0.3319 -0.1449 -0.4679
12259SOL    HW137849   3.050   2.520   2.647 -0.5610 -0.8554 -1.2892
12259SOL    HW237850   3.099   2.383   2.689  2.8680  1.3391  2.7655
12260SOL     OW37851   2.150   1.062   6.081 -0.2193  0.1787 -0.5334
12260SOL    HW137852   2.114   0.974   6.086  0.5381 -0.0954  0.4423
12260SOL    HW237853   2.088   1.116   6.131  1.0481 -0.4370  1.8671
12261SOL     OW37854   4.001   5.358   0.070 -0.2028 -0.0830 -0.2934
12261SOL    HW137855   4.079   5.397   0.031 -0.3239  2.2718  1.5765
12261SOL    HW237856   3.972   5.292   0.006  2.5966 -0.2148 -1.5653
12262SOL     OW37857   4.771   5.680   6.943  0.2333  0.0758 -0.3512
12262SOL    HW137858   4.853   5.723   6.969  0.4095  0.2123 -1.1037
12262SOL    HW237859   4.792   5.586   6.946  0.1997  0.0791  0.1447
12263SOL     OW37860   2.804   6.205   3.531 -0.1826 -0.0473 -0.0668
12263SOL    HW137861   2.754   6.256   3.468 -0.3794  0.5638  0.5767
12263SOL    HW237862   2.750   6.204   3.610  0.0424 -0.8390  0.0865
12264SOL     OW37863   7.303   4.678   2.931 -0.1302 -0.9223  0.4589
12264SOL    HW137864   7.370   4.619   2.966  0.8079  0.6430  1.3990
12264SOL    HW237865   7.350   4.734   2.869 -0.7579 -0.4181  0.4245
12265SOL     OW37866   2.193   5.706   0.424 -0.0692 -0.4255  0.0723
12265SOL    HW137867   2.248   5.628   0.432 -0.6431 -0.9884 -1.2074
12265SOL    HW237868   2.221   5.762   0.496  2.1972 -0.6827 -0.5342
12266SOL     OW37869   5.764   1.961   6.139  0.1252 -0.6996  0.0186
12266SOL    HW137870   5.836   1.905   6.109  0.6713  1.3368 -2.7806
12266SOL    HW237871   5.801   2.049   6.142 -0.9899 -0.1979  3.3478
12267SOL     OW37872   0.336   7.605   6.874  0.5478  0.5332  0.0243
12267SOL    HW137873   0.396   7.673   6.903  0.1532  0.9807 -0.1913
12267SOL    HW237874   0.386   7.555   6.809  0.7309  0.8283 -0.0632
12268SOL     OW37875   6.012   6.298   7.086  0.7569 -0.0644  0.4458
12268SOL    HW137876   5.946   6.243   7.128 -0.9925  0.2258 -1.7664
12268SOL    HW237877   5.993   6.387   7.116 -0.2529  0.0943 -0.6278
12269SOL     OW37878   6.557   6.838   7.061 -0.3157  0.2867  0.3843
12269SOL    HW137879   6.549   6.928   7.030  1.2048  0.7446  1.2549
12269SOL    HW237880   6.579   6.846   7.154  0.3671 -0.9734  0.3488
12270SOL     OW37881   2.296   6.935   7.255  0.1561 -0.0862 -0.0148
12270SOL    HW137882   2.355   6.893   7.192 -1.4328 -0.5686 -1.2374
12270SOL    HW237883   2.274   7.019   7.216  0.3721  0.2871  0.6520
12271SOL     OW37884   3.456   1.742   5.357 -0.4722 -0.0941 -0.3220
12271SOL    HW137885   3.368   1.703   5.357 -1.7745  2.5878  0.5138
12271SOL    HW237886   3.462   1.785   5.272 -0.2104  0.2661 -0.1182
12272SOL     OW37887   7.948   2.011   3.023 -0.3147 -0.1647 -0.1665
12272SOL    HW137888   8.012   1.939   3.023  0.1644  0.2448  0.2721
12272SOL    HW237889   7.895   1.997   2.945 -0.5933 -1.3148  0.2139
12273SOL     OW37890   2.483   2.953   1.445  0.5636  0.0098 -0.0278
12273SOL    HW137891   2.402   2.906   1.427  0.9418 -1.5905  2.0570
12273SOL    HW237892   2.455   3.041   1.470 -0.5914 -0.5985  0.9284
12274SOL     OW37893   7.519   3.174   2.018  0.1644 -0.4847  0.2537
12274SOL    HW137894   7.465   3.179   2.097  1.0298 -1.6276  0.9498
12274SOL    HW237895   7.609   3.180   2.050  0.4830  1.2692 -0.8737
12275SOL     OW37896   0.957   4.388   3.451 -0.2689 -0.0982  0.3442
12275SOL    HW137897   0.911   4.436   3.383 -0.9766 -2.0998 -0.6418
12275SOL    HW237898   0.898   4.391   3.527 -1.7421 -1.9313 -0.6507
12276SOL     OW37899   0.165   3.442   5.931  0.7363  0.2344  0.4577
12276SOL    HW137900   0.191   3.376   5.994  0.4764  0.0110  0.3364
12276SOL    HW237901   0.101   3.397   5.875  0.2817  0.6983  0.6057
12277SOL     OW37902   6.642   2.731   6.433  0.3565  0.0436 -0.6836
12277SOL    HW137903   6.586   2.760   6.361  0.6046  0.3285 -0.7637
12277SOL    HW237904   6.630   2.636   6.435 -0.9774  0.2049  0.0068
12278SOL     OW37905   3.720   7.431   2.051 -0.2935  0.5251 -0.1639
12278SOL    HW137906   3.660   7.450   1.979  0.8471 -1.0811 -1.6183
12278SOL    HW237907   3.755   7.516   2.076  0.7528  0.9787 -2.8586
12279SOL     OW37908   7.925   4.106   0.796  0.0022 -0.4314 -0.2637
12279SOL    HW137909   7.847   4.056   0.820  0.0333 -1.2750 -1.7839
12279SOL    HW237910   7.996   4.064   0.843 -0.2240 -0.7458 -0.1965
12280SOL     OW37911   4.005   6.522   1.312 -0.3902  0.2670 -0.1227
12280SOL    HW137912   4.097   6.537   1.333 -0.5509 -0.2618  1.0837
12280SOL    HW237913   3.957   6.562   1.384 -1.0842  0.1596 -0.5160
12281SOL     OW37914   2.393   5.341   6.510 -0.3632 -0.4587 -0.0771
12281SOL    HW137915   2.362   5.396   6.438 -0.9703  0.2847  0.7137
12281SOL    HW237916   2.314   5.297   6.542 -0.0389 -1.0599 -0.0919
12282SOL     OW37917   5.056   1.643   2.560  0.0233  0.0194  0.0663
12282SOL    HW137918   5.080   1.583   2.630  0.9332  0.6091  0.2766
12282SOL    HW237919   5.077   1.730   2.594 -2.7222  0.6394  0.3895
12283SOL     OW37920   3.691   6.099   2.297 -0.3474  0.1181 -0.2000
12283SOL    HW137921   3.742   6.034   2.250  0.4140 -0.0330  0.8071
12283SOL    HW237922   3.639   6.143   2.229  0.4336 -0.3441 -1.1138
12284SOL     OW37923   7.778   2.010   4.983  0.1786  0.5118  0.0239
12284SOL    HW137924   7.832   1.936   4.955 -0.3155  0.5120 -0.9937
12284SOL    HW237925   7.833   2.087   4.968  0.3011  0.4334  0.0633
12285SOL     OW37926   3.404   7.476   0.023 -0.0943  0.1138  0.9758
12285SOL    HW137927   3.395   7.443   0.112 -2.5126  1.3190  1.2659
12285SOL    HW237928   3.342   7.424  -0.028  1.0349 -0.3501  0.0395
12286SOL     OW37929   7.881   4.447   7.096 -0.4280 -0.2907 -0.0193
12286SOL    HW137930   7.795   4.482   7.119 -0.5480 -0.4600 -0.2104
12286SOL    HW237931   7.942   4.490   7.157 -0.5770  0.2150 -0.2288
12287SOL     OW37932   4.561   4.204   5.368  0.2545  0.1842  0.2809
12287SOL    HW137933   4.592   4.267   5.302  1.7598  0.6704  1.3857
12287SOL    HW237934   4.469   4.226   5.380 -0.3201 -0.4856 -2.2438
12288SOL     OW37935   1.000   0.247   5.013  0.4055  0.1975 -0.0569
12288SOL    HW137936   0.908   0.266   4.992  0.5090  1.4299  0.5229
12288SOL    HW237937   1.000   0.154   5.035 -0.1846 -0.5383 -2.8084
12289SOL     OW37938   7.678   7.723   2.880  0.3053  0.1658 -0.1142
12289SOL    HW137939   7.672   7.760   2.969  0.0953  1.0834 -0.4980
12289SOL    HW237940   7.759   7.761   2.844 -0.3345  0.9029 -0.8010
12290SOL     OW37941   6.617   6.666   5.952  0.2103  0.2545 -0.3974
12290SOL    HW137942   6.685   6.600   5.967  0.3449 -0.0040 -1.9710
12290SOL    HW237943   6.664   6.743   5.921  0.0093  0.9662  1.0064
12291SOL     OW37944   1.443   6.301   0.867 -0.4496  0.0587  0.2936
12291SOL    HW137945   1.438   6.289   0.962 -1.4048  0.4778  0.3043
12291SOL    HW237946   1.405   6.220   0.832  2.6152 -1.4984  0.1681
12292SOL     OW37947   0.329   2.690   7.297  0.1667 -0.0186 -0.3951
12292SOL    HW137948   0.298   2.756   7.236 -0.2880 -0.4578 -0.6506
12292SOL    HW237949   0.293   2.608   7.264 -0.1331 -0.2624  0.4904
12293SOL     OW37950   1.153   7.133   1.484  0.4394 -0.1438  0.0435
12293SOL    HW137951   1.133   7.040   1.470 -2.3515  0.2770  0.5929
12293SOL    HW237952   1.179   7.165   1.397  0.8784 -1.2880 -0.2720
12294SOL     OW37953   1.512   5.832   0.284 -0.0866 -0.2155  0.1652
12294SOL    HW137954   1.533   5.873   0.201 -0.7536  0.0677  0.1260
12294SOL    HW237955   1.416   5.826   0.284 -0.2528  1.5611  1.7236
12295SOL     OW37956   4.034   4.565   6.146  0.7283 -0.2431 -0.2481
12295SOL    HW137957   4.039   4.475   6.113  1.0718 -0.6563  0.8820
12295SOL    HW237958   4.125   4.594   6.151  0.9627 -1.1722  2.8296
12296SOL     OW37959   5.919   3.588   4.665 -0.1450 -0.2972 -0.0408
12296SOL    HW137960   5.850   3.572   4.729  0.8603 -1.3647  0.8434
12296SOL    HW237961   5.928   3.505   4.618 -1.1972  0.6174 -1.9464
12297SOL     OW37962   3.900   5.094   7.554 -0.2361  0.5196 -0.2123
12297SOL    HW137963   3.837   5.147   7.602 -0.6087 -1.0310  1.0869
12297SOL    HW237964   3.925   5.148   7.479 -2.0740  1.7078 -0.0161
12298SOL     OW37965   6.805   6.051   3.918 -0.1686  0.2766 -0.2625
12298SOL    HW137966   6.833   6.057   3.827 -1.1450 -0.1475 -0.6046
12298SOL    HW237967   6.879   6.085   3.968  0.8956 -0.6658 -1.1271
12299SOL     OW37968   4.698   0.013   5.029  0.2506  0.2582  0.1801
12299SOL    HW137969   4.640  -0.035   5.088  0.5487  0.3630  0.5609
12299SOL    HW237970   4.750   0.069   5.086  1.8968 -1.0395  0.0238
12300SOL     OW37971   4.806   5.935   5.878 -0.0261 -0.2240 -0.0960
12300SOL    HW137972   4.726   5.892   5.849 -1.5074  2.8975 -0.9997
12300SOL    HW237973   4.867   5.922   5.806 -0.4582 -0.7108 -0.3823
12301SOL     OW37974   2.354   7.638   8.090 -0.2569 -0.2845  0.0014
12301SOL    HW137975   2.294   7.565   8.100 -1.2242  0.4562 -0.3128
12301SOL    HW237976   2.338   7.671   8.001 -1.4346  1.6746  0.8815
12302SOL     OW37977   7.845   5.160   5.364  0.2709  0.1496  0.7290
12302SOL    HW137978   7.908   5.121   5.424  0.5550  0.9649  0.9715
12302SOL    HW237979   7.782   5.205   5.421  0.0276  0.1691  0.4496
12303SOL     OW37980   3.829   5.461   2.274  0.4434  0.4605  0.1781
12303SOL    HW137981   3.843   5.470   2.180  0.1112 -0.5069  0.0295
12303SOL    HW237982   3.813   5.368   2.288 -3.0355  0.9874  0.7084
12304SOL     OW37983   0.507   6.054   6.998 -0.9115 -0.0268  0.0330
12304SOL    HW137984   0.573   5.985   6.999 -2.2476 -1.4006 -1.0345
12304SOL    HW237985   0.531   6.109   6.924  0.2382  0.7580  0.9688
12305SOL     OW37986   4.034   4.395   4.952  0.4272  0.6658 -0.0266
12305SOL    HW137987   4.006   4.331   4.887  0.1018  0.8941 -0.1126
12305SOL    HW237988   4.026   4.350   5.036  0.3040  0.5599 -0.0958
12306SOL     OW37989   3.001   6.939   5.091  0.0530  0.0997 -0.0290
12306SOL    HW137990   3.008   6.848   5.062  2.6935  0.6596 -1.3901
12306SOL    HW237991   3.066   6.947   5.160  0.4906  1.1609 -0.5441
12307SOL     OW37992   6.807   2.648   7.372  0.6086 -0.0364  0.5302
12307SOL    HW137993   6.854   2.725   7.338  1.3523 -1.1315 -1.0448
12307SOL    HW237994   6.877   2.587   7.395  0.0290 -0.1721  2.0417
12308SOL     OW37995   7.658   7.536   5.349  0.2438 -0.0370  0.0182
12308SOL    HW137996   7.709   7.466   5.389 -1.8712 -2.2187 -0.8291
12308SOL    HW237997   7.691   7.540   5.259  1.6195  1.4093  0.5520
12309SOL     OW37998   2.105   0.250   1.050 -0.5751 -0.3207 -0.0609
12309SOL    HW137999   2.044   0.266   0.978 -1.1231  0.2654  0.5193
12309SOL    HW238000   2.189   0.233   1.007 -0.9490 -0.2471 -0.8431
12310SOL     OW38001   2.501   0.267   3.259 -0.0873 -0.4252 -0.1383
12310SOL    HW138002   2.406   0.275   3.263 -0.1464 -1.3457  1.7344
12310SOL    HW238003   2.524   0.293   3.170 -2.0017  0.5829 -0.3897
12311SOL     OW38004   4.759   0.462   3.462  0.3494  0.3234  0.3449
12311SOL    HW138005   4.776   0.503   3.547 -0.4335 -0.4089  0.8601
12311SOL    HW238006   4.842   0.472   3.415  0.9500  0.3183  1.3626
12312SOL     OW38007   4.568   4.583   7.698  0.9529 -0.7103  0.0068
12312SOL    HW138008   4.498   4.637   7.734 -0.0349 -0.9925 -1.3863
12312SOL    HW238009   4.569   4.504   7.753  1.9338  0.3701  1.6113
12313SOL     OW38010   2.360   4.790   7.993 -0.4703  0.7350  0.3877
12313SOL    HW138011   2.384   4.758   8.080 -1.2747 -0.0286  0.3382
12313SOL    HW238012   2.440   4.831   7.960  0.0151  0.5122  1.2447
12314SOL     OW38013   6.840   7.710   2.928  0.2586 -0.0719 -0.6592
12314SOL    HW138014   6.772   7.705   2.860 -1.6543  1.1094  1.0463
12314SOL    HW238015   6.898   7.637   2.909 -1.3421 -0.9911 -2.3782
12315SOL     OW38016   6.300   3.580   5.792 -0.0974  0.8265  0.4003
12315SOL    HW138017   6.295   3.617   5.880  0.9373 -0.0700  0.8539
12315SOL    HW238018   6.326   3.489   5.805  2.4822  1.2663 -0.9033
12316SOL     OW38019   4.791   2.562   2.766 -0.4373 -0.2134  0.2657
12316SOL    HW138020   4.790   2.516   2.850  0.0451  0.9573  0.9425
12316SOL    HW238021   4.706   2.605   2.762 -0.0361  0.6744  0.7348
12317SOL     OW38022   0.331   1.077   3.831  0.4255  0.1252 -0.4812
12317SOL    HW138023   0.400   1.104   3.892  0.7132 -1.5416 -0.0123
12317SOL    HW238024   0.372   1.079   3.745  0.9986 -0.5885 -0.2354
12318SOL     OW38025   6.970   3.614   6.059 -0.3522 -0.0925 -0.1487
12318SOL    HW138026   6.883   3.578   6.043  0.0619 -1.4656  0.5103
12318SOL    HW238027   6.963   3.706   6.033 -1.2909 -0.7523 -2.5757
12319SOL     OW38028   1.542   6.619   6.414 -0.4071  0.1023  0.2430
12319SOL    HW138029   1.597   6.586   6.343 -1.3405 -0.9536 -0.0121
12319SOL    HW238030   1.470   6.663   6.370  1.4147  3.7539  0.5470
12320SOL     OW38031   2.731   0.459   6.027  0.6529 -0.7358  0.4542
12320SOL    HW138032   2.767   0.372   6.012  0.6410 -0.8508  1.0676
12320SOL    HW238033   2.636   0.446   6.035  0.2213 -0.2606 -2.5718
12321SOL     OW38034   5.214   6.239   3.500  0.1703  0.6847 -0.0179
12321SOL    HW138035   5.265   6.239   3.581 -0.1720  0.0389  0.2009
12321SOL    HW238036   5.247   6.315   3.452 -0.8818  2.2132  1.5191
12322SOL     OW38037   7.069   0.325   3.588 -0.3649  0.0358  0.2073
12322SOL    HW138038   7.115   0.342   3.670 -0.9642  1.6241  0.2357
12322SOL    HW238039   7.133   0.347   3.520 -0.2548 -0.1796  0.2389
12323SOL     OW38040   3.460   4.359   1.960  0.4423  0.4375  0.6063
12323SOL    HW138041   3.460   4.427   1.892 -0.6909 -1.0693 -0.9815
12323SOL    HW238042   3.370   4.358   1.992 -0.2202 -1.8693 -1.0993
12324SOL     OW38043   1.903   3.376   4.089 -0.3826  0.3908 -0.1395
12324SOL    HW138044   1.955   3.446   4.052 -1.6473  0.4148 -1.9653
12324SOL    HW238045   1.896   3.311   4.019  0.3668 -1.3831  1.3405
12325SOL     OW38046   6.415   0.025   1.550  0.3462 -0.1549  0.2302
12325SOL    HW138047   6.509   0.007   1.557  0.4930  0.1585 -0.7990
12325SOL    HW238048   6.387   0.039   1.641  1.3087 -0.1600  0.5442
12326SOL     OW38049   7.931   0.663   6.998  0.3902  0.0992  0.0321
12326SOL    HW138050   7.937   0.697   7.087  1.4178 -0.5134  0.2042
12326SOL    HW238051   7.956   0.571   7.005  1.3126  0.2477 -1.0113
12327SOL     OW38052   6.302   4.534   6.304  0.1023  0.1330  0.1580
12327SOL    HW138053   6.249   4.479   6.246 -1.3107  1.0994  0.4658
12327SOL    HW238054   6.267   4.518   6.391  1.7669 -0.8051  0.6847
12328SOL     OW38055   3.123   4.504   3.835  0.2024  0.7936 -0.5532
12328SOL    HW138056   3.173   4.570   3.788  0.6927  0.0549 -1.0973
12328SOL    HW238057   3.064   4.466   3.769  0.7741 -0.1321 -0.5483
12329SOL     OW38058   0.836   5.898   4.177  0.3361 -0.2104 -0.3513
12329SOL    HW138059   0.808   5.947   4.099 -0.3610 -0.0494 -0.0071
12329SOL    HW238060   0.930   5.914   4.182  0.2897  0.2677 -0.8242
12330SOL     OW38061   5.141   6.440   0.841  0.2173 -0.1425 -0.3805
12330SOL    HW138062   5.080   6.388   0.893 -0.3381 -0.9993 -1.8442
12330SOL    HW238063   5.102   6.444   0.754  2.1670 -0.6409 -1.3476
12331SOL     OW38064   2.086   2.319   2.668  0.5348  0.1229 -0.0621
12331SOL    HW138065   2.124   2.232   2.651  0.8413  0.6158 -2.1481
12331SOL    HW238066   2.019   2.303   2.735  0.1758 -1.8188 -0.8260
12332SOL     OW38067   2.573   4.591   0.721  0.0033 -0.5818  0.0503
12332SOL    HW138068   2.621   4.595   0.639  3.2186 -0.0490  1.7862
12332SOL    HW238069   2.559   4.497   0.736 -2.6193 -0.6394 -2.0191
12333SOL     OW38070   0.371   0.934   0.528 -0.2744 -0.0625 -0.4151
12333SOL    HW138071   0.294   0.984   0.556  0.4288  0.8873 -0.1209
12333SOL    HW238072   0.396   0.883   0.605  1.6716  2.5641  0.8755
12334SOL     OW38073   8.133   4.009   0.925 -0.2642 -0.0342  0.1709
12334SOL    HW138074   8.160   3.918   0.913 -0.8650  0.0079 -1.8248
12334SOL    HW238075   8.214   4.059   0.913 -0.3644 -0.1796 -1.3203
12335SOL     OW38076   1.415   6.478   3.810 -0.1860 -0.2001  0.1422
12335SOL    HW138077   1.370   6.432   3.740 -0.0946 -0.2496  0.1155
12335SOL    HW238078   1.364   6.458   3.888  0.1834 -0.8280  0.2335
12336SOL     OW38079   3.868   8.093   6.910 -0.1887 -0.3416  0.5839
12336SOL    HW138080   3.892   8.052   6.994 -1.2385 -2.3949 -0.0538
12336SOL    HW238081   3.776   8.071   6.898  0.3203 -1.4492 -1.8303
12337SOL     OW38082   0.421   1.098   3.513 -0.7322  0.3396 -0.0062
12337SOL    HW138083   0.327   1.077   3.513 -0.6824 -0.4913  3.3986
12337SOL    HW238084   0.464   1.013   3.523  0.3188  0.8369 -0.2054
12338SOL     OW38085   2.475   3.316   6.774  0.3055  0.6805 -0.1348
12338SOL    HW138086   2.386   3.352   6.778  1.1697  2.8425  1.2196
12338SOL    HW238087   2.527   3.385   6.733  1.7518  0.4132  1.1714
12339SOL     OW38088   7.478   2.605   4.053  0.1506  0.0155  0.4018
12339SOL    HW138089   7.463   2.597   3.959  1.2517  0.4907  0.1776
12339SOL    HW238090   7.572   2.618   4.062 -0.2319  2.6299  1.3884
12340SOL     OW38091   2.538   1.078   6.812  0.0676 -0.4215 -0.4498
12340SOL    HW138092   2.471   1.057   6.877  0.0213 -0.9828 -0.6698
12340SOL    HW238093   2.614   1.025   6.838  1.1621  1.7307  1.0067
12341SOL     OW38094   3.138   3.038   2.827 -0.5118  0.0371 -0.0091
12341SOL    HW138095   3.125   3.021   2.733  1.4240 -1.3765 -0.0870
12341SOL    HW238096   3.115   3.130   2.838 -1.1723  0.1230 -1.7945
12342SOL     OW38097   8.021   3.406   7.822  0.2850  0.4797 -0.5220
12342SOL    HW138098   8.101   3.459   7.831 -0.0750  1.1069 -0.9851
12342SOL    HW238099   7.951   3.464   7.852  0.2003 -0.7577  1.9533
12343SOL     OW38100   6.295   2.660   6.422  0.3415 -0.5100  0.0818
12343SOL    HW138101   6.327   2.746   6.394  0.0986 -0.4393  0.0212
12343SOL    HW238102   6.347   2.598   6.370  0.4761 -0.4003  0.0830
12344SOL     OW38103   4.514   1.941   1.625 -0.0465 -0.2700 -0.0762
12344SOL    HW138104   4.524   1.847   1.609  1.1693  0.1073 -1.7040
12344SOL    HW238105   4.500   1.979   1.538 -3.5096  0.7794  0.7746
12345SOL     OW38106   6.741   4.525   2.484  0.3890  0.6831  0.8584
12345SOL    HW138107   6.646   4.517   2.488  0.3082  0.9302 -0.2451
12345SOL    HW238108   6.773   4.458   2.544 -0.4606 -0.0231  0.5516
12346SOL     OW38109   0.910   7.049   4.688 -0.2547  0.0614 -0.3377
12346SOL    HW138110   0.902   7.142   4.670  1.6785  0.3648  0.0925
12346SOL    HW238111   0.967   7.044   4.765 -0.8539 -1.4627  0.0556
12347SOL     OW38112   7.102   7.821   3.438 -0.5688  0.3336  0.2531
12347SOL    HW138113   7.181   7.873   3.424 -0.8216  0.6466 -0.0347
12347SOL    HW238114   7.039   7.883   3.474  0.2299 -0.5464  3.5401
12348SOL     OW38115   5.063   6.435   8.084 -0.1187  0.1603  0.0997
12348SOL    HW138116   5.067   6.489   8.163 -0.8648 -0.3770  0.5231
12348SOL    HW238117   5.139   6.377   8.091  0.1697  0.5323  0.1032
12349SOL     OW38118   5.520   7.262   3.300 -0.1739 -0.2973  0.8953
12349SOL    HW138119   5.439   7.301   3.269  0.2874  0.1878  0.2797
12349SOL    HW238120   5.493   7.178   3.338 -1.0436  0.1696  1.3385
12350SOL     OW38121   7.321   1.456   4.526 -0.1935  0.0505 -0.3394
12350SOL    HW138122   7.390   1.427   4.467  0.9757  0.6933  0.6839
12350SOL    HW238123   7.339   1.412   4.609  0.0552  1.5679  0.4502
12351SOL     OW38124   1.683   7.749   4.135 -0.0471  0.0825  0.5085
12351SOL    HW138125   1.738   7.671   4.125 -0.4628 -0.1101 -0.3803
12351SOL    HW238126   1.740   7.822   4.114 -0.0620 -0.1025 -0.2051
12352SOL     OW38127   0.754   1.228   3.965 -0.4060 -0.3689 -0.0966
12352SOL    HW138128   0.775   1.167   4.036 -0.4162 -0.0542  0.1781
12352SOL    HW238129   0.840   1.260   3.936 -0.3253 -1.2987 -0.9489
12353SOL     OW38130   2.278   4.689   6.228  0.4078  0.3152 -0.2335
12353SOL    HW138131   2.371   4.710   6.232  0.8495 -1.6575  0.6878
12353SOL    HW238132   2.270   4.626   6.156 -0.4729  1.5209 -1.2424
12354SOL     OW38133   4.968   4.600   4.483 -0.2220  0.1412  0.0425
12354SOL    HW138134   5.064   4.600   4.484 -0.1833 -1.6263 -0.5612
12354SOL    HW238135   4.944   4.535   4.549 -0.8950 -1.7514 -1.9721
12355SOL     OW38136   7.306   2.751   8.111  0.2355  0.4948  0.0609
12355SOL    HW138137   7.338   2.755   8.201  0.5955  0.4602 -0.0654
12355SOL    HW238138   7.374   2.704   8.063  0.0120  0.4508 -0.2150
12356SOL     OW38139   2.930   4.469   2.010 -0.1770 -0.1709  0.7274
12356SOL    HW138140   2.918   4.537   1.943 -0.4822  1.1252  2.0475
12356SOL    HW238141   2.979   4.513   2.080  1.0850 -1.7902  0.9255
12357SOL     OW38142   0.945   4.152   4.321 -0.1902 -0.0070 -0.4557
12357SOL    HW138143   0.989   4.140   4.405 -2.6890 -1.1126  0.8162
12357SOL    HW238144   0.940   4.064   4.284  0.0086  0.3307 -1.2914
12358SOL     OW38145   3.219   4.255   8.041 -0.2698  0.5528  0.3583
12358SOL    HW138146   3.238   4.197   8.114  1.1360 -1.1485 -1.2629
12358SOL    HW238147   3.293   4.315   8.037  0.9607 -0.9589 -1.0969
12359SOL     OW38148   3.404   0.975   2.735  0.1163  0.4974 -0.4473
12359SOL    HW138149   3.395   1.055   2.683  2.4490  2.8909  2.4619
12359SOL    HW238150   3.361   0.995   2.818  0.1062 -1.5925  0.1002
12360SOL     OW38151   6.473   1.478   6.940 -0.2928  0.2012  0.2328
12360SOL    HW138152   6.529   1.423   6.995 -2.5879 -1.4290  1.0846
12360SOL    HW238153   6.512   1.473   6.853 -0.4174 -2.8603  0.2686
12361SOL     OW38154   6.155   5.927   6.175 -0.0603 -0.1659 -0.2057
12361SOL    HW138155   6.226   5.989   6.193 -1.2905  1.7488 -1.4772
12361SOL    HW238156   6.103   5.926   6.255 -1.2365  2.2614 -0.8267
12362SOL     OW38157   5.550   4.257   0.776  0.1678 -0.3338  0.0238
12362SOL    HW138158   5.571   4.180   0.829  0.0471 -0.8280 -0.6246
12362SOL    HW238159   5.596   4.329   0.819 -0.4655 -0.5886  1.1750
12363SOL     OW38160   6.267   1.361   1.640 -0.3156 -0.2560  0.5297
12363SOL    HW138161   6.302   1.393   1.723 -0.4625 -3.2432  1.8759
12363SOL    HW238162   6.344   1.348   1.585 -0.1116  0.7098  0.5736
12364SOL     OW38163   5.452   3.613   0.075  0.5665  0.0865  0.1401
12364SOL    HW138164   5.393   3.670   0.125 -0.0992 -1.5145  1.2850
12364SOL    HW238165   5.527   3.669   0.053 -0.0966  1.4163  1.1117
12365SOL     OW38166   5.543   3.754   5.356 -0.8071 -0.4221  0.7720
12365SOL    HW138167   5.565   3.843   5.327  2.9410 -1.3152  0.4367
12365SOL    HW238168   5.543   3.759   5.451  0.9738 -0.3108  0.7993
12366SOL     OW38169   5.751   5.216   3.228 -0.0717  0.2172 -0.0849
12366SOL    HW138170   5.771   5.194   3.319 -0.9947  1.6623  0.4999
12366SOL    HW238171   5.800   5.296   3.211 -0.2301  0.1829 -0.7204
12367SOL     OW38172   1.067   3.240   8.124  0.3274  0.0959 -0.1841
12367SOL    HW138173   1.105   3.328   8.129  1.2050 -0.2579 -0.4541
12367SOL    HW238174   1.035   3.233   8.034 -0.2918  0.3492  0.0088
12368SOL     OW38175   6.362   2.660   3.534 -0.2355 -0.1512  0.6484
12368SOL    HW138176   6.378   2.702   3.618 -1.5873  0.7076  0.5122
12368SOL    HW238177   6.275   2.621   3.542 -0.1003 -0.6485 -0.1245
12369SOL     OW38178   5.365   4.054   4.644 -0.1427  0.1311 -0.0869
12369SOL    HW138179   5.309   4.068   4.720 -1.6080  1.3994 -1.3307
12369SOL    HW238180   5.392   4.142   4.617  1.5873 -0.3889 -0.1760
12370SOL     OW38181   5.387   6.042   7.822  0.1613 -0.2131  0.0832
12370SOL    HW138182   5.404   6.131   7.790  1.0664 -0.9036 -1.4720
12370SOL    HW238183   5.317   6.053   7.886  0.5125  1.6675  0.2137
12371SOL     OW38184   2.765   2.180   5.753  0.2745  0.2513 -0.0822
12371SOL    HW138185   2.793   2.228   5.675  0.9781 -1.6213 -1.0541
12371SOL    HW238186   2.830   2.109   5.762 -0.3230 -0.1282  1.6718
12372SOL     OW38187   6.217   3.546   0.299 -0.1676 -0.5369 -0.0407
12372SOL    HW138188   6.289   3.527   0.360 -0.0425 -0.8346 -0.2749
12372SOL    HW238189   6.238   3.632   0.264  0.5461 -0.9759 -0.7499
12373SOL     OW38190   5.620   1.436   1.831  0.0333 -0.1818  0.0307
12373SOL    HW138191   5.680   1.386   1.776 -1.1879  0.1712 -1.7380
12373SOL    HW238192   5.547   1.457   1.773 -0.7059  1.4157  1.4404
12374SOL     OW38193   4.869   4.243   6.274 -0.4433 -0.3188 -0.1393
12374SOL    HW138194   4.899   4.227   6.363  0.0070 -0.9628 -0.4020
12374SOL    HW238195   4.946   4.227   6.219 -0.7002  0.1259 -0.6378
12375SOL     OW38196   4.566   3.959   1.483 -0.8658  0.2813  0.2968
12375SOL    HW138197   4.482   3.931   1.519 -0.7257  0.8861  1.1109
12375SOL    HW238198   4.605   4.012   1.552 -0.0817  0.5111 -0.3154
12376SOL     OW38199   2.306   7.628   1.871 -0.2512  0.3694 -0.2815
12376SOL    HW138200   2.266   7.541   1.864  1.1684 -0.2438 -1.0971
12376SOL    HW238201   2.233   7.686   1.896 -1.0176 -1.2039  1.3687
12377SOL     OW38202   3.770   3.520   5.027  0.1261 -0.2731  0.9623
12377SOL    HW138203   3.708   3.546   5.096  0.1167  2.2171  0.1450
12377SOL    HW238204   3.782   3.600   4.976  3.3043 -0.9291  0.4982
12378SOL     OW38205   4.053   7.607   0.173  0.0640 -0.1188  0.1119
12378SOL    HW138206   3.976   7.585   0.120  0.7131 -1.7836 -0.1861
12378SOL    HW238207   4.095   7.679   0.126 -0.5482 -0.1370 -0.4686
12379SOL     OW38208   1.214   3.123   3.552 -0.3520  0.0420 -0.1638
12379SOL    HW138209   1.195   3.073   3.473 -1.5167  0.3428 -0.0836
12379SOL    HW238210   1.222   3.057   3.621  1.4526 -0.2899 -0.6479
12380SOL     OW38211   6.835   4.595   0.171  0.4704 -0.2588 -0.0069
12380SOL    HW138212   6.803   4.508   0.195  1.3449 -1.1959 -1.9596
12380SOL    HW238213   6.904   4.614   0.234  0.5237 -1.1745  0.2240
12381SOL     OW38214   6.245   1.031   4.326 -0.3388  0.3504 -0.2782
12381SOL    HW138215   6.189   0.964   4.288 -1.0892  0.9885 -0.3242
12381SOL    HW238216   6.266   0.998   4.414  1.7181 -1.3194 -1.3049
12382SOL     OW38217   3.723   3.059   4.973 -0.0440 -0.0079 -0.0538
12382SOL    HW138218   3.809   3.037   4.938  1.1839 -1.5238  3.4836
12382SOL    HW238219   3.670   2.981   4.957 -0.0011 -0.0392 -0.0436
12383SOL     OW38220   4.000   6.978   3.389 -0.8312 -0.0734  0.1820
12383SOL    HW138221   3.969   6.888   3.382 -0.7612 -0.0998  0.2058
12383SOL    HW238222   4.095   6.971   3.384 -0.8111 -0.0304  0.4935
12384SOL     OW38223   1.857   7.364   1.980  0.1670 -0.0457 -0.7029
12384SOL    HW138224   1.831   7.349   1.889  1.2359  0.9936 -1.1937
12384SOL    HW238225   1.791   7.424   2.014  0.7164  0.9326 -1.3216
12385SOL     OW38226   1.579   2.336   0.458  0.1120 -0.2304 -0.4218
12385SOL    HW138227   1.553   2.414   0.408 -0.0837 -0.0678 -0.0641
12385SOL    HW238228   1.672   2.325   0.436 -0.8858 -2.8505 -4.5018
12386SOL     OW38229   1.702   3.630   7.178 -0.4604  0.7867  0.1927
12386SOL    HW138230   1.757   3.705   7.155 -0.4903  0.9450  0.6332
12386SOL    HW238231   1.663   3.604   7.095  0.3139  0.6412 -0.1369
12387SOL     OW38232   4.006   3.531   3.295 -0.3924 -0.4500 -0.1107
12387SOL    HW138233   4.030   3.445   3.329  0.4313 -0.6350 -1.1228
12387SOL    HW238234   3.922   3.518   3.252  0.1855 -0.9877 -1.1182
12388SOL     OW38235   3.744   7.634   6.592  0.1338 -0.1735  0.3816
12388SOL    HW138236   3.659   7.666   6.620 -0.5681 -1.3978 -0.2838
12388SOL    HW238237   3.729   7.544   6.565  1.3142  0.0570 -1.2543
12389SOL     OW38238   7.112   3.030   1.459 -0.0070  0.0159  0.1929
12389SOL    HW138239   7.208   3.037   1.453  0.2146  0.6945  3.1958
12389SOL    HW238240   7.094   2.936   1.456  0.7945 -0.1437  0.1932
12390SOL     OW38241   3.304   2.890   5.535  0.1752  1.1924  0.2511
12390SOL    HW138242   3.315   2.879   5.440 -0.6824 -1.3422  0.3696
12390SOL    HW238243   3.247   2.967   5.543 -0.7838  0.7110 -1.3818
12391SOL     OW38244   5.861   2.646   0.251  0.3629 -1.0218  0.5295
12391SOL    HW138245   5.871   2.616   0.160 -0.9512 -0.6467  0.2371
12391SOL    HW238246   5.767   2.642   0.267  0.4352  0.2598  1.4219
12392SOL     OW38247   3.654   6.317   0.915  0.4116 -0.3800 -0.2196
12392SOL    HW138248   3.724   6.366   0.872 -0.5691  0.2857 -1.0909
12392SOL    HW238249   3.647   6.235   0.866 -0.5019  0.2499 -1.1721
12393SOL     OW38250   1.101   4.242   6.020 -0.2068 -0.2089  0.1442
12393SOL    HW138251   1.094   4.268   6.112  1.5326  0.1846  0.1868
12393SOL    HW238252   1.169   4.298   5.984 -2.7857  1.7347 -2.1808
12394SOL     OW38253   1.971   3.603   5.400 -0.3665 -0.4259  0.0416
12394SOL    HW138254   1.998   3.687   5.362 -1.9130 -0.4262 -1.0949
12394SOL    HW238255   2.017   3.537   5.348  0.6670 -0.3345  0.7887
12395SOL     OW38256   2.274   6.814   5.735  0.1114  0.1981 -0.1402
12395SOL    HW138257   2.305   6.904   5.745  0.6673  0.1131 -1.0028
12395SOL    HW238258   2.350   6.766   5.703  0.3023 -0.9453  1.8664
12396SOL     OW38259   7.338   7.873   4.564  0.0622  0.4245 -0.5663
12396SOL    HW138260   7.390   7.951   4.581 -0.8208  0.7794  0.6443
12396SOL    HW238261   7.352   7.854   4.472  1.6408  1.0074 -0.4682
12397SOL     OW38262   2.285   0.841   5.195 -0.1958 -0.1359  0.9812
12397SOL    HW138263   2.320   0.845   5.106  2.0088 -2.7020  1.6033
12397SOL    HW238264   2.336   0.907   5.244 -1.1764  1.0336  0.4922
12398SOL     OW38265   3.886   1.438   1.704 -0.0175  0.3318 -0.1982
12398SOL    HW138266   3.865   1.347   1.680 -2.2345  0.2307  1.7408
12398SOL    HW238267   3.943   1.430   1.781  0.1326  0.5786 -0.2831
12399SOL     OW38268   4.750   6.634   7.935 -0.4226  0.0860 -0.4880
12399SOL    HW138269   4.777   6.701   7.872 -2.8459  0.0273 -1.7053
12399SOL    HW238270   4.795   6.554   7.906  0.9396  0.7370 -0.2160
12400SOL     OW38271   2.765   7.393   0.383 -0.7527  0.6672  0.4611
12400SOL    HW138272   2.746   7.306   0.418 -1.6368  0.4952 -0.3855
12400SOL    HW238273   2.681   7.439   0.389 -1.0397  0.5311 -1.6278
12401SOL     OW38274   4.314   1.191   6.816  0.4166  0.0405  0.1612
12401SOL    HW138275   4.403   1.217   6.790  0.3939  1.1378  1.1005
12401SOL    HW238276   4.325   1.152   6.903 -0.0371  0.4089  0.3882
12402SOL     OW38277   7.090   6.981   2.061 -0.2898  0.2552 -0.2813
12402SOL    HW138278   7.039   6.930   2.124 -0.6311  1.5387  0.5336
12402SOL    HW238279   7.031   6.993   1.987  0.3791 -1.9205 -1.2564
12403SOL     OW38280   6.851   3.883   7.518  0.4557  0.3819  0.5764
12403SOL    HW138281   6.793   3.888   7.442 -0.3407 -0.3505  1.1079
12403SOL    HW238282   6.932   3.925   7.490 -0.0751  0.7576 -0.4355
12404SOL     OW38283   3.054   3.760   0.162 -0.2716 -0.5031  0.3293
12404SOL    HW138284   3.132   3.713   0.133  1.2521  1.9175  0.2681
12404SOL    HW238285   3.064   3.767   0.257 -1.6493 -2.1766  0.6542
12405SOL     OW38286   2.669   5.395   0.659 -0.3505  0.9167  0.0903
12405SOL    HW138287   2.681   5.485   0.690  1.4984  0.6050  0.4172
12405SOL    HW238288   2.611   5.354   0.723  0.4546  1.3167  1.0852
12406SOL     OW38289   7.272   3.657   6.593 -0.1613 -0.0146  0.1612
12406SOL    HW138290   7.299   3.716   6.523  1.6307 -1.8253 -0.8060
12406SOL    HW238291   7.184   3.628   6.568  0.0747  0.1013 -0.8354
12407SOL     OW38292   3.121   7.548   6.453  0.2814 -0.4356 -0.2337
12407SOL    HW138293   3.212   7.526   6.434  1.2382  0.8767  2.2936
12407SOL    HW238294   3.071   7.472   6.423  2.2480 -1.4283 -1.1845
12408SOL     OW38295   1.910   5.706   5.744 -0.1221  0.0271  0.4592
12408SOL    HW138296   1.991   5.727   5.697 -0.9715 -0.7782 -1.4551
12408SOL    HW238297   1.902   5.611   5.737 -1.8750  0.2146 -0.5067
12409SOL     OW38298   3.905   5.287   5.912  0.2416  0.0041 -0.3954
12409SOL    HW138299   3.991   5.312   5.947  0.2260  0.0666 -0.4017
12409SOL    HW238300   3.847   5.290   5.988  0.5542 -1.5912 -0.0406
12410SOL     OW38301   7.660   3.306   5.358 -0.1491  0.0302  0.7222
12410SOL    HW138302   7.672   3.386   5.306  1.6974  0.2935  1.4692
12410SOL    HW238303   7.671   3.235   5.295  1.1665  0.3611  0.5460
12411SOL     OW38304   4.018   3.079   0.810  0.0011 -0.0936  0.1520
12411SOL    HW138305   3.985   3.169   0.810  2.0310  0.7457 -1.9489
12411SOL    HW238306   4.091   3.080   0.872  0.5148 -0.0702 -0.4435
12412SOL     OW38307   1.647   5.312   3.436 -0.2775  0.1244 -0.5840
12412SOL    HW138308   1.694   5.229   3.425 -1.3199 -0.6085  0.2716
12412SOL    HW238309   1.596   5.322   3.356 -0.6731 -0.4175 -0.4044
12413SOL     OW38310   4.015   7.428   5.938 -0.2630  0.0413  0.4935
12413SOL    HW138311   3.993   7.510   5.894  0.7883  0.4414  0.6734
12413SOL    HW238312   4.110   7.430   5.945 -0.3563 -0.0780  2.6007
12414SOL     OW38313   6.772   4.056   1.914 -0.4190 -0.1729 -0.1213
12414SOL    HW138314   6.684   4.034   1.884 -0.0017 -0.9020 -0.8638
12414SOL    HW238315   6.758   4.110   1.992 -1.5170 -1.2517  0.4684
12415SOL     OW38316   6.486   4.171   5.260  0.2586 -0.0462 -0.1057
12415SOL    HW138317   6.517   4.252   5.219  2.3322  0.1675  1.7044
12415SOL    HW238318   6.391   4.176   5.254  0.3832  1.7661 -1.4132
12416SOL     OW38319   4.856   0.538   5.278  0.0793 -0.4551  0.0767
12416SOL    HW138320   4.822   0.558   5.365 -0.9496  1.3773 -0.6848
12416SOL    HW238321   4.928   0.600   5.265  1.9330 -2.3821  0.5339
12417SOL     OW38322   4.681   5.877   2.354  0.4094 -0.1496 -0.1580
12417SOL    HW138323   4.740   5.822   2.405 -1.7247 -4.8276 -2.2236
12417SOL    HW238324   4.626   5.920   2.419  2.0103 -0.6199  1.5867
12418SOL     OW38325   2.948   7.733   6.361 -0.0004  0.2211 -0.4950
12418SOL    HW138326   3.012   7.672   6.397 -2.1766 -2.5530 -0.9394
12418SOL    HW238327   2.962   7.729   6.266 -0.3675  0.1098 -0.5471
12419SOL     OW38328   7.016   3.529   4.274  0.1681 -0.5207 -0.4422
12419SOL    HW138329   7.074   3.594   4.315 -0.5845  0.0913 -0.3237
12419SOL    HW238330   7.022   3.453   4.332  0.0517 -0.0880  0.1573
12420SOL     OW38331   1.830   2.523   7.936 -0.1470  0.5867  0.5435
12420SOL    HW138332   1.857   2.578   7.863  2.3293  0.7856  1.5035
12420SOL    HW238333   1.809   2.439   7.896 -1.8085  1.5268 -0.6802
12421SOL     OW38334   5.402   6.049   5.211 -0.3426 -0.1861  0.0526
12421SOL    HW138335   5.344   6.125   5.221 -0.9168 -0.6064 -0.0009
12421SOL    HW238336   5.467   6.078   5.147 -1.1374 -0.0570 -0.7326
12422SOL     OW38337   6.528   5.653   2.609 -0.1846  0.0040 -0.2777
12422SOL    HW138338   6.530   5.611   2.696 -2.8370  0.5468  0.1279
12422SOL    HW238339   6.562   5.741   2.624  1.0556 -0.4787 -0.1784
12423SOL     OW38340   2.282   1.338   6.415  0.5871  0.1469  0.8450
12423SOL    HW138341   2.251   1.274   6.479  0.0528 -0.7507 -0.2542
12423SOL    HW238342   2.262   1.423   6.454  0.4213 -0.3664  1.9190
12424SOL     OW38343   1.150   1.616   8.024 -0.1374  0.4996 -0.5716
12424SOL    HW138344   1.229   1.636   7.974 -0.3991  0.3715 -1.0402
12424SOL    HW238345   1.145   1.684   8.091 -0.8924  1.9011 -1.9997
12425SOL     OW38346   2.560   5.558   8.114 -0.1383  0.1283  0.0886
12425SOL    HW138347   2.619   5.563   8.039  0.2373 -0.2984  0.3455
12425SOL    HW238348   2.584   5.633   8.168  1.6846 -1.1843  1.2427
12426SOL     OW38349   1.442   1.984   6.144  0.3445 -0.1819 -0.1279
12426SOL    HW138350   1.391   1.963   6.222 -0.3184  1.1666 -0.1595
12426SOL    HW238351   1.454   1.901   6.100 -0.6271 -0.7369  0.6133
12427SOL     OW38352   3.750   4.485   1.816  0.2889  0.3271 -0.3954
12427SOL    HW138353   3.717   4.432   1.743  0.3016  0.3242 -0.3990
12427SOL    HW238354   3.803   4.553   1.774  0.5457  0.1455 -0.3670
12428SOL     OW38355   4.042   7.363   5.402 -0.1717  0.1806  0.5622
12428SOL    HW138356   4.011   7.412   5.478  1.9722 -0.3710  1.8694
12428SOL    HW238357   4.079   7.283   5.438 -0.0600 -0.6144 -1.1942
12429SOL     OW38358   5.206   2.745   0.530  0.6833 -0.0177 -0.0961
12429SOL    HW138359   5.242   2.707   0.451 -0.2188  0.9914 -1.0266
12429SOL    HW238360   5.216   2.839   0.519 -2.2933  0.3614 -0.5179
12430SOL     OW38361   3.808   3.667   0.366  0.1353 -0.4020 -0.3582
12430SOL    HW138362   3.836   3.578   0.346  0.0141 -0.1613 -1.7086
12430SOL    HW238363   3.779   3.663   0.457  1.1311 -1.4812 -0.0627
12431SOL     OW38364   1.516   2.756   2.828 -0.7033 -0.1324  0.4284
12431SOL    HW138365   1.553   2.716   2.906 -2.5463 -2.7086  0.1239
12431SOL    HW238366   1.558   2.711   2.755 -0.8340  0.4508 -0.0216
12432SOL     OW38367   2.418   3.192   1.559 -0.2555 -0.1937 -0.2095
12432SOL    HW138368   2.465   3.275   1.551  0.7530 -0.8557 -1.5751
12432SOL    HW238369   2.328   3.212   1.535 -0.1056  0.5785 -0.1352
12433SOL     OW38370   3.322   4.968   4.808  0.0582 -0.9780  0.3408
12433SOL    HW138371   3.372   5.035   4.760  0.4793 -1.3449  0.2505
12433SOL    HW238372   3.389   4.921   4.858 -0.2184 -1.3867  0.3287
12434SOL     OW38373   0.432   6.514   4.271  0.0170  0.0278  0.1518
12434SOL    HW138374   0.505   6.574   4.279 -0.6223  0.9960 -0.9784
12434SOL    HW238375   0.467   6.429   4.300  1.6121  0.4342 -0.4873
12435SOL     OW38376   3.859   0.149   2.040  0.4784  0.2397  0.1399
12435SOL    HW138377   3.880   0.058   2.062  2.8206  0.9271  1.1432
12435SOL    HW238378   3.838   0.147   1.947  1.8558 -1.1642 -0.1929
12436SOL     OW38379   1.943   5.331   6.801  0.2542 -0.2460 -0.3989
12436SOL    HW138380   1.848   5.323   6.793 -0.1659  1.8998  1.4542
12436SOL    HW238381   1.964   5.287   6.883  0.1211  2.9417  1.5148
12437SOL     OW38382   1.412   3.426   0.376 -0.4432  0.4172  0.3618
12437SOL    HW138383   1.323   3.439   0.345 -0.9497 -0.1976  1.4865
12437SOL    HW238384   1.438   3.511   0.412 -0.5580  0.5980  0.0220
12438SOL     OW38385   0.424   6.799   6.145  0.0824  0.0255  0.2756
12438SOL    HW138386   0.361   6.762   6.207 -0.5247 -0.0131 -0.3507
12438SOL    HW238387   0.396   6.890   6.134  2.1084  1.0412  2.5182
12439SOL     OW38388   4.349   6.313   2.304 -0.0383 -0.5838  0.2565
12439SOL    HW138389   4.317   6.244   2.362 -1.1683  0.2649  0.6792
12439SOL    HW238390   4.275   6.332   2.247  0.4808 -0.1802 -0.2887
12440SOL     OW38391   1.031   7.214   6.823  0.1167 -0.4273  0.1180
12440SOL    HW138392   1.061   7.155   6.892  0.3760 -3.0779 -2.0760
12440SOL    HW238393   0.937   7.197   6.815 -0.4962  1.8541  1.5043
12441SOL     OW38394   2.949   4.239   7.940  0.0186 -0.2521 -0.1752
12441SOL    HW138395   2.960   4.273   7.851  3.0079 -0.3689  0.0662
12441SOL    HW238396   3.026   4.270   7.987 -0.7709 -1.4141  2.0166
12442SOL     OW38397   4.705   0.086   6.090  0.0888 -0.0777 -0.2675
12442SOL    HW138398   4.705   0.182   6.097  0.0764 -0.0924 -0.0550
12442SOL    HW238399   4.628   0.059   6.140 -0.5264 -0.1370 -1.2247
12443SOL     OW38400   6.336   2.434   4.097  0.3904 -0.4388  0.5659
12443SOL    HW138401   6.272   2.404   4.032  0.0722  0.4963  0.4407
12443SOL    HW238402   6.419   2.436   4.049 -0.0297  1.3038 -0.1469
12444SOL     OW38403   2.186   0.724   7.212  0.4420  0.1752 -0.4568
12444SOL    HW138404   2.192   0.779   7.290  2.0821 -0.9447  0.2600
12444SOL    HW238405   2.139   0.646   7.241 -1.0665  0.7754 -1.2300
12445SOL     OW38406   7.084   0.795   4.671  0.1282  0.1803 -1.0427
12445SOL    HW138407   7.131   0.833   4.597  0.1859 -0.4603 -1.3491
12445SOL    HW238408   7.062   0.869   4.727  1.3444  0.5163 -0.9860
12446SOL     OW38409   3.468   5.410   4.013 -0.0667 -0.4210 -0.4723
12446SOL    HW138410   3.498   5.329   4.053 -1.2943  0.0728  1.5571
12446SOL    HW238411   3.531   5.426   3.943 -0.0125 -3.2908 -1.2114
12447SOL     OW38412   6.587   6.728   1.184 -0.0008 -0.0911 -0.0426
12447SOL    HW138413   6.508   6.752   1.232 -0.8781  0.9673 -1.9230
12447SOL    HW238414   6.556   6.705   1.096  1.6671 -0.6813 -0.5071
12448SOL     OW38415   1.596   4.955   0.286  0.9809  0.7051 -0.3415
12448SOL    HW138416   1.531   5.012   0.326  1.8101  0.3951  1.5669
12448SOL    HW238417   1.545   4.886   0.243  0.0136  2.1606 -1.5875
12449SOL     OW38418   7.937   7.532   7.688 -0.6379 -0.1126  0.1343
12449SOL    HW138419   8.021   7.496   7.660 -1.9184 -1.2856 -2.6258
12449SOL    HW238420   7.957   7.585   7.764  2.7113  0.1940 -0.8254
12450SOL     OW38421   2.723   0.050   2.318 -0.0500  0.1806  0.1686
12450SOL    HW138422   2.695  -0.020   2.258  1.5654  0.2373 -0.7053
12450SOL    HW238423   2.697   0.019   2.405 -2.2873  0.0106 -0.4782
12451SOL     OW38424   6.103   0.690   4.827 -0.2052 -0.1427 -0.7697
12451SOL    HW138425   6.100   0.745   4.905  2.0703 -0.8353 -0.1248
12451SOL    HW238426   6.074   0.604   4.857  1.7150 -0.6891 -0.3682
12452SOL     OW38427   0.231   4.573   1.001 -0.2014 -0.0232  0.0979
12452SOL    HW138428   0.236   4.480   1.020  2.4307 -0.1483 -0.8202
12452SOL    HW238429   0.175   4.579   0.923 -0.4005 -0.8156  0.1708
12453SOL     OW38430   4.321   7.970   8.109 -0.0579 -0.0820 -0.5995
12453SOL    HW138431   4.378   7.893   8.101 -0.4371 -0.5057  0.6394
12453SOL    HW238432   4.233   7.934   8.116 -0.4760  0.5610 -2.1213
12454SOL     OW38433   1.117   5.239   0.315 -0.2456  0.1279 -0.3183
12454SOL    HW138434   1.095   5.332   0.307 -1.0264  0.0974  1.0477
12454SOL    HW238435   1.126   5.209   0.225  0.0596  1.5311 -0.7863
12455SOL     OW38436   0.149   7.630   1.335  0.1547  0.1724 -0.4668
12455SOL    HW138437   0.179   7.585   1.255  0.0795  0.5169 -0.6906
12455SOL    HW238438   0.143   7.560   1.400 -4.7037 -1.2641 -1.9910
12456SOL     OW38439   0.902   3.177   5.368 -0.7760 -0.2882  0.1346
12456SOL    HW138440   0.963   3.167   5.441 -0.7349 -1.0793 -0.0096
12456SOL    HW238441   0.844   3.248   5.397  0.5851  0.9415 -0.0052
12457SOL     OW38442   5.331   3.068   6.655 -0.7086  0.1358  0.1339
12457SOL    HW138443   5.301   3.066   6.564  0.4677 -0.5819 -0.2625
12457SOL    HW238444   5.329   3.161   6.679  1.4645  0.6935 -1.5303
12458SOL     OW38445   3.065   4.445   5.741  0.1899  0.5610  0.0418
12458SOL    HW138446   2.994   4.415   5.684  0.3068  1.7146 -0.7489
12458SOL    HW238447   3.125   4.492   5.682  0.6160  1.2647  1.0095
12459SOL     OW38448   3.123   0.759   6.379  0.2890 -0.4330 -0.3122
12459SOL    HW138449   3.054   0.735   6.317 -1.4299  1.7238  0.6045
12459SOL    HW238450   3.125   0.687   6.443 -1.8599 -0.1280  0.1708
12460SOL     OW38451   0.206   4.655   0.288  0.1957 -0.2046  0.3398
12460SOL    HW138452   0.111   4.648   0.280  0.0385  1.8333 -0.1695
12460SOL    HW238453   0.229   4.592   0.356 -1.8016  0.7570  2.0186
12461SOL     OW38454   1.781   0.549   6.601  0.7645  0.4605 -0.0295
12461SOL    HW138455   1.812   0.605   6.530  1.3795 -0.8220 -0.8113
12461SOL    HW238456   1.847   0.560   6.670  1.4070  0.0004 -0.5481
12462SOL     OW38457   0.739   1.029   6.132 -0.1740 -0.4437 -0.7011
12462SOL    HW138458   0.652   1.025   6.172  0.1198 -1.8680 -0.1495
12462SOL    HW238459   0.756   0.940   6.101  1.1153 -0.2022 -0.7553
12463SOL     OW38460   6.862   1.688   3.388  0.4640 -0.4231 -0.7014
12463SOL    HW138461   6.955   1.701   3.369  0.9898 -0.0840  1.7847
12463SOL    HW238462   6.819   1.765   3.351  1.7034  1.3382  1.3075
12464SOL     OW38463   0.889   4.539   5.127  0.5650  0.4539  0.2365
12464SOL    HW138464   0.882   4.634   5.121  0.3969  0.4055 -0.4076
12464SOL    HW238465   0.806   4.506   5.093  0.9906  0.0609 -0.4652
12465SOL     OW38466   0.062   0.164   0.542 -0.2440 -0.1688  0.0350
12465SOL    HW138467   0.097   0.172   0.631  1.4707 -0.8766 -0.5461
12465SOL    HW238468   0.116   0.223   0.490 -1.4562  0.4973 -0.5268
12466SOL     OW38469   5.534   3.836   4.284  0.4562 -0.0498  0.6251
12466SOL    HW138470   5.544   3.870   4.373  0.4199  1.5404  0.0527
12466SOL    HW238471   5.591   3.893   4.231  0.3604 -0.8803 -0.3895
12467SOL     OW38472   5.444   0.742   4.711 -0.1135 -1.1542 -0.2627
12467SOL    HW138473   5.350   0.753   4.700 -0.0589 -1.7039 -1.5239
12467SOL    HW238474   5.482   0.824   4.680 -0.1963 -0.5758  1.1022
12468SOL     OW38475   6.579   1.854   0.800  0.4660  0.2476 -0.7802
12468SOL    HW138476   6.519   1.793   0.758  0.5099 -0.2231 -0.1798
12468SOL    HW238477   6.658   1.803   0.816 -0.2452 -0.1798  1.6643
12469SOL     OW38478   4.348   6.717   5.257  0.4834 -0.3521  0.4720
12469SOL    HW138479   4.344   6.771   5.336  0.4480 -0.4542  0.5411
12469SOL    HW238480   4.394   6.771   5.193  0.7844 -0.3885  0.6560
12470SOL     OW38481   5.556   6.123   2.650 -0.0292  0.0698 -0.2964
12470SOL    HW138482   5.578   6.200   2.703 -1.3721  1.5654 -1.7870
12470SOL    HW238483   5.628   6.115   2.589 -0.3482  0.8023 -0.7895
12471SOL     OW38484   1.025   4.974   2.709 -0.5590 -0.2946  0.3602
12471SOL    HW138485   1.120   4.957   2.711 -0.5087 -0.1645 -0.4501
12471SOL    HW238486   0.992   4.932   2.788  0.2838  0.3547  1.0888
12472SOL     OW38487   0.790   0.043   7.435 -0.5423 -0.4201 -0.1235
12472SOL    HW138488   0.787  -0.052   7.450 -2.6318 -0.9208 -2.8675
12472SOL    HW238489   0.781   0.081   7.522 -1.2820 -2.7665  0.9112
12473SOL     OW38490   5.901   4.131   0.788  0.0374 -0.0938  0.0914
12473SOL    HW138491   5.869   4.220   0.776 -2.5518 -0.8097  0.8799
12473SOL    HW238492   5.822   4.077   0.782  1.0714 -2.0594  2.5269
12474SOL     OW38493   1.165   3.472   6.393 -0.6449 -0.1529  0.3887
12474SOL    HW138494   1.114   3.521   6.330  0.4766  0.9001  0.2696
12474SOL    HW238495   1.229   3.424   6.340  0.8791  1.4167  0.7202
12475SOL     OW38496   6.895   4.903   7.105  0.2208  0.2033  0.1827
12475SOL    HW138497   6.852   4.827   7.144  1.7125 -1.3646 -1.1153
12475SOL    HW238498   6.952   4.867   7.038 -0.1568  2.6040 -1.5426
12476SOL     OW38499   0.769   0.796   0.732  0.2689 -0.3957 -0.2557
12476SOL    HW138500   0.694   0.852   0.710  0.4129 -1.0290 -2.7291
12476SOL    HW238501   0.746   0.758   0.817 -1.6349  0.4201 -0.3453
12477SOL     OW38502   1.740   7.029   3.393  0.4902  0.6854  0.0326
12477SOL    HW138503   1.650   7.049   3.416  0.2893 -0.5671  0.4221
12477SOL    HW238504   1.783   7.114   3.384 -0.1505  1.2956  2.2068
12478SOL     OW38505   4.031   5.361   4.180  0.3941  0.5224  0.1175
12478SOL    HW138506   3.948   5.337   4.140 -0.0444  1.6247  0.3243
12478SOL    HW238507   4.098   5.320   4.125 -0.1746  1.9565 -1.7517
12479SOL     OW38508   2.874   6.419   6.242  0.1181 -0.9781  0.7828
12479SOL    HW138509   2.947   6.366   6.276 -0.8575 -0.5931  3.7148
12479SOL    HW238510   2.815   6.355   6.203  1.6398 -1.3591 -1.0668
12480SOL     OW38511   1.854   6.665   7.205 -0.3564  0.0146  0.2056
12480SOL    HW138512   1.819   6.725   7.140 -0.5840 -0.3104  0.0259
12480SOL    HW238513   1.859   6.580   7.160 -0.5384 -0.2183  0.6162
12481SOL     OW38514   5.766   2.771   5.771 -0.4404  0.0764 -0.8480
12481SOL    HW138515   5.746   2.738   5.684  0.0121 -0.4207 -0.7720
12481SOL    HW238516   5.720   2.712   5.831  0.2667 -0.3504 -0.7155
12482SOL     OW38517   7.190   5.181   2.251  0.1114  0.4166 -0.0153
12482SOL    HW138518   7.184   5.122   2.175 -0.8676 -0.0647  0.4224
12482SOL    HW238519   7.212   5.266   2.213  4.5019 -0.6464 -0.4850
12483SOL     OW38520   7.378   0.804   3.192  0.8142  0.4615 -0.3182
12483SOL    HW138521   7.411   0.749   3.263 -1.3285 -1.0012 -0.3781
12483SOL    HW238522   7.324   0.746   3.140  1.0854  1.8862 -2.3026
12484SOL     OW38523   4.408   3.623   1.935 -0.2006 -0.0131 -0.3741
12484SOL    HW138524   4.345   3.683   1.973  0.2766  0.9520 -1.0791
12484SOL    HW238525   4.464   3.597   2.009 -0.5231  0.2592 -0.0301
12485SOL     OW38526   3.436   7.780   0.117 -0.0360  0.2879  0.3855
12485SOL    HW138527   3.430   7.829   0.035  0.5421 -0.6216 -0.2193
12485SOL    HW238528   3.380   7.703   0.103 -3.0278  1.9333  2.2495
12486SOL     OW38529   0.273   4.917   1.439 -0.2346  0.1720 -0.4796
12486SOL    HW138530   0.365   4.892   1.445 -0.3420 -0.1738 -0.2527
12486SOL    HW238531   0.253   4.915   1.345  0.1931  0.9989 -0.5939
12487SOL     OW38532   0.544   7.659   2.324  0.9407 -0.2075  0.1881
12487SOL    HW138533   0.544   7.638   2.231 -0.1053  2.7455 -0.5987
12487SOL    HW238534   0.484   7.596   2.364  0.1019 -0.4954 -1.4522
12488SOL     OW38535   4.991   8.114   6.547 -0.1677  0.1139  0.8918
12488SOL    HW138536   4.906   8.149   6.576 -0.6539  0.7495 -1.1610
12488SOL    HW238537   5.036   8.190   6.509  0.9808 -0.4030  1.1920
12489SOL     OW38538   2.158   0.462   1.994  0.2689 -0.1887  0.0905
12489SOL    HW138539   2.122   0.446   2.081 -0.3742  0.3162 -0.0696
12489SOL    HW238540   2.220   0.534   2.007 -2.2962  2.2999 -0.3525
12490SOL     OW38541   7.556   1.252   2.350  0.1742 -0.4808  0.8644
12490SOL    HW138542   7.532   1.216   2.265  0.3486  2.2265 -0.4257
12490SOL    HW238543   7.473   1.281   2.388  0.3692  0.7554  0.3828
12491SOL     OW38544   2.935   6.240   4.938 -0.2858  0.3385 -0.7152
12491SOL    HW138545   2.863   6.212   4.994 -0.0072  0.5963 -0.2186
12491SOL    HW238546   2.946   6.169   4.876  0.1746 -0.4946  0.3035
12492SOL     OW38547   0.399   1.754   7.644 -0.2224 -0.9762 -0.2895
12492SOL    HW138548   0.416   1.662   7.666  2.2428 -0.3757  0.5757
12492SOL    HW238549   0.347   1.749   7.563  0.1772 -3.1160 -0.4880
12493SOL     OW38550   3.374   4.464   7.386  0.5155 -0.2216  0.5200
12493SOL    HW138551   3.326   4.524   7.328 -0.9874  0.5864  2.4749
12493SOL    HW238552   3.339   4.377   7.365 -0.2233  0.0984  0.3984
12494SOL     OW38553   7.336   3.884   7.288  0.0434  0.3825 -0.1112
12494SOL    HW138554   7.330   3.967   7.336 -1.2242  0.3795 -0.2233
12494SOL    HW238555   7.430   3.865   7.284  0.1976 -0.5834  4.0019
12495SOL     OW38556   0.194   1.987   5.978  0.1052 -0.4808 -0.2349
12495SOL    HW138557   0.246   1.959   6.053  1.7424  0.4035 -1.0042
12495SOL    HW238558   0.204   2.083   5.977  0.5261 -0.5287 -1.8830
12496SOL     OW38559   1.682   6.361   0.239  0.0095 -0.0008 -0.8158
12496SOL    HW138560   1.643   6.409   0.166 -2.9292 -0.0993  0.5580
12496SOL    HW238561   1.677   6.269   0.212 -3.6729 -0.3310  0.4202
12497SOL     OW38562   4.699   4.774   3.017 -0.3260  0.4297  0.0330
12497SOL    HW138563   4.737   4.711   2.957  0.3602  0.1193  0.7734
12497SOL    HW238564   4.748   4.855   3.000 -0.2532  0.3901  0.0532
12498SOL     OW38565   7.967   5.176   0.425 -0.2246 -0.3391 -0.8697
12498SOL    HW138566   7.923   5.235   0.364  2.3969  1.5453 -1.0972
12498SOL    HW238567   7.953   5.215   0.511 -0.6409 -0.8451 -0.7001
12499SOL     OW38568   7.856   7.533   3.363  0.1085 -0.0335  0.0936
12499SOL    HW138569   7.775   7.535   3.413  0.3388  1.1699  0.4631
12499SOL    HW238570   7.830   7.561   3.275  0.4490  2.9764  0.8220
12500SOL     OW38571   7.960   6.887   2.101 -0.1556  0.2459 -0.0246
12500SOL    HW138572   7.964   6.890   2.005  1.6993  0.4894  0.0088
12500SOL    HW238573   7.868   6.871   2.121 -0.5552 -0.0000 -1.8492
12501SOL     OW38574   4.880   7.503   6.596 -0.9005  0.0924 -0.1288
12501SOL    HW138575   4.864   7.506   6.690  0.6150 -0.4585  0.1723
12501SOL    HW238576   4.812   7.558   6.558 -1.4815  0.3843  1.2906
12502SOL     OW38577   4.762   5.842   0.382 -0.1747  0.5010 -0.1121
12502SOL    HW138578   4.706   5.853   0.306  0.2855 -0.6300 -0.6487
12502SOL    HW238579   4.737   5.912   0.442 -0.6931  1.2774 -1.2130
12503SOL     OW38580   3.519   4.553   2.336  0.2364  0.3593 -0.7697
12503SOL    HW138581   3.438   4.511   2.366  0.2872 -0.6318 -1.9091
12503SOL    HW238582   3.574   4.559   2.414 -0.8263  0.7980 -0.0342
12504SOL     OW38583   2.877   7.965   4.488 -0.4318  0.7559 -0.3031
12504SOL    HW138584   2.852   8.030   4.554 -0.2292  0.1924  0.3429
12504SOL    HW238585   2.872   7.881   4.534  0.1852  0.3973 -0.8733
12505SOL     OW38586   7.497   6.988   2.272 -0.1467  0.5349  0.0596
12505SOL    HW138587   7.455   6.995   2.187 -0.7315  3.3899  0.4866
12505SOL    HW238588   7.589   7.011   2.255  0.1946 -0.7899 -0.0502
12506SOL     OW38589   3.169   1.000   1.631  0.4811  0.3370  0.0667
12506SOL    HW138590   3.202   0.968   1.715  0.9997 -0.7177 -0.5200
12506SOL    HW238591   3.125   0.924   1.593  2.5586 -0.0266 -1.7883
12507SOL     OW38592   5.963   5.233   1.998  0.2831  0.1599 -0.1581
12507SOL    HW138593   5.872   5.250   2.023  0.3979  0.7277 -0.1136
12507SOL    HW238594   5.994   5.317   1.965  1.1484  0.2698  0.9141
12508SOL     OW38595   5.178   6.085   1.707  0.0411  0.1477 -0.0282
12508SOL    HW138596   5.252   6.119   1.657  0.1411  2.2797  1.4547
12508SOL    HW238597   5.103   6.138   1.678 -0.7241 -1.2342 -0.6932
12509SOL     OW38598   1.154   6.281   4.427 -0.1083 -0.6356 -0.0583
12509SOL    HW138599   1.140   6.362   4.476  2.4156 -0.7048  0.9443
12509SOL    HW238600   1.175   6.310   4.338  0.7668 -0.1688  0.2914
12510SOL     OW38601   3.947   4.878   4.413 -0.0600  0.1585  0.4529
12510SOL    HW138602   4.041   4.883   4.428 -0.2197  1.8298  1.1480
12510SOL    HW238603   3.923   4.963   4.376 -1.3050 -0.2155  0.3271
12511SOL     OW38604   4.634   0.080   5.674  0.1254  0.2165  0.3495
12511SOL    HW138605   4.540   0.069   5.692  0.1715  0.6566  0.9066
12511SOL    HW238606   4.644   0.174   5.658  0.1347 -0.1080 -1.8037
12512SOL     OW38607   4.987   7.570   0.648  0.5500 -0.3082  0.1900
12512SOL    HW138608   4.980   7.659   0.614 -0.2524 -0.2036  0.6094
12512SOL    HW238609   4.898   7.535   0.643  0.9465 -1.2752 -0.4629
12513SOL     OW38610   7.632   3.647   2.039 -0.0772  0.4839  0.2807
12513SOL    HW138611   7.668   3.732   2.015  1.0290  0.7899  2.6436
12513SOL    HW238612   7.708   3.596   2.066 -0.8303 -0.9507 -0.2124
12514SOL     OW38613   0.744   6.791   7.237 -0.3312  1.3772 -0.1492
12514SOL    HW138614   0.748   6.698   7.216  1.3711  1.3346  0.1859
12514SOL    HW238615   0.719   6.833   7.155  1.4273  0.8132 -1.0264
12515SOL     OW38616   7.982   1.540   5.480  0.1126 -0.7179  0.2161
12515SOL    HW138617   7.973   1.480   5.406 -3.1106 -0.3066  0.1289
12515SOL    HW238618   7.981   1.484   5.557  2.0259 -1.0410  0.0515
12516SOL     OW38619   0.130   2.600   5.239 -0.0692  0.4061  0.1265
12516SOL    HW138620   0.140   2.530   5.174  0.9239  0.2671  0.4099
12516SOL    HW238621   0.200   2.583   5.303 -0.7720  0.7790  1.0085
12517SOL     OW38622   1.297   3.718   7.019 -0.2769 -0.8893 -0.2809
12517SOL    HW138623   1.202   3.730   7.017 -0.0598  1.5155  1.0758
12517SOL    HW238624   1.318   3.698   7.110  0.6412  0.1190 -0.2434
12518SOL     OW38625   2.709   0.643   1.497 -0.0442 -0.1450  0.3543
12518SOL    HW138626   2.633   0.697   1.472  0.8641  0.6873 -0.7144
12518SOL    HW238627   2.770   0.705   1.537  0.9814 -0.3609 -0.8064
12519SOL     OW38628   4.798   3.945   3.508 -0.4302  0.0046 -0.5661
12519SOL    HW138629   4.754   4.023   3.474  0.5367  2.3372  2.8890
12519SOL    HW238630   4.730   3.899   3.557 -0.7559 -0.8024 -1.7414
12520SOL     OW38631   5.918   1.765   4.602 -0.0439  0.3060  0.1919
12520SOL    HW138632   5.995   1.820   4.594 -0.1848  0.8455  2.0573
12520SOL    HW238633   5.869   1.801   4.676 -1.4978 -0.7284 -0.2001
12521SOL     OW38634   0.869   2.781   2.530  0.4070  0.3159 -0.2580
12521SOL    HW138635   0.849   2.702   2.581 -0.6175  0.3981 -0.5185
12521SOL    HW238636   0.927   2.832   2.587 -1.1772  0.6727  1.0857
12522SOL     OW38637   3.427   0.336   0.026  0.3888 -0.7348 -0.3458
12522SOL    HW138638   3.375   0.275   0.079 -0.4234  0.2432  0.0225
12522SOL    HW238639   3.455   0.404   0.087 -0.9897  0.6865 -1.2077
12523SOL     OW38640   2.005   3.541   5.811 -0.2417 -0.1496 -0.2556
12523SOL    HW138641   1.921   3.526   5.856  0.4941 -1.4773  0.7614
12523SOL    HW238642   2.063   3.573   5.880  0.7692 -1.7163 -0.3218
12524SOL     OW38643   3.744   1.359   2.981  0.4120 -0.2769 -0.9751
12524SOL    HW138644   3.772   1.449   2.996 -1.0733  0.0307  0.2727
12524SOL    HW238645   3.820   1.306   3.003  0.1876  0.4950  2.2530
12525SOL     OW38646   6.052   7.940   0.648 -0.1019 -0.2032  0.1083
12525SOL    HW138647   6.002   7.900   0.576 -0.6690 -1.5726  1.2026
12525SOL    HW238648   5.984   7.971   0.709  0.3686 -0.3013  0.6882
12526SOL     OW38649   7.815   7.511   5.116  0.1057 -0.3658 -0.3636
12526SOL    HW138650   7.909   7.525   5.109  0.4758 -1.2005  2.0141
12526SOL    HW238651   7.792   7.461   5.037  1.2916  1.3157 -1.8334
12527SOL     OW38652   5.691   1.970   5.288  0.1469 -0.5845 -0.0025
12527SOL    HW138653   5.692   2.064   5.270 -0.7389 -0.5545  0.0531
12527SOL    HW238654   5.759   1.934   5.231 -0.3845 -0.0731 -0.9747
12528SOL     OW38655   7.773   5.743   3.530 -0.6343 -0.0262  0.3716
12528SOL    HW138656   7.863   5.772   3.515 -0.3359 -0.3050  1.4755
12528SOL    HW238657   7.782   5.664   3.583 -1.5423  0.8028  1.8566
12529SOL     OW38658   1.283   1.993   1.166 -0.4616 -0.0284 -0.6328
12529SOL    HW138659   1.351   2.048   1.126 -0.3233 -1.3643 -2.3177
12529SOL    HW238660   1.201   2.025   1.127 -0.4699 -0.4370 -0.9545
12530SOL     OW38661   0.057   4.650   2.487 -0.3348 -0.6935  0.6231
12530SOL    HW138662   0.051   4.690   2.400  2.8235 -2.4427 -0.5723
12530SOL    HW238663  -0.017   4.588   2.490  0.4120 -1.8042 -1.5996
12531SOL     OW38664   6.824   7.024   3.079  0.1257  0.2113 -0.2167
12531SOL    HW138665   6.812   7.004   3.172  0.5861  0.3467 -0.1275
12531SOL    HW238666   6.787   7.112   3.069 -0.7224 -0.1549 -0.3440
12532SOL     OW38667   4.010   6.606   4.359 -0.0132  0.0485  0.1100
12532SOL    HW138668   4.039   6.527   4.405  0.1972 -0.0398 -0.1670
12532SOL    HW238669   4.002   6.579   4.268 -0.2184  0.2760  0.0591
12533SOL     OW38670   7.055   1.444   2.499 -0.1293 -0.3037  0.5993
12533SOL    HW138671   7.035   1.515   2.559  0.3629  0.7467 -0.4309
12533SOL    HW238672   6.996   1.458   2.425  1.6166  0.5219 -0.7164
12534SOL     OW38673   5.739   0.478   7.791  0.0476  0.2218 -0.3535
12534SOL    HW138674   5.652   0.513   7.773 -0.3947 -0.4913  0.3348
12534SOL    HW238675   5.733   0.442   7.880  0.8717 -0.3532 -0.5153
12535SOL     OW38676   6.800   1.132   4.710 -0.2251 -0.0237 -0.0133
12535SOL    HW138677   6.769   1.074   4.641 -0.0133  0.0076 -0.1363
12535SOL    HW238678   6.755   1.215   4.693 -0.7852 -0.2518  0.3660
12536SOL     OW38679   7.418   1.020   3.007 -0.6046  0.5319 -0.5262
12536SOL    HW138680   7.423   1.112   3.033 -1.6206  0.3486  0.4008
12536SOL    HW238681   7.395   0.973   3.087  0.7395 -0.6559 -0.7887
12537SOL     OW38682   1.812   0.357   7.679  0.2694  0.4248 -0.0435
12537SOL    HW138683   1.741   0.397   7.729 -1.5460  0.1746 -2.2527
12537SOL    HW238684   1.870   0.431   7.657 -0.4045  0.9976  0.0659
12538SOL     OW38685   7.341   6.271   0.086  0.0318  0.6537 -0.2210
12538SOL    HW138686   7.354   6.247   0.178 -1.7401  1.7520  0.3802
12538SOL    HW238687   7.353   6.189   0.038 -1.1256 -0.4290  1.2405
12539SOL     OW38688   1.971   3.578   1.460  0.1506  0.3404 -0.6732
12539SOL    HW138689   1.898   3.619   1.414  1.2186  1.1757 -1.6804
12539SOL    HW238690   2.046   3.634   1.441  0.8276  0.2354  1.3949
12540SOL     OW38691   7.874   4.328   6.515 -0.7809  0.2592  0.5603
12540SOL    HW138692   7.809   4.348   6.447 -3.2185  3.2731  3.4663
12540SOL    HW238693   7.936   4.400   6.510  1.9183 -1.9545 -1.3421
12541SOL     OW38694   2.095   1.490   5.323 -0.3104  0.3803 -0.2312
12541SOL    HW138695   2.072   1.406   5.363 -2.3264  1.3625  0.8583
12541SOL    HW238696   2.191   1.495   5.331 -0.3451 -0.8625  1.6926
12542SOL     OW38697   2.217   1.878   7.432 -0.4899  0.6308 -0.1595
12542SOL    HW138698   2.283   1.889   7.364 -1.3816  0.9836 -1.0029
12542SOL    HW238699   2.266   1.869   7.513  0.6176 -0.3862 -0.9225
12543SOL     OW38700   6.919   0.647   5.685  0.3060  0.0660 -0.2742
12543SOL    HW138701   6.993   0.593   5.659  1.4396  1.3392  0.2106
12543SOL    HW238702   6.848   0.621   5.625  1.8731  0.5946 -2.4764
12544SOL     OW38703   4.757   6.425   3.737  0.2464  0.4123 -0.2711
12544SOL    HW138704   4.698   6.456   3.668  1.1746  0.4567 -1.0637
12544SOL    HW238705   4.825   6.493   3.742  1.2562 -0.5378 -0.6919
12545SOL     OW38706   4.283   2.813   8.105 -0.2022 -0.9765 -0.2306
12545SOL    HW138707   4.211   2.812   8.168 -1.5399 -4.2594 -1.5608
12545SOL    HW238708   4.281   2.901   8.068 -0.8376  0.3093  2.5746
12546SOL     OW38709   5.964   7.816   4.397 -0.2994 -0.1057 -0.4059
12546SOL    HW138710   5.934   7.899   4.434 -0.2197  0.8740 -2.4068
12546SOL    HW238711   5.991   7.764   4.473 -0.8138  1.4956  0.9286
12547SOL     OW38712   2.466   0.269   0.423 -0.0101 -0.3691  0.1379
12547SOL    HW138713   2.548   0.316   0.434  0.5181 -0.0305 -3.7940
12547SOL    HW238714   2.404   0.335   0.392 -1.4629 -0.8713  1.8340
12548SOL     OW38715   2.900   2.699   6.560  0.2771 -0.1863 -0.1763
12548SOL    HW138716   2.829   2.643   6.529 -0.2164 -0.7700  1.8481
12548SOL    HW238717   2.978   2.663   6.518 -0.4537 -0.2231 -1.5737
12549SOL     OW38718   2.227   0.413   6.944 -0.4248 -0.2874 -0.7059
12549SOL    HW138719   2.255   0.385   7.031 -1.8935  0.7271  0.1460
12549SOL    HW238720   2.169   0.343   6.913 -1.9424  0.4812  0.2673
12550SOL     OW38721   0.228   4.468   3.787  0.2350 -0.4779 -0.2841
12550SOL    HW138722   0.222   4.421   3.704  0.7836 -0.8194 -0.1326
12550SOL    HW238723   0.226   4.560   3.763  0.1198 -0.5742 -0.6521
12551SOL     OW38724   3.316   7.580   5.129  0.0934  0.2934  0.3434
12551SOL    HW138725   3.371   7.629   5.190  1.6854 -0.3622 -0.4948
12551SOL    HW238726   3.377   7.523   5.082 -1.1543  0.3533 -1.4602
12552SOL     OW38727   6.117   0.415   7.537  0.8029 -0.1848  0.1965
12552SOL    HW138728   6.107   0.353   7.465  0.6905 -2.0062  1.7065
12552SOL    HW238729   6.030   0.456   7.546  0.7846 -0.0313 -0.5914
12553SOL     OW38730   1.246   2.790   0.933 -0.1378  0.0960  0.1603
12553SOL    HW138731   1.283   2.737   1.004  2.4397  1.3734 -0.1075
12553SOL    HW238732   1.281   2.752   0.853  0.4112  1.1562 -0.1316
12554SOL     OW38733   3.007   5.524   4.137 -0.6147  0.1301 -0.1597
12554SOL    HW138734   3.029   5.432   4.155  0.6334  0.5289  0.4661
12554SOL    HW238735   3.079   5.555   4.081 -0.9519  0.7707 -0.2444
12555SOL     OW38736   1.317   1.012   3.934 -0.1974  0.5484 -0.1240
12555SOL    HW138737   1.257   0.945   3.902 -4.4156  3.3251  1.1560
12555SOL    HW238738   1.308   1.009   4.029  0.5255  2.0394  0.0277
12556SOL     OW38739   2.488   4.346   1.019 -0.2074 -0.2248  0.1853
12556SOL    HW138740   2.486   4.251   1.011  1.2300 -0.2701  0.1932
12556SOL    HW238741   2.520   4.378   0.935 -0.4988  0.2566  0.2461
12557SOL     OW38742   3.268   5.473   5.284 -0.6252  0.6791 -0.1396
12557SOL    HW138743   3.326   5.545   5.259  0.5003 -0.0382  0.3137
12557SOL    HW238744   3.313   5.430   5.356 -2.4111  0.9498  1.2151
12558SOL     OW38745   7.439   3.304   5.941  0.3042 -0.5789  0.5848
12558SOL    HW138746   7.473   3.354   6.015  1.3879  0.0322 -0.2954
12558SOL    HW238747   7.351   3.338   5.928  0.3499 -0.2194  1.1737
12559SOL     OW38748   4.703   7.051   1.089  0.2796 -0.4955 -0.5502
12559SOL    HW138749   4.743   7.114   1.149  1.0577 -0.3369 -1.2129
12559SOL    HW238750   4.767   6.979   1.085 -0.4860 -1.2331  0.0092
12560SOL     OW38751   3.992   1.049   6.900  0.3587  0.7712  0.3554
12560SOL    HW138752   3.992   1.144   6.884  1.0121  0.6539 -0.4141
12560SOL    HW238753   4.080   1.021   6.876  0.1136 -0.0677  0.4142
12561SOL     OW38754   1.040   1.152   3.404  0.5884  0.3871  0.3523
12561SOL    HW138755   1.085   1.089   3.347 -1.2233  0.4880 -1.2832
12561SOL    HW238756   1.059   1.121   3.492  1.2163 -1.4258 -0.3564
12562SOL     OW38757   1.462   4.823   1.835  0.2388 -0.2579 -0.3390
12562SOL    HW138758   1.490   4.882   1.905 -0.4261  0.0947 -0.3550
12562SOL    HW238759   1.407   4.759   1.880  1.2033 -1.0545 -0.2745
12563SOL     OW38760   3.714   2.766   0.480 -0.0475  0.1051 -0.9307
12563SOL    HW138761   3.788   2.720   0.519 -0.8059 -0.2311  0.1612
12563SOL    HW238762   3.742   2.787   0.391  1.6805  0.7582 -0.2580
12564SOL     OW38763   5.911   3.516   7.317 -0.3071 -0.0387  0.0766
12564SOL    HW138764   5.907   3.421   7.325 -0.4322  0.1034  2.2205
12564SOL    HW238765   5.821   3.543   7.302 -0.3948 -0.2118  0.2819
12565SOL     OW38766   5.456   4.260   1.985  0.4731 -0.2216  0.5371
12565SOL    HW138767   5.477   4.177   2.027 -1.3440 -1.2747 -0.5079
12565SOL    HW238768   5.366   4.278   2.011 -0.9199 -1.1423 -3.0903
12566SOL     OW38769   8.068   0.558   5.153  0.0650 -0.2817 -0.0435
12566SOL    HW138770   8.155   0.591   5.177 -0.1756 -0.2394  0.8311
12566SOL    HW238771   8.025   0.632   5.111  1.0065 -0.7836 -2.0277
12567SOL     OW38772   5.196   1.546   3.756 -0.1644  0.3229 -0.1840
12567SOL    HW138773   5.150   1.463   3.745 -0.1196  0.0328  1.6320
12567SOL    HW238774   5.260   1.529   3.825  1.8973  1.0517 -1.8109
12568SOL     OW38775   0.111   3.537   7.803  0.9176 -0.3745  0.0913
12568SOL    HW138776   0.155   3.616   7.834  1.3584 -0.9603  0.9854
12568SOL    HW238777   0.182   3.479   7.774  0.6446 -0.7457  0.1483
12569SOL     OW38778   4.105   4.136   2.929 -0.1108  0.2508 -0.2836
12569SOL    HW138779   4.092   4.043   2.911  1.4202 -0.9042  3.5145
12569SOL    HW238780   4.027   4.163   2.977 -0.4496  0.9327 -1.1765
12570SOL     OW38781   5.451   7.397   3.036 -0.0462 -0.3224  0.4941
12570SOL    HW138782   5.388   7.347   2.984 -0.2619  0.8937 -0.4605
12570SOL    HW238783   5.536   7.361   3.011  0.0320  1.4690 -2.2437
12571SOL     OW38784   7.624   3.599   1.018  0.3742 -0.1515  0.0240
12571SOL    HW138785   7.685   3.672   1.007  0.3269 -0.2879 -1.3378
12571SOL    HW238786   7.609   3.594   1.113  1.9531  0.3078  0.3316
12572SOL     OW38787   0.202   0.422   1.127  0.3005 -0.3320  0.5603
12572SOL    HW138788   0.296   0.409   1.139  1.0323  1.8021 -1.9345
12572SOL    HW238789   0.182   0.376   1.046 -0.7498 -0.4140  0.8516
12573SOL     OW38790   8.049   4.622   3.416 -0.1512  0.3153  0.2339
12573SOL    HW138791   8.089   4.709   3.408  0.3000  0.0427 -0.5894
12573SOL    HW238792   7.980   4.621   3.350  2.2559 -1.2253 -2.5106
12574SOL     OW38793   6.802   8.067   2.178 -0.1672 -0.0401  0.0509
12574SOL    HW138794   6.823   7.996   2.239 -0.5100 -0.4559 -0.3027
12574SOL    HW238795   6.855   8.048   2.101 -0.9623 -0.4559 -0.4088
12575SOL     OW38796   2.152   3.078   6.206  0.1112 -0.3321 -0.3041
12575SOL    HW138797   2.225   3.016   6.212 -0.7963 -1.3921  0.2065
12575SOL    HW238798   2.192   3.164   6.216  1.2048 -0.9388  0.7974
12576SOL     OW38799   0.373   4.390   5.123 -0.0769 -0.3510 -0.1714
12576SOL    HW138800   0.337   4.455   5.183 -1.6454 -0.3270 -1.0974
12576SOL    HW238801   0.371   4.308   5.173  0.3683 -0.0104  0.4260
12577SOL     OW38802   7.188   4.032   0.956  0.5475  0.3420 -0.1104
12577SOL    HW138803   7.149   3.973   1.020  0.2347 -0.8773 -1.3656
12577SOL    HW238804   7.242   4.092   1.007 -1.1364  0.5951  1.4556
12578SOL     OW38805   3.256   4.211   3.328  0.0533 -0.2660 -0.3817
12578SOL    HW138806   3.298   4.295   3.307 -1.3115  0.9066  1.2980
12578SOL    HW238807   3.169   4.217   3.289  0.2299 -1.2625 -0.9546
12579SOL     OW38808   1.390   1.639   7.917 -0.3444 -0.3496 -0.3920
12579SOL    HW138809   1.418   1.664   7.829  0.5070 -0.3740 -0.1339
12579SOL    HW238810   1.469   1.648   7.971 -1.0967  0.6785  0.5799
12580SOL     OW38811   6.732   3.331   8.139 -0.3342 -0.1234 -0.1139
12580SOL    HW138812   6.737   3.344   8.044 -0.3631 -0.1653 -0.1214
12580SOL    HW238813   6.812   3.282   8.160  0.4059  1.1127  0.0985
12581SOL     OW38814   8.134   5.055   1.627 -0.0031 -0.1382 -0.0235
12581SOL    HW138815   8.118   5.098   1.711 -2.3821  0.8443 -0.8945
12581SOL    HW238816   8.114   5.121   1.561  2.0467 -0.8050 -1.4312
12582SOL     OW38817   6.722   3.408   0.996  0.2638 -0.3992 -0.0936
12582SOL    HW138818   6.628   3.427   0.987 -0.1155 -1.4843  1.2707
12582SOL    HW238819   6.749   3.456   1.074  0.7804 -0.3392 -0.3059
12583SOL     OW38820   4.420   4.999   7.799  0.0639  0.0614 -0.1674
12583SOL    HW138821   4.407   4.907   7.820  0.9637 -0.1309 -0.4147
12583SOL    HW238822   4.345   5.022   7.745  1.1095 -1.2575 -2.3485
12584SOL     OW38823   7.050   0.610   4.928 -0.5468  0.2620  0.2219
12584SOL    HW138824   7.127   0.554   4.940 -0.5438  0.1707 -0.2069
12584SOL    HW238825   7.086   0.694   4.898 -0.7193 -0.2944 -1.6054
12585SOL     OW38826   7.573   0.850   1.785 -0.1790  0.0218 -0.2371
12585SOL    HW138827   7.661   0.852   1.822 -0.0149  0.3775 -0.6395
12585SOL    HW238828   7.537   0.765   1.812 -0.3746  0.6138  1.4368
12586SOL     OW38829   3.751   2.596   2.528 -0.2689  0.1861  0.3814
12586SOL    HW138830   3.795   2.527   2.579 -1.7308 -0.0056  1.4640
12586SOL    HW238831   3.776   2.578   2.438 -0.6460 -1.8291  0.6256
12587SOL     OW38832   6.896   3.797   1.862 -0.3903 -0.5844  0.2041
12587SOL    HW138833   6.869   3.821   1.774 -0.7257 -0.9918  0.1921
12587SOL    HW238834   6.860   3.866   1.918  1.6943  0.8975 -0.1870
12588SOL     OW38835   6.916   3.298   4.457 -0.1168 -0.3368 -0.0694
12588SOL    HW138836   6.900   3.341   4.541 -1.4282 -0.1379 -0.4009
12588SOL    HW238837   6.858   3.222   4.458  0.6926 -0.9683 -0.3395
12589SOL     OW38838   6.108   3.589   4.853 -0.0994  0.1845  0.1032
12589SOL    HW138839   6.098   3.511   4.908 -1.0051 -1.6013 -2.4008
12589SOL    HW238840   6.026   3.595   4.804  0.0766  2.5791 -0.0273
12590SOL     OW38841   1.547   4.368   2.442 -0.2575 -0.1714 -0.0362
12590SOL    HW138842   1.631   4.352   2.399 -0.2005 -0.5475  0.2137
12590SOL    HW238843   1.485   4.379   2.370 -0.1075 -0.5048 -0.2186
12591SOL     OW38844   0.923   7.324   2.534 -0.1043  0.3463  0.0500
12591SOL    HW138845   0.827   7.330   2.535 -0.4937 -3.2757  2.0081
12591SOL    HW238846   0.952   7.396   2.590 -1.3558  2.9375 -2.3440
12592SOL     OW38847   1.564   2.084   6.918 -0.0685  0.7444  0.3592
12592SOL    HW138848   1.570   2.135   6.998  0.7089 -0.4868  1.1130
12592SOL    HW238849   1.655   2.069   6.892 -0.2642 -0.4822  0.3252
12593SOL     OW38850   4.811   0.962   0.080  0.5649 -0.0086 -0.6253
12593SOL    HW138851   4.867   0.917   0.143  0.5850 -0.3179 -0.8604
12593SOL    HW238852   4.726   0.919   0.089  0.1819  0.8933  0.1935
12594SOL     OW38853   6.831   4.135   4.795 -0.5306  0.0588 -0.1152
12594SOL    HW138854   6.891   4.175   4.732  0.4260 -0.4042  0.4729
12594SOL    HW238855   6.757   4.195   4.800  0.0420  0.8193 -0.6031
12595SOL     OW38856   2.657   2.337   2.772  0.3553  0.8817  0.3582
12595SOL    HW138857   2.719   2.326   2.844 -0.1671 -0.2614  0.6432
12595SOL    HW238858   2.572   2.342   2.814  0.0490  0.2752 -0.1756
12596SOL     OW38859   1.217   3.252   0.560 -0.0774 -0.0537 -0.0359
12596SOL    HW138860   1.300   3.276   0.600  0.7170 -0.2409 -1.5043
12596SOL    HW238861   1.158   3.325   0.580  0.1156 -0.3842  1.8803
12597SOL     OW38862   6.622   6.199   8.148 -0.6426  0.2411 -0.4901
12597SOL    HW138863   6.699   6.162   8.192  0.0949  1.1199 -0.9886
12597SOL    HW238864   6.652   6.214   8.058 -1.6444 -0.0958 -0.8903
12598SOL     OW38865   7.600   5.256   2.715  0.0927  0.3996 -0.0084
12598SOL    HW138866   7.620   5.335   2.665 -2.1528  1.3589  0.4745
12598SOL    HW238867   7.504   5.257   2.724 -0.0238 -2.3662  0.0656
12599SOL     OW38868   4.039   5.905   4.116  0.3826  0.2893 -0.4324
12599SOL    HW138869   4.065   5.903   4.024 -1.5500  0.1835 -1.0021
12599SOL    HW238870   4.057   5.816   4.147  2.7384  0.7867 -0.1538
12600SOL     OW38871   2.097   5.334   2.013 -0.6088  0.2042  0.3925
12600SOL    HW138872   2.183   5.377   2.007  0.3604 -1.2989  2.2729
12600SOL    HW238873   2.044   5.376   1.945  1.4584  1.5230 -0.5052
12601SOL     OW38874   1.159   1.249   0.151 -0.2140 -0.4526  0.0724
12601SOL    HW138875   1.138   1.303   0.075 -1.5004 -0.2396  0.5608
12601SOL    HW238876   1.099   1.279   0.219  1.3185 -0.2439  1.3725
12602SOL     OW38877   6.612   5.788   2.078 -0.1463  0.3456 -0.0696
12602SOL    HW138878   6.535   5.745   2.041  0.6356  0.9594 -2.5834
12602SOL    HW238879   6.671   5.717   2.100 -0.9164 -0.0683  0.7279
12603SOL     OW38880   0.439   7.590   8.098  0.4386  0.3585 -0.3591
12603SOL    HW138881   0.502   7.569   8.029 -0.8783 -0.3174 -1.4119
12603SOL    HW238882   0.374   7.645   8.054 -1.5969 -1.8248 -0.3002
12604SOL     OW38883   0.381   3.313   1.946  0.0676 -0.0887  0.3171
12604SOL    HW138884   0.416   3.389   1.898 -0.3153 -1.0947 -1.6680
12604SOL    HW238885   0.402   3.238   1.890 -1.2981 -1.2250  1.2642
12605SOL     OW38886   3.028   4.992   1.737  0.1143  0.3995  0.7334
12605SOL    HW138887   3.108   5.035   1.706 -0.9755  2.4079  0.5153
12605SOL    HW238888   3.037   4.990   1.833  0.4711  0.5262  0.7032
12606SOL     OW38889   0.839   8.037   6.544 -0.3265 -0.3226  0.2887
12606SOL    HW138890   0.795   8.004   6.465  0.8355  0.3463 -0.6758
12606SOL    HW238891   0.926   8.064   6.513 -0.1569  0.7754  1.6301
12607SOL     OW38892   2.172   4.466   3.002  0.0523 -0.6712 -0.4308
12607SOL    HW138893   2.172   4.371   2.994  1.8504 -0.7020 -0.5421
12607SOL    HW238894   2.179   4.499   2.913 -2.0746 -0.3374 -0.5399
12608SOL     OW38895   2.434   2.209   2.409 -0.1371 -0.3215 -0.0417
12608SOL    HW138896   2.360   2.200   2.470  0.3750  0.1368  0.6687
12608SOL    HW238897   2.480   2.126   2.414  0.4575  0.0464  0.9664
12609SOL     OW38898   2.112   6.199   1.582 -0.3026  0.1746  0.6678
12609SOL    HW138899   2.142   6.111   1.607  0.9726  0.2871 -0.3804
12609SOL    HW238900   2.036   6.184   1.526 -0.4808 -0.2252  1.0093
12610SOL     OW38901   7.605   5.073   6.044 -0.0504 -0.5868  0.0175
12610SOL    HW138902   7.545   5.001   6.062  0.0680 -1.2506 -2.0057
12610SOL    HW238903   7.575   5.109   5.960  2.9346 -1.5960 -1.6071
12611SOL     OW38904   7.032   3.866   5.062 -0.2999  0.9650  0.1580
12611SOL    HW138905   6.971   3.804   5.102  1.6858 -0.8569  0.5082
12611SOL    HW238906   7.079   3.904   5.135  1.7085 -0.6264 -0.2373
12612SOL     OW38907   7.059   1.978   1.890  0.0174  0.7479 -0.2932
12612SOL    HW138908   7.119   1.956   1.962 -1.5681  1.1381  1.2255
12612SOL    HW238909   7.095   1.933   1.814  0.8895 -1.0459  1.0983
12613SOL     OW38910   5.116   0.309   2.690 -0.6121  0.1425  0.3061
12613SOL    HW138911   5.195   0.271   2.728 -1.0042 -1.4893 -0.4401
12613SOL    HW238912   5.053   0.310   2.763 -0.3789 -0.0092  0.5125
12614SOL     OW38913   2.791   0.434   6.988 -0.1717  0.4964 -0.6119
12614SOL    HW138914   2.747   0.454   6.906 -0.0464  0.5718 -0.6619
12614SOL    HW238915   2.855   0.505   6.999  0.3950  0.0386 -0.8739
12615SOL     OW38916   2.573   6.960   5.121 -0.5138 -0.1024  0.6074
12615SOL    HW138917   2.661   6.972   5.086 -0.0630  0.3564  1.8545
12615SOL    HW238918   2.534   6.892   5.066 -0.0317  0.9420 -1.1126
12616SOL     OW38919   0.099   6.011   0.883 -0.6234  0.3820  0.2494
12616SOL    HW138920   0.116   5.970   0.798 -0.1678 -0.8248  0.8960
12616SOL    HW238921   0.059   6.095   0.861 -0.4313  0.1401 -1.1589
12617SOL     OW38922   4.006   2.410   8.151 -0.9176  0.0143 -0.1071
12617SOL    HW138923   3.919   2.381   8.123 -0.7023 -0.4241 -0.3433
12617SOL    HW238924   4.048   2.439   8.070 -0.7411 -0.0565 -0.0408
12618SOL     OW38925   7.042   7.397   4.662 -0.0572  0.1532 -0.5093
12618SOL    HW138926   7.103   7.330   4.694 -0.7800 -0.4474 -0.3703
12618SOL    HW238927   7.082   7.429   4.581 -0.6603 -1.8655 -1.6614
12619SOL     OW38928   0.222   0.223   1.692 -0.7097 -0.2271  0.0234
12619SOL    HW138929   0.235   0.135   1.656 -0.2598  0.5594 -1.8729
12619SOL    HW238930   0.183   0.272   1.620  0.8615  1.6278  0.3705
12620SOL     OW38931   0.959   0.905   2.186 -0.2146 -0.2195 -0.2046
12620SOL    HW138932   0.934   0.971   2.122  0.5582  0.7802  0.4816
12620SOL    HW238933   0.935   0.822   2.146 -1.3032  0.4793 -1.0507
12621SOL     OW38934   2.362   5.881   1.038  0.3173 -0.4328 -0.4664
12621SOL    HW138935   2.408   5.925   0.966 -0.5663  1.3699 -0.0079
12621SOL    HW238936   2.361   5.946   1.108  1.4273 -2.2446  1.3287
12622SOL     OW38937   7.953   1.779   6.729 -0.2459 -0.0084  0.5282
12622SOL    HW138938   7.948   1.840   6.655  1.1516 -1.3066 -0.7268
12622SOL    HW238939   7.980   1.833   6.803 -1.2323  1.2560  0.0069
12623SOL     OW38940   2.149   2.231   4.785  0.3257 -0.6455 -0.5979
12623SOL    HW138941   2.175   2.208   4.874 -2.0505  0.1246  0.3786
12623SOL    HW238942   2.195   2.168   4.729  0.9679 -1.8944  1.2443
12624SOL     OW38943   1.263   1.624   7.510  0.5546  0.9052  0.5125
12624SOL    HW138944   1.334   1.646   7.570 -0.2434  0.5588  1.6090
12624SOL    HW238945   1.306   1.579   7.437  1.2581 -1.2035  2.1281
12625SOL     OW38946   5.225   2.287   3.459 -0.2905 -0.5417 -0.1620
12625SOL    HW138947   5.178   2.316   3.381 -2.1699 -1.5571  0.5190
12625SOL    HW238948   5.242   2.368   3.508 -0.3156 -0.0424 -0.9576
12626SOL     OW38949   0.994   2.797   5.007  0.1404  0.2920  0.1923
12626SOL    HW138950   0.971   2.887   5.031 -2.2636 -0.5719  1.5181
12626SOL    HW238951   0.996   2.751   5.091 -0.8442 -1.3112 -0.6279
12627SOL     OW38952   3.991   7.317   1.602 -0.1954  0.2350  0.4185
12627SOL    HW138953   4.055   7.339   1.669  0.5720  2.5715 -0.9430
12627SOL    HW238954   3.934   7.394   1.597 -2.2393 -1.1883  0.5541
12628SOL     OW38955   2.408   0.636   3.061 -0.6589  0.3343 -0.0468
12628SOL    HW138956   2.423   0.705   3.125 -0.7334 -0.9833  1.4475
12628SOL    HW238957   2.315   0.615   3.070 -0.6386  0.0478 -0.5026
12629SOL     OW38958   8.069   3.877   7.590 -0.1016 -0.2107 -0.1022
12629SOL    HW138959   8.119   3.796   7.577  0.7849  0.2261  0.4826
12629SOL    HW238960   7.994   3.850   7.643 -0.0564 -0.7307 -0.2927
12630SOL     OW38961   0.229   0.509   5.121 -0.2603 -0.0873  0.2461
12630SOL    HW138962   0.248   0.602   5.107 -2.8010  0.0524 -3.9201
12630SOL    HW238963   0.308   0.464   5.090 -0.0306  0.6693 -0.3000
12631SOL     OW38964   3.443   7.169   5.248  0.7582  0.1500  0.3074
12631SOL    HW138965   3.418   7.215   5.168  0.4219  1.4599  1.1287
12631SOL    HW238966   3.531   7.136   5.230  0.5514  0.1124 -0.7155
12632SOL     OW38967   0.801   5.399   0.522 -0.2161  0.0705 -0.6487
12632SOL    HW138968   0.815   5.306   0.507 -2.3708 -0.9176  2.4905
12632SOL    HW238969   0.715   5.417   0.485  0.0423  0.7381 -0.9401
12633SOL     OW38970   4.866   5.791   3.394  0.0705  0.0290  0.3904
12633SOL    HW138971   4.829   5.719   3.343  2.5478 -0.2033 -1.2092
12633SOL    HW238972   4.873   5.756   3.483 -2.4849 -0.2330  0.5707
12634SOL     OW38973   1.884   7.801   3.838 -0.2652 -0.4121 -0.4044
12634SOL    HW138974   1.909   7.776   3.749 -0.3696  1.1067 -0.8893
12634SOL    HW238975   1.868   7.718   3.883  0.6069 -1.2401 -1.5546
12635SOL     OW38976   7.287   6.634   0.108  0.1683 -0.4267  0.5094
12635SOL    HW138977   7.295   6.544   0.077 -1.7738  0.3993 -2.7382
12635SOL    HW238978   7.216   6.631   0.173 -0.0229 -1.1829  0.2732
12636SOL     OW38979   2.279   4.293   6.000 -0.4702 -0.0173  0.4427
12636SOL    HW138980   2.347   4.335   6.051 -2.2791  1.1252  2.0323
12636SOL    HW238981   2.306   4.305   5.909  0.0675  2.9541  0.8949
12637SOL     OW38982   3.567   4.832   3.950  0.4355 -0.1949 -0.1324
12637SOL    HW138983   3.597   4.879   4.028  1.1107  0.0536 -0.5304
12637SOL    HW238984   3.480   4.867   3.932  0.3940 -0.0529  0.3446
12638SOL     OW38985   2.413   2.187   6.156 -0.2384 -0.0978 -0.0786
12638SOL    HW138986   2.339   2.136   6.188 -0.8325  0.7780 -0.0123
12638SOL    HW238987   2.389   2.278   6.174 -0.0405  0.3483 -1.8173
12639SOL     OW38988   5.833   4.951   3.899 -0.0973  0.6411  0.2958
12639SOL    HW138989   5.882   5.027   3.867  0.1558  0.2988 -0.1527
12639SOL    HW238990   5.782   4.922   3.823  0.6145 -0.2716  0.1521
12640SOL     OW38991   4.064   6.739   2.374 -0.4009  0.0264  0.0304
12640SOL    HW138992   4.008   6.709   2.446 -3.5781 -1.5617 -2.7974
12640SOL    HW238993   4.002   6.771   2.308  2.1245 -0.7424 -2.9201
12641SOL     OW38994   3.805   8.130   5.305 -0.5460 -0.4395  0.2788
12641SOL    HW138995   3.788   8.221   5.282  0.4667 -0.2698  0.1438
12641SOL    HW238996   3.837   8.134   5.395  1.5682 -0.4013 -0.4258
12642SOL     OW38997   4.967   0.176   3.797  0.1936 -0.3645 -0.0720
12642SOL    HW138998   5.024   0.106   3.829 -0.3154 -1.8058 -2.1018
12642SOL    HW238999   5.025   0.240   3.757  0.5179 -0.7930 -0.2860
12643SOL     OW39000   3.028   6.058   5.927  0.0596  0.1277 -0.3794
12643SOL    HW139001   3.099   6.013   5.881 -0.0129 -0.4961  0.1117
12643SOL    HW239002   2.977   5.988   5.967  0.5384  0.6741  1.2844
12644SOL     OW39003   1.626   6.258   3.307  0.4129  0.2641 -0.1500
12644SOL    HW139004   1.601   6.166   3.306  1.8116 -0.1536 -1.9014
12644SOL    HW239005   1.577   6.297   3.234 -0.9506  1.1634  1.2052
12645SOL     OW39006   3.659   7.545   5.898 -0.4924  0.0461  0.0547
12645SOL    HW139007   3.682   7.497   5.978  0.1650 -1.0750 -0.7728
12645SOL    HW239008   3.742   7.580   5.867 -0.9963  1.9912  0.7698
12646SOL     OW39009   7.096   4.004   2.825  0.1675 -0.2798 -0.1349
12646SOL    HW139010   7.101   4.013   2.730 -1.2130 -1.2909 -0.3285
12646SOL    HW239011   7.188   4.002   2.854  0.6293  1.7070 -1.2402
12647SOL     OW39012   4.269   7.890   5.143  0.0219 -0.3775  0.0063
12647SOL    HW139013   4.193   7.919   5.194  0.1611  1.0030 -0.5311
12647SOL    HW239014   4.251   7.919   5.053  1.1906  0.0274 -0.1227
12648SOL     OW39015   0.325   4.114   5.208  0.2100 -0.1460 -0.4705
12648SOL    HW139016   0.290   4.026   5.221  1.0821 -0.4489 -0.1067
12648SOL    HW239017   0.417   4.107   5.234  0.2459  0.9087 -0.2783
12649SOL     OW39018   0.411   4.045   6.779  0.2612 -0.0427 -0.2357
12649SOL    HW139019   0.319   4.040   6.805  0.3491  1.5854  0.4779
12649SOL    HW239020   0.439   3.953   6.772 -1.5859 -0.5917 -1.1666
12650SOL     OW39021   4.489   0.388   6.164 -0.4721  0.1814 -0.0917
12650SOL    HW139022   4.488   0.410   6.070 -2.0693 -2.2403 -0.7331
12650SOL    HW239023   4.397   0.381   6.188 -0.0731 -1.0427  1.1902
12651SOL     OW39024   2.835   8.074   7.384 -0.4399  0.3587 -0.3348
12651SOL    HW139025   2.909   8.026   7.347 -0.4751  0.0749 -0.0372
12651SOL    HW239026   2.842   8.060   7.478 -0.1154  1.4210 -0.1961
12652SOL     OW39027   3.244   5.846   5.128  0.1755  0.0655  0.5181
12652SOL    HW139028   3.309   5.786   5.166 -0.0660 -0.9139 -0.5547
12652SOL    HW239029   3.294   5.924   5.105  0.4322  0.4597  2.2801
12653SOL     OW39030   0.137   7.725   7.204  0.2525 -0.6291 -0.2755
12653SOL    HW139031   0.231   7.735   7.221 -0.0359  0.4080  0.8289
12653SOL    HW239032   0.118   7.789   7.135  0.2742 -0.5649 -0.2215
12654SOL     OW39033   2.979   1.343   1.902 -0.1663 -0.2932  0.0884
12654SOL    HW139034   3.012   1.399   1.972 -0.2436  0.6192 -0.5890
12654SOL    HW239035   3.052   1.337   1.840 -0.3176 -0.5767 -0.0620
12655SOL     OW39036   7.715   7.961   1.861 -0.0174 -0.1036  0.4550
12655SOL    HW139037   7.743   7.983   1.772 -0.9620 -0.1223  0.1478
12655SOL    HW239038   7.787   7.992   1.916  0.9867 -0.8648 -0.3611
12656SOL     OW39039   2.527   4.818   7.687 -0.2985  0.6893  0.4403
12656SOL    HW139040   2.536   4.791   7.596 -1.5036  0.1764  0.4590
12656SOL    HW239041   2.572   4.750   7.737  1.0685  1.3827  0.2111
12657SOL     OW39042   3.909   0.084   4.946  0.1803  0.1045  0.3891
12657SOL    HW139043   3.928   0.001   4.901 -0.6434 -0.3530  0.8613
12657SOL    HW239044   3.814   0.089   4.948  0.2124  0.5548  1.2859
12658SOL     OW39045   1.045   3.791   5.531  0.1204 -0.2321 -0.1589
12658SOL    HW139046   1.083   3.704   5.542  1.2991  0.0337 -1.7807
12658SOL    HW239047   0.957   3.776   5.497  0.6426 -0.7986 -1.2982
12659SOL     OW39048   1.698   3.940   7.735  0.1155 -0.2615  0.0165
12659SOL    HW139049   1.735   4.027   7.730 -1.8762  0.5738 -1.8792
12659SOL    HW239050   1.769   3.881   7.709  1.1364  0.8970  0.1326
12660SOL     OW39051   6.337   2.461   6.010  0.6339 -0.0052 -0.3954
12660SOL    HW139052   6.389   2.408   5.950  0.3058 -0.2743 -0.4442
12660SOL    HW239053   6.362   2.429   6.097 -0.7427 -1.3788 -0.4638
12661SOL     OW39054   0.904   3.103   5.801  0.1850 -0.7117 -0.1005
12661SOL    HW139055   0.860   3.091   5.717  1.8709  0.0837 -1.1377
12661SOL    HW239056   0.852   3.171   5.845  1.9350  2.5265 -2.5857
12662SOL     OW39057   6.256   5.962   0.972 -0.0202  0.3148  0.0300
12662SOL    HW139058   6.300   6.043   0.946  0.4001 -0.1152 -0.6183
12662SOL    HW239059   6.326   5.905   1.004 -0.2896  0.1258  0.2961
12663SOL     OW39060   3.353   1.455   5.676 -0.0832  0.3852  0.0740
12663SOL    HW139061   3.417   1.517   5.641  2.3553 -0.7322  2.1772
12663SOL    HW239062   3.333   1.487   5.764 -0.0687 -0.8442  0.5555
12664SOL     OW39063   0.202   4.192   0.559 -0.5936 -0.3425  0.5449
12664SOL    HW139064   0.215   4.286   0.543  1.8114 -0.5581  0.8049
12664SOL    HW239065   0.114   4.186   0.595  0.2574  2.2780  3.5777
12665SOL     OW39066   7.359   3.514   1.019  0.3262 -0.0932  0.1423
12665SOL    HW139067   7.362   3.418   1.019  1.5154 -0.0644  0.6122
12665SOL    HW239068   7.439   3.540   0.974 -0.6360  0.6850 -1.1979
12666SOL     OW39069   0.457   7.923   6.841 -0.2779 -0.1731 -0.0706
12666SOL    HW139070   0.539   7.972   6.829 -0.4274  0.0436 -0.2151
12666SOL    HW239071   0.467   7.846   6.784  1.2845 -2.0040  2.4869
12667SOL     OW39072   7.591   1.247   6.034  0.2249  0.3931 -0.1518
12667SOL    HW139073   7.543   1.328   6.015 -1.2244 -0.4489 -0.2093
12667SOL    HW239074   7.682   1.274   6.038 -0.0161  1.7087 -2.0853
12668SOL     OW39075   4.419   6.884   2.784  0.3633  0.2438 -0.8329
12668SOL    HW139076   4.508   6.872   2.750  2.1109 -0.6957  3.5012
12668SOL    HW239077   4.423   6.851   2.874 -4.5882 -0.3950 -0.5936
12669SOL     OW39078   3.647   6.972   3.507 -0.1135  0.5189  0.1530
12669SOL    HW139079   3.690   6.942   3.426  0.7197  1.5187  0.2015
12669SOL    HW239080   3.554   6.966   3.489 -0.0427 -2.5900  0.3457
12670SOL     OW39081   3.346   3.185   4.731  0.6042  0.1834 -0.0063
12670SOL    HW139082   3.375   3.276   4.720  0.4129  0.1040 -1.3404
12670SOL    HW239083   3.287   3.170   4.657  0.2061 -0.8629  0.5084
12671SOL     OW39084   5.522   3.166   5.704  0.6293 -0.4612  0.0014
12671SOL    HW139085   5.528   3.232   5.634  1.5437 -0.0613  0.4321
12671SOL    HW239086   5.530   3.216   5.785  0.0230 -0.9719  0.3839
12672SOL     OW39087   4.235   7.376   1.156 -1.2223  0.2517  0.5085
12672SOL    HW139088   4.303   7.320   1.192 -0.5715  0.1934 -0.7749
12672SOL    HW239089   4.219   7.342   1.068 -1.8161  1.2132  0.2269
12673SOL     OW39090   2.277   0.980   1.714 -0.5627 -0.0390 -0.3027
12673SOL    HW139091   2.288   1.071   1.688 -1.8958  0.2505  0.0283
12673SOL    HW239092   2.327   0.972   1.795  0.0045  0.2456 -0.6188
12674SOL     OW39093   1.376   4.712   6.223  0.4162 -0.4615 -0.5601
12674SOL    HW139094   1.289   4.689   6.191  0.3788 -1.0106 -0.0940
12674SOL    HW239095   1.432   4.704   6.146 -0.2823  2.2013 -1.4442
12675SOL     OW39096   3.449   7.728   5.846  0.1104  0.7219 -0.6872
12675SOL    HW139097   3.535   7.691   5.830  0.6290  1.4075  0.3953
12675SOL    HW239098   3.420   7.686   5.928 -0.3802  0.8434 -0.7932
12676SOL     OW39099   2.670   3.314   6.371  0.6627 -0.2664 -0.6900
12676SOL    HW139100   2.626   3.235   6.339 -0.0056  0.2271 -0.9926
12676SOL    HW239101   2.704   3.357   6.293 -0.6050  0.7180 -0.7352
12677SOL     OW39102   0.867   2.048   5.970  0.1125 -0.4192 -0.3096
12677SOL    HW139103   0.912   2.132   5.958  1.1262 -0.8172  0.5266
12677SOL    HW239104   0.775   2.070   5.977  0.5308  0.9021  2.1937
12678SOL     OW39105   3.911   7.382   5.644 -0.4625  0.8159 -0.5128
12678SOL    HW139106   3.929   7.476   5.649  0.3911  0.6072  0.6419
12678SOL    HW239107   3.963   7.343   5.714 -1.9818 -0.3666  0.0160
12679SOL     OW39108   3.542   7.008   4.123 -0.2198  0.5175 -0.0483
12679SOL    HW139109   3.586   7.002   4.038  1.7629  0.6383  0.9087
12679SOL    HW239110   3.450   7.022   4.101  0.2258  0.5289 -2.1695
12680SOL     OW39111   1.837   2.289   0.368  0.8580 -0.1431 -0.0386
12680SOL    HW139112   1.919   2.242   0.382 -0.9266 -3.4180  0.3942
12680SOL    HW239113   1.826   2.290   0.273  1.1907 -0.0876 -0.0782
12681SOL     OW39114   0.175   5.938   5.701 -0.4213  0.6204 -0.0386
12681SOL    HW139115   0.261   5.901   5.687 -0.1152  1.2917  0.0252
12681SOL    HW239116   0.130   5.875   5.757  0.8709  1.3896  1.9820
12682SOL     OW39117   2.836   4.776   4.499 -0.6108 -0.4043  0.1575
12682SOL    HW139118   2.904   4.818   4.446 -1.3638  1.4631  0.5897
12682SOL    HW239119   2.766   4.842   4.504 -1.5300 -1.4398  1.5249
12683SOL     OW39120   0.689   5.165   6.093  0.7012  0.0531  0.0936
12683SOL    HW139121   0.754   5.103   6.126  0.5777  0.5106  1.2286
12683SOL    HW239122   0.609   5.114   6.084  0.5298  0.1048  1.2875
12684SOL     OW39123   3.355   2.573   3.746 -0.1183  0.8280 -0.2325
12684SOL    HW139124   3.337   2.614   3.661 -0.0283 -2.1799 -1.8473
12684SOL    HW239125   3.275   2.588   3.797 -1.2477  0.5090 -1.8217
12685SOL     OW39126   6.481   5.329   1.771 -0.1933 -0.5094 -0.3492
12685SOL    HW139127   6.487   5.233   1.775  0.6844 -0.4287  2.8082
12685SOL    HW239128   6.388   5.348   1.785 -0.1641 -0.9127  0.4743
12686SOL     OW39129   0.306   5.292   2.773 -0.3158 -0.3984 -1.0267
12686SOL    HW139130   0.260   5.209   2.757  0.3726 -0.8596 -0.6770
12686SOL    HW239131   0.399   5.271   2.761 -0.0826  0.1565 -0.2817
12687SOL     OW39132   4.791   1.798   1.739 -0.3051  0.2506 -0.0896
12687SOL    HW139133   4.841   1.862   1.791  2.0872 -0.3621 -1.4989
12687SOL    HW239134   4.779   1.841   1.654 -0.7360 -0.2657 -0.2904
12688SOL     OW39135   2.593   4.326   0.642  0.2594 -0.0076 -0.2271
12688SOL    HW139136   2.615   4.331   0.549  0.2549  2.0665 -0.1673
12688SOL    HW239137   2.520   4.265   0.646  0.1977 -0.0659 -1.6119
12689SOL     OW39138   4.930   3.366   4.321  0.3206 -0.0989  0.3755
12689SOL    HW139139   4.854   3.376   4.378 -0.3207 -0.9619 -0.3014
12689SOL    HW239140   4.900   3.395   4.235  0.5325 -1.0698 -0.0448
12690SOL     OW39141   0.219   4.623   6.483 -0.4037 -0.4361 -0.3560
12690SOL    HW139142   0.313   4.620   6.501 -0.3158 -2.0623 -0.9309
12690SOL    HW239143   0.184   4.685   6.547  0.9354 -0.4239  0.3991
12691SOL     OW39144   7.150   7.765   2.425  0.1036 -0.1924  0.0498
12691SOL    HW139145   7.155   7.804   2.512 -0.9884 -0.9614  0.4735
12691SOL    HW239146   7.214   7.814   2.373  1.1350 -0.0571  1.4026
12692SOL     OW39147   2.709   5.135   0.427  0.1570  0.2173 -0.2432
12692SOL    HW139148   2.641   5.145   0.361 -0.0698  0.0647 -0.0305
12692SOL    HW239149   2.666   5.155   0.510  0.7326  1.6683 -0.2471
12693SOL     OW39150   3.965   1.112   5.448 -0.1489  0.0225  0.1777
12693SOL    HW139151   4.001   1.185   5.397  0.1655 -0.0405  0.3083
12693SOL    HW239152   3.961   1.039   5.386 -2.2580  0.6399 -0.5014
12694SOL     OW39153   6.647   0.755   1.740  0.7554  0.1729 -0.4421
12694SOL    HW139154   6.670   0.825   1.679  0.6497  0.3597 -0.2664
12694SOL    HW239155   6.641   0.798   1.826  0.7122 -0.0534 -0.3303
12695SOL     OW39156   5.195   4.502   3.657 -0.1976 -0.6731 -0.0530
12695SOL    HW139157   5.268   4.560   3.678 -0.9503  0.3609 -0.1588
12695SOL    HW239158   5.227   4.448   3.585  0.5606 -0.4488  0.1070
12696SOL     OW39159   3.593   7.998   5.255  0.1728  0.1057 -0.2339
12696SOL    HW139160   3.678   8.036   5.277  0.9253 -1.0594 -0.9787
12696SOL    HW239161   3.538   8.015   5.331  0.8667  1.4720 -0.0146
12697SOL     OW39162   0.207   3.183   6.912  0.6541 -0.5162 -0.1417
12697SOL    HW139163   0.194   3.224   6.997  0.0695 -0.4469 -0.2610
12697SOL    HW239164   0.301   3.193   6.895  0.8776 -0.9886  0.7250
12698SOL     OW39165   1.469   2.006   7.639 -0.3056  0.2488  0.6657
12698SOL    HW139166   1.418   2.030   7.561 -1.2666 -2.8674  0.1998
12698SOL    HW239167   1.406   2.014   7.712  0.1475  1.6208  0.9374
12699SOL     OW39168   4.147   2.434   1.036 -0.2030  0.0016  0.7279
12699SOL    HW139169   4.093   2.505   1.069  0.1844  1.8538 -2.2356
12699SOL    HW239170   4.088   2.381   0.982 -0.1918 -1.2273  1.8577
12700SOL     OW39171   6.413   5.780   3.900  0.1716  0.3574 -0.2042
12700SOL    HW139172   6.482   5.825   3.852 -0.3376  0.2748 -1.0350
12700SOL    HW239173   6.460   5.725   3.963  0.9872 -1.3984 -2.2300
12701SOL     OW39174   2.961   4.698   5.796 -0.1075  0.6386 -0.2152
12701SOL    HW139175   3.018   4.621   5.799 -1.2556 -0.4927 -3.1426
12701SOL    HW239176   3.015   4.770   5.828  0.7082 -1.4326  3.6406
12702SOL     OW39177   7.366   0.661   0.154 -0.8105  0.2769 -0.0782
12702SOL    HW139178   7.391   0.592   0.215 -1.4956 -0.0694 -0.1806
12702SOL    HW239179   7.443   0.673   0.098 -0.2492  0.4583  0.7235
12703SOL     OW39180   6.922   2.555   1.151  0.2742 -0.7450  1.0289
12703SOL    HW139181   6.974   2.474   1.142  0.2482 -0.8550  1.7856
12703SOL    HW239182   6.975   2.622   1.108  0.0669 -1.2499 -0.0516
12704SOL     OW39183   0.804   7.849   1.423  0.0406  0.1021  1.0005
12704SOL    HW139184   0.712   7.823   1.422 -1.0454  3.4226  0.6851
12704SOL    HW239185   0.836   7.825   1.510 -1.0487 -1.2548  1.0466
12705SOL     OW39186   7.092   7.032   5.556  0.3951  0.0614  0.1837
12705SOL    HW139187   7.087   7.067   5.467  3.2801  0.6294  0.1481
12705SOL    HW239188   7.083   7.109   5.613  0.8954  0.0544  0.2809
12706SOL     OW39189   3.042   5.091   2.007  0.7752 -0.1054  0.2828
12706SOL    HW139190   3.115   5.091   2.069  1.9031  2.6647 -0.8459
12706SOL    HW239191   3.048   5.176   1.963 -2.2744 -0.3718 -0.9337
12707SOL     OW39192   6.121   5.549   4.002  0.2372 -0.4653 -0.4706
12707SOL    HW139193   6.166   5.479   4.050 -1.4839 -0.3637  1.4497
12707SOL    HW239194   6.159   5.547   3.914  1.6090 -2.5067  0.1068
12708SOL     OW39195   7.407   1.735   2.123 -0.1164  0.5700  0.2832
12708SOL    HW139196   7.395   1.826   2.148  0.2408  0.3870  1.1556
12708SOL    HW239197   7.318   1.699   2.120 -0.3369  1.1894 -1.0591
12709SOL     OW39198   4.038   0.494   3.427 -0.2538 -0.8790 -0.5882
12709SOL    HW139199   4.069   0.574   3.385 -0.8048 -0.6765 -0.6135
12709SOL    HW239200   4.021   0.519   3.517  0.4002 -1.1808 -0.3752
12710SOL     OW39201   0.699   5.045   7.036 -0.3099  0.8701  0.0398
12710SOL    HW139202   0.615   5.042   7.082  0.0571 -0.2407  0.6901
12710SOL    HW239203   0.677   5.076   6.948 -1.2931  1.2741  0.4079
12711SOL     OW39204   6.626   4.454   3.438  0.0123 -0.5957 -0.3273
12711SOL    HW139205   6.570   4.509   3.491  0.3499  1.9939 -2.4809
12711SOL    HW239206   6.566   4.408   3.379 -0.2248 -2.3259  1.1587
12712SOL     OW39207   3.255   5.521   7.103 -0.2309 -0.3088  0.3450
12712SOL    HW139208   3.284   5.587   7.040 -0.3609 -2.2913 -1.9557
12712SOL    HW239209   3.327   5.458   7.106  0.5057  0.5212  3.5748
12713SOL     OW39210   3.626   6.606   7.769 -0.1066  1.2013  0.1423
12713SOL    HW139211   3.721   6.600   7.781  0.0669  1.2446 -1.1022
12713SOL    HW239212   3.591   6.540   7.829  0.7938  0.1472 -0.4319
12714SOL     OW39213   7.119   3.655   1.328 -0.0867  0.3387 -0.1764
12714SOL    HW139214   7.042   3.701   1.295 -0.8902 -0.5667  0.3969
12714SOL    HW239215   7.102   3.642   1.421  1.5722  1.6850  0.3680
12715SOL     OW39216   7.254   4.762   5.327  0.2617 -0.5734 -0.2319
12715SOL    HW139217   7.312   4.816   5.380  0.2297  0.4913 -1.2413
12715SOL    HW239218   7.246   4.680   5.376 -0.8787  0.8324  2.1178
12716SOL     OW39219   4.089   0.139   3.966  0.0179 -0.3713  0.0955
12716SOL    HW139220   4.134   0.201   4.023  0.4752 -2.4809  2.1796
12716SOL    HW239221   4.151   0.067   3.954 -1.1121 -1.2391 -0.7778
12717SOL     OW39222   6.929   4.193   7.801  0.4380 -0.2521 -0.1245
12717SOL    HW139223   6.923   4.129   7.730 -0.7936  0.8226 -1.0412
12717SOL    HW239224   6.857   4.253   7.785  0.2393  0.1430  1.9571
12718SOL     OW39225   5.488   0.043   4.282  0.4622 -0.1873 -0.0862
12718SOL    HW139226   5.536   0.012   4.359 -1.9517  2.4408  2.7305
12718SOL    HW239227   5.541   0.116   4.250  1.1045 -0.8344 -0.5503
12719SOL     OW39228   7.210   0.256   1.266  0.0635  0.3515  0.0572
12719SOL    HW139229   7.192   0.192   1.336 -1.4742 -0.3701 -0.9423
12719SOL    HW239230   7.255   0.327   1.310  3.4286 -2.0980  0.9534
12720SOL     OW39231   5.839   0.427   5.177 -0.3752 -0.4470  0.5533
12720SOL    HW139232   5.818   0.368   5.104 -2.3279 -0.8842  1.4008
12720SOL    HW239233   5.857   0.511   5.136 -0.5249 -0.9148 -0.4917
12721SOL     OW39234   2.503   7.242   2.787 -0.0950  0.0644 -0.8112
12721SOL    HW139235   2.560   7.166   2.773 -0.5583 -0.1754 -1.4674
12721SOL    HW239236   2.561   7.317   2.784  0.4911 -0.2992  0.6329
12722SOL     OW39237   8.000   5.441   0.495 -0.3499 -0.0618 -0.0974
12722SOL    HW139238   7.997   5.506   0.425 -0.0437 -0.4281 -0.4529
12722SOL    HW239239   7.946   5.479   0.565  0.9599  1.2299  0.2676
12723SOL     OW39240   3.405   2.779   3.216 -0.5977  0.2020 -0.0401
12723SOL    HW139241   3.362   2.818   3.140  0.6954  0.2920 -0.7503
12723SOL    HW239242   3.411   2.851   3.279  1.7730  1.2603 -1.3412
12724SOL     OW39243   8.038   2.921   5.589 -0.3269 -0.4789  0.4440
12724SOL    HW139244   8.099   2.937   5.517 -0.0120  1.3425  1.0801
12724SOL    HW239245   8.034   2.825   5.595  0.7145 -0.6620 -1.0695
12725SOL     OW39246   2.066   3.539   3.927 -0.4694 -0.1372 -0.2284
12725SOL    HW139247   2.068   3.634   3.909  2.6597 -0.1100 -0.3411
12725SOL    HW239248   2.014   3.503   3.855 -1.3986  1.4261 -0.4067
12726SOL     OW39249   1.410   5.608   7.462 -0.0639  0.3104  0.4830
12726SOL    HW139250   1.471   5.645   7.398 -1.8235  2.0429 -0.3205
12726SOL    HW239251   1.363   5.684   7.497 -2.3163 -0.9529  0.4393
12727SOL     OW39252   3.462   2.913   6.706  0.0401 -0.1516 -0.3722
12727SOL    HW139253   3.481   2.860   6.628 -0.4251 -0.4306 -0.3028
12727SOL    HW239254   3.548   2.942   6.737  0.3928 -1.7571  0.2152
12728SOL     OW39255   1.895   2.738   1.734  0.1062 -0.2387 -0.0251
12728SOL    HW139256   1.825   2.788   1.691 -0.7524 -1.2730  0.1270
12728SOL    HW239257   1.970   2.748   1.675 -0.2603  0.5888 -0.3776
12729SOL     OW39258   8.159   2.204   4.152 -0.2487 -0.4967 -0.5422
12729SOL    HW139259   8.073   2.162   4.145  0.1893 -1.3250 -1.3036
12729SOL    HW239260   8.141   2.297   4.140 -1.1239 -0.5752  0.0647
12730SOL     OW39261   6.691   0.308   6.977  0.1298 -0.0344  0.1431
12730SOL    HW139262   6.605   0.335   7.009 -0.1511 -0.8031  0.0450
12730SOL    HW239263   6.696   0.215   6.998  1.1895  0.1365  0.6990
12731SOL     OW39264   1.375   4.606   7.209  0.1419  0.3439 -0.0376
12731SOL    HW139265   1.432   4.533   7.183  0.9202  0.9843 -0.1940
12731SOL    HW239266   1.291   4.588   7.167  0.9993  0.7064 -2.0567
12732SOL     OW39267   5.896   6.317   5.430  0.1194 -0.4382 -0.3499
12732SOL    HW139268   5.973   6.359   5.392  0.3962 -0.5106  0.1200
12732SOL    HW239269   5.827   6.331   5.366  0.4607 -0.1460 -0.6591
12733SOL     OW39270   6.175   5.213   7.285  0.1604  0.2116 -0.5076
12733SOL    HW139271   6.115   5.154   7.332  1.1950  0.7914  1.7093
12733SOL    HW239272   6.247   5.157   7.257 -0.0135  0.0144 -0.5639
12734SOL     OW39273   5.842   5.121   4.787 -0.1075  0.2339 -0.4596
12734SOL    HW139274   5.844   5.192   4.722 -0.2718 -0.6237 -1.4199
12734SOL    HW239275   5.754   5.126   4.824  0.6217  2.0009  1.1813
12735SOL     OW39276   5.177   6.659   5.126 -0.5047 -0.0740 -0.0165
12735SOL    HW139277   5.179   6.691   5.036  1.3449 -0.4733 -0.1497
12735SOL    HW239278   5.092   6.615   5.134 -0.2049 -1.0898 -1.9283
12736SOL     OW39279   7.802   5.731   6.752 -0.2255 -0.3660 -0.1891
12736SOL    HW139280   7.816   5.825   6.759 -0.1756 -0.1229 -2.6873
12736SOL    HW239281   7.889   5.695   6.737 -0.5267 -0.4489 -1.9511
12737SOL     OW39282   0.352   5.737   2.272  0.3346 -0.6433  0.0777
12737SOL    HW139283   0.394   5.682   2.338 -1.9188  0.3326  2.5436
12737SOL    HW239284   0.260   5.709   2.273  0.0085  0.1626 -1.9049
12738SOL     OW39285   4.708   5.892   6.291 -0.1757  0.1777 -0.3177
12738SOL    HW139286   4.791   5.904   6.245 -0.4327  0.2425 -0.7703
12738SOL    HW239287   4.658   5.971   6.273 -0.7728 -0.3410 -0.9833
12739SOL     OW39288   7.391   0.438   2.474  0.4753  0.1331 -0.1501
12739SOL    HW139289   7.466   0.379   2.474  0.1138 -0.5215  3.7348
12739SOL    HW239290   7.424   0.518   2.515 -1.1991 -0.7843  3.3255
12740SOL     OW39291   4.092   5.796   4.531  0.6010  0.0419 -0.1434
12740SOL    HW139292   4.073   5.702   4.523  0.5491  0.0992 -0.6915
12740SOL    HW239293   4.187   5.799   4.545  0.7440 -0.0541 -1.0059
12741SOL     OW39294   2.675   0.146   0.181  0.8040 -0.1418 -0.0062
12741SOL    HW139295   2.658   0.117   0.270  2.1441  0.2672  0.4004
12741SOL    HW239296   2.708   0.236   0.191  0.4843  0.0971 -0.9517
12742SOL     OW39297   0.821   7.568   0.259 -0.5141  0.4271 -0.3063
12742SOL    HW139298   0.910   7.556   0.292 -0.3514  2.6133  0.2463
12742SOL    HW239299   0.782   7.481   0.261  1.9375 -0.8133 -1.6120
12743SOL     OW39300   3.459   3.974   5.192 -0.1628  0.2491 -0.0734
12743SOL    HW139301   3.466   3.970   5.287 -0.3679 -2.8576 -0.0721
12743SOL    HW239302   3.378   4.023   5.175 -2.1600 -2.2361  1.5748
12744SOL     OW39303   5.935   1.128   3.498 -0.3144 -0.1112 -0.0709
12744SOL    HW139304   5.945   1.221   3.478  0.8835 -0.2635 -0.2936
12744SOL    HW239305   5.989   1.084   3.432 -0.7732 -0.9542  0.1076
12745SOL     OW39306   5.201   7.162   3.593  0.3136 -0.0641 -0.4134
12745SOL    HW139307   5.197   7.195   3.683  0.2604 -0.0320 -0.4277
12745SOL    HW239308   5.110   7.150   3.568  0.1031  2.9789 -1.5956
12746SOL     OW39309   5.547   8.066   5.745 -0.1554  0.0390  0.5879
12746SOL    HW139310   5.473   8.074   5.806  0.1739  0.4762  0.9365
12746SOL    HW239311   5.507   8.034   5.664 -0.4115 -1.8736  1.4074
12747SOL     OW39312   2.809   5.569   7.238  0.3814  0.6886  0.2436
12747SOL    HW139313   2.869   5.509   7.282  1.7762 -0.4494 -2.9283
12747SOL    HW239314   2.862   5.611   7.171 -1.9510  0.9613 -1.5610
12748SOL     OW39315   2.035   4.247   0.310  0.4427 -0.0394  0.8488
12748SOL    HW139316   2.077   4.306   0.247 -0.6630  1.8736  1.8100
12748SOL    HW239317   2.106   4.218   0.367  0.7737  2.0684  1.6182
12749SOL     OW39318   2.060   7.744   1.937  0.0360 -0.4180  0.1446
12749SOL    HW139319   1.989   7.724   1.997 -2.1813 -1.5522 -2.6058
12749SOL    HW239320   2.034   7.826   1.894  0.8336 -0.3686 -0.2865
12750SOL     OW39321   6.512   2.300   5.811  0.1679 -0.4538  0.3910
12750SOL    HW139322   6.578   2.279   5.877  1.9181  3.0377 -0.0167
12750SOL    HW239323   6.543   2.257   5.731  0.6059 -0.9004  0.8005
12751SOL     OW39324   5.876   4.842   1.183 -0.5249 -0.1798 -0.0653
12751SOL    HW139325   5.949   4.784   1.162  0.0520  1.0156 -1.5168
12751SOL    HW239326   5.836   4.862   1.098 -1.2465  0.8259  0.4885
12752SOL     OW39327   5.257   4.201   3.473 -0.1208 -0.5058  0.1853
12752SOL    HW139328   5.175   4.163   3.506  0.7555 -0.5992  2.4013
12752SOL    HW239329   5.323   4.134   3.490  0.9251  0.7648  1.3715
12753SOL     OW39330   1.025   5.553   0.976 -0.3056 -0.1461  0.1592
12753SOL    HW139331   0.944   5.519   1.014  0.1455  0.7162  2.0070
12753SOL    HW239332   1.059   5.613   1.042  1.6904 -0.2516 -0.7043
12754SOL     OW39333   6.242   3.316   3.058 -0.3785  0.8957 -0.6746
12754SOL    HW139334   6.305   3.360   3.115  0.3508 -0.1148 -0.6838
12754SOL    HW239335   6.265   3.224   3.063 -0.2801  0.7811 -2.6142
12755SOL     OW39336   1.347   5.148   2.275  0.4210  0.4133  0.2561
12755SOL    HW139337   1.296   5.121   2.199  1.1896  0.0737 -0.1517
12755SOL    HW239338   1.291   5.130   2.350 -0.1330  0.2433 -0.1946
12756SOL     OW39339   1.715   6.169   1.618  0.6128  0.2768  0.5507
12756SOL    HW139340   1.712   6.260   1.591 -1.9063 -0.0671 -0.6101
12756SOL    HW239341   1.625   6.137   1.605  1.4731 -2.4268  0.6916
12757SOL     OW39342   6.079   5.703   6.397  0.1268  0.2659 -0.3611
12757SOL    HW139343   6.035   5.787   6.410  1.9742  1.1171  0.8505
12757SOL    HW239344   6.026   5.641   6.447 -0.7071  0.8785 -0.4490
12758SOL     OW39345   2.875   2.411   0.092  0.1903 -0.4183 -0.0908
12758SOL    HW139346   2.786   2.429   0.121 -0.1479 -1.5431 -0.3912
12758SOL    HW239347   2.864   2.369   0.007  1.0989  1.3089 -1.1047
12759SOL     OW39348   0.577   6.177   2.111  0.0347 -0.4759  0.4223
12759SOL    HW139349   0.499   6.152   2.160 -0.3420 -0.6076 -0.2332
12759SOL    HW239350   0.556   6.263   2.076  0.1559 -0.5470  0.1753
12760SOL     OW39351   5.298   6.551   3.744 -0.1912  0.2561 -0.0798
12760SOL    HW139352   5.383   6.587   3.769 -0.3795 -0.3849  1.6461
12760SOL    HW239353   5.246   6.627   3.720  0.3442  0.8352  0.5452
12761SOL     OW39354   5.950   1.052   0.422 -0.2687 -0.7732  0.6858
12761SOL    HW139355   5.999   1.024   0.499  0.8138 -0.8353  0.0042
12761SOL    HW239356   6.000   1.017   0.348 -0.0693  1.0912 -0.1124
12762SOL     OW39357   8.087   2.496   0.147 -0.8794 -0.0227 -0.4894
12762SOL    HW139358   8.058   2.405   0.138 -0.0137 -0.3239 -0.3630
12762SOL    HW239359   8.162   2.502   0.089 -1.8416  1.0511 -1.6672
12763SOL     OW39360   1.382   0.934   4.961  0.2476 -0.2275 -0.4846
12763SOL    HW139361   1.373   1.015   5.012 -2.8582 -1.0537  0.4983
12763SOL    HW239362   1.466   0.897   4.988 -0.0928  0.7045  2.0870
12764SOL     OW39363   5.696   0.149   7.770 -0.1271  0.1958  0.0567
12764SOL    HW139364   5.674   0.211   7.701 -0.5117 -1.2139 -1.1350
12764SOL    HW239365   5.735   0.075   7.724  0.6015 -0.3360  1.4700
12765SOL     OW39366   3.057   0.322   5.922  0.3111  0.4183  0.0433
12765SOL    HW139367   3.111   0.399   5.906 -1.6670  2.4193  2.2763
12765SOL    HW239368   3.064   0.307   6.016 -0.7630 -1.0375 -0.0763
12766SOL     OW39369   6.425   1.515   6.318  0.2813 -0.3043 -0.6558
12766SOL    HW139370   6.430   1.602   6.358 -1.8344  0.0857 -1.1496
12766SOL    HW239371   6.404   1.532   6.227 -3.1948 -1.2945 -0.1720
12767SOL     OW39372   1.410   6.571   2.032 -0.0379 -0.4376  0.2848
12767SOL    HW139373   1.346   6.515   2.076 -1.0984  0.8744  0.4467
12767SOL    HW239374   1.358   6.630   1.978  1.0795  0.1368 -0.1904
12768SOL     OW39375   6.844   2.027   1.052  0.1213  0.2981 -0.3822
12768SOL    HW139376   6.914   1.961   1.041  0.3943  0.3214  1.0631
12768SOL    HW239377   6.887   2.110   1.034  0.8027  0.4224  1.5937
12769SOL     OW39378   5.851   0.932   1.713  0.2403  0.2059 -0.4219
12769SOL    HW139379   5.785   0.863   1.704  1.0404 -0.7138  0.4456
12769SOL    HW239380   5.827   0.977   1.794 -0.3011  0.9933 -1.0051
12770SOL     OW39381   1.706   1.972   4.013 -0.0371  0.1870  0.0447
12770SOL    HW139382   1.802   1.964   4.016  0.0575  1.2338  0.2396
12770SOL    HW239383   1.687   1.994   3.922 -0.1967 -0.9902 -0.2282
12771SOL     OW39384   1.995   7.654   6.532  0.7370 -0.1409  0.0532
12771SOL    HW139385   2.048   7.730   6.508  0.3678 -0.2246 -1.0956
12771SOL    HW239386   1.910   7.670   6.490  0.8387 -1.4479 -0.7005
12772SOL     OW39387   0.854   4.869   5.553  0.5862  0.2373  0.9455
12772SOL    HW139388   0.889   4.785   5.525  0.3804  0.7752 -1.1559
12772SOL    HW239389   0.920   4.905   5.613  1.5287 -0.6482  0.4652
12773SOL     OW39390   6.816   5.024   3.577  0.3251 -0.3319  0.2141
12773SOL    HW139391   6.889   4.975   3.614  1.0611  0.7852  0.2797
12773SOL    HW239392   6.781   5.074   3.650 -1.1759 -1.6004  0.4198
12774SOL     OW39393   7.217   2.478   0.954 -0.7264 -0.5994  0.3293
12774SOL    HW139394   7.150   2.523   1.006 -1.0789 -0.8324  0.0773
12774SOL    HW239395   7.199   2.504   0.864 -1.3917 -1.8050  0.0856
12775SOL     OW39396   5.415   2.487   5.541  0.2864 -0.7680 -0.6532
12775SOL    HW139397   5.379   2.461   5.456 -0.2613 -0.8804 -0.3893
12775SOL    HW239398   5.380   2.422   5.603 -2.3111  1.3200  0.2841
12776SOL     OW39399   6.053   4.974   4.896  0.0702 -0.7591 -0.6480
12776SOL    HW139400   5.984   5.040   4.890  1.5796  0.8609 -0.8917
12776SOL    HW239401   6.114   5.008   4.962  1.3062 -1.4942 -1.3690
12777SOL     OW39402   0.312   5.908   2.699 -0.0419  0.4899 -0.2686
12777SOL    HW139403   0.280   5.949   2.780  1.5911  0.4159  0.4573
12777SOL    HW239404   0.335   5.819   2.724  1.2922  0.7203 -0.5701
12778SOL     OW39405   7.874   6.834   4.016  0.1425  0.4762 -0.6768
12778SOL    HW139406   7.894   6.859   3.926  0.4532 -1.0535 -1.0653
12778SOL    HW239407   7.953   6.790   4.047 -0.4472 -0.2340 -0.1340
12779SOL     OW39408   4.656   2.517   5.642 -0.0612 -0.5293 -0.0865
12779SOL    HW139409   4.626   2.470   5.564 -0.7711 -0.5153  0.1706
12779SOL    HW239410   4.751   2.501   5.645  0.0815  0.0324 -1.3217
12780SOL     OW39411   1.550   0.675   1.822  0.6436 -0.5848  0.5358
12780SOL    HW139412   1.595   0.685   1.738 -0.3077 -0.7113 -0.0031
12780SOL    HW239413   1.549   0.762   1.860  1.5528 -0.6270  0.6700
12781SOL     OW39414   0.496   4.062   8.133  0.1530  0.3904  0.9151
12781SOL    HW139415   0.434   4.060   8.206 -1.2248 -0.5046 -0.2266
12781SOL    HW239416   0.538   3.976   8.136  4.4166  2.2287  4.0809
12782SOL     OW39417   5.088   5.509   2.582  0.1604  0.4383 -0.2118
12782SOL    HW139418   5.087   5.515   2.486 -1.5121 -0.3350 -0.2733
12782SOL    HW239419   5.020   5.446   2.603 -0.4439  1.5971  1.5535
12783SOL     OW39420   1.788   8.076   6.839  0.2521 -0.1596 -0.0141
12783SOL    HW139421   1.812   8.101   6.750  0.6360  0.1978  0.1871
12783SOL    HW239422   1.835   7.993   6.854  0.5901  0.0356  0.0273
12784SOL     OW39423   6.118   6.125   6.592  0.3818 -0.0362 -0.1820
12784SOL    HW139424   6.137   6.204   6.540 -0.3001  0.6600  0.5898
12784SOL    HW239425   6.143   6.149   6.681 -1.6052  0.0333  0.4192
12785SOL     OW39426   5.532   5.705   6.385  0.1027  0.4697 -0.4441
12785SOL    HW139427   5.606   5.761   6.363 -0.0455  0.8086 -0.0738
12785SOL    HW239428   5.488   5.690   6.301  0.3766  0.5642 -0.6065
12786SOL     OW39429   2.940   5.038   3.802  0.3305 -0.0799 -0.4921
12786SOL    HW139430   3.025   5.035   3.758  0.5136 -0.3424 -0.1343
12786SOL    HW239431   2.950   4.976   3.875  0.0617  0.3983 -0.0457
12787SOL     OW39432   1.779   1.143   1.144 -0.0495  0.7149 -0.0415
12787SOL    HW139433   1.828   1.085   1.086  0.9460  0.5514  0.9336
12787SOL    HW239434   1.785   1.102   1.230  0.5313  2.1463  0.6458
12788SOL     OW39435   5.766   2.036   7.988  0.1159  0.2843  0.6300
12788SOL    HW139436   5.743   2.003   7.901  0.7193  1.2490  0.0929
12788SOL    HW239437   5.854   2.073   7.977  1.3199 -1.8006  2.2157
12789SOL     OW39438   5.767   7.966   4.137 -0.4189  0.2504 -0.1895
12789SOL    HW139439   5.781   7.892   4.196 -0.0292 -0.2582 -0.8950
12789SOL    HW239440   5.839   7.959   4.074 -1.7274 -0.2007 -1.7047
12790SOL     OW39441   4.313   7.387   3.949 -0.0075 -0.0998 -0.1482
12790SOL    HW139442   4.361   7.312   3.913 -2.4804 -0.9967 -1.8457
12790SOL    HW239443   4.370   7.462   3.933  1.7589 -1.3569 -0.0349
12791SOL     OW39444   1.849   3.709   5.040  0.0630  0.0450  0.5968
12791SOL    HW139445   1.837   3.614   5.043 -1.5440  0.1888 -0.1840
12791SOL    HW239446   1.919   3.722   4.977  0.5397 -0.6237  0.9698
12792SOL     OW39447   4.059   0.787   5.425 -0.0243 -0.2036 -0.3079
12792SOL    HW139448   4.069   0.750   5.337  0.0287 -1.5045  0.2174
12792SOL    HW239449   3.965   0.788   5.440 -0.0221 -0.2122 -0.2932
12793SOL     OW39450   3.769   8.049   6.418  0.1243 -0.0185  0.0925
12793SOL    HW139451   3.812   8.116   6.471  1.2074 -0.4927 -0.1599
12793SOL    HW239452   3.737   8.096   6.341  0.6837  0.2380  0.0177
12794SOL     OW39453   3.299   2.751   1.334  0.3070  0.0315  0.5255
12794SOL    HW139454   3.253   2.702   1.265  0.7880 -1.7315  1.3998
12794SOL    HW239455   3.387   2.713   1.336  0.4778  0.4600  1.7100
12795SOL     OW39456   6.634   0.167   5.453  0.3978 -0.3944  0.0685
12795SOL    HW139457   6.602   0.218   5.528  0.5682  0.3960 -0.3835
12795SOL    HW239458   6.676   0.090   5.492 -0.5064 -0.5625  0.7339
12796SOL     OW39459   4.247   3.398   3.448 -0.6544  0.3056  0.2634
12796SOL    HW139460   4.328   3.447   3.459 -0.7425  0.3899  0.5455
12796SOL    HW239461   4.274   3.306   3.448  0.0263  0.3108 -4.0162
12797SOL     OW39462   7.026   4.476   1.976 -0.2385  0.0921  0.4380
12797SOL    HW139463   7.096   4.423   2.014 -1.3903 -1.0041  1.0997
12797SOL    HW239464   7.010   4.437   1.891  0.6758  1.0427 -0.2071
12798SOL     OW39465   7.464   0.963   0.213  0.0836 -0.5101 -1.0317
12798SOL    HW139466   7.409   1.036   0.241 -0.6240 -1.5236  0.3424
12798SOL    HW239467   7.417   0.923   0.141  0.1347 -0.0323 -1.3338
12799SOL     OW39468   7.815   6.066   1.558  0.3444 -0.4969 -0.0161
12799SOL    HW139469   7.741   6.103   1.511 -0.3607 -0.3671  1.1606
12799SOL    HW239470   7.841   5.989   1.506 -1.4987 -1.3653  0.2603
12800SOL     OW39471   5.601   6.341   2.787  0.5102  0.7324 -0.5765
12800SOL    HW139472   5.548   6.309   2.859  1.1681 -2.0881 -1.1976
12800SOL    HW239473   5.680   6.376   2.828  1.3808 -1.8559  0.1480
12801SOL     OW39474   7.369   0.887   6.303 -0.5139  0.3806 -0.0168
12801SOL    HW139475   7.458   0.903   6.274  0.1828 -1.0238  1.2336
12801SOL    HW239476   7.314   0.921   6.233  0.9644  2.0355 -0.4302
12802SOL     OW39477   4.873   4.704   1.893  0.0358  0.1245  0.5957
12802SOL    HW139478   4.819   4.781   1.874  0.6490  0.1608 -1.1537
12802SOL    HW239479   4.811   4.638   1.924 -0.5116  1.2656  2.0831
12803SOL     OW39480   3.629   3.196   8.088  0.5111 -0.5568 -0.2793
12803SOL    HW139481   3.708   3.165   8.131  2.0753 -0.0759 -2.6326
12803SOL    HW239482   3.613   3.132   8.019  0.0725  0.4634 -1.1485
12804SOL     OW39483   7.035   3.045   4.142  0.5816  0.6132  0.5600
12804SOL    HW139484   6.949   3.072   4.175  0.3528  0.3456  0.1973
12804SOL    HW239485   7.044   2.954   4.170  1.4465  1.1087  1.9665
12805SOL     OW39486   2.889   7.404   2.050 -0.2449 -0.3918  0.4960
12805SOL    HW139487   2.813   7.440   2.094  0.2983 -1.1638  2.1408
12805SOL    HW239488   2.890   7.448   1.964 -0.9064  1.7446  1.5090
12806SOL     OW39489   0.929   8.143   0.183 -0.0909  0.1232  0.3311
12806SOL    HW139490   0.838   8.174   0.188 -0.0860  0.8375 -2.3682
12806SOL    HW239491   0.972   8.205   0.124  1.9391 -0.7506  0.7947
12807SOL     OW39492   4.494   2.014   1.339  0.4241  0.9512  0.3205
12807SOL    HW139493   4.446   2.091   1.309  2.2428  2.4002  0.9247
12807SOL    HW239494   4.428   1.946   1.349 -1.1635  2.2715 -0.7496
12808SOL     OW39495   7.206   4.412   4.610  0.6393  0.4055  0.3198
12808SOL    HW139496   7.231   4.433   4.700 -1.3202  0.0484  0.9856
12808SOL    HW239497   7.281   4.442   4.557  1.8045  0.6825  2.0310
12809SOL     OW39498   5.349   0.614   3.173 -0.4519 -0.2130 -0.2360
12809SOL    HW139499   5.328   0.564   3.253  0.1236 -0.0881 -0.0063
12809SOL    HW239500   5.311   0.562   3.102  0.2419 -1.0530 -0.0144
12810SOL     OW39501   3.516   1.620   8.132 -0.2278  0.5556 -0.6708
12810SOL    HW139502   3.448   1.662   8.185  1.1596  1.5272  0.3845
12810SOL    HW239503   3.479   1.534   8.110 -2.1385  1.3776 -0.8671
12811SOL     OW39504   8.155   0.897   1.526 -0.4574 -0.7036  0.0420
12811SOL    HW139505   8.156   0.986   1.562 -0.2738 -0.9066  0.5563
12811SOL    HW239506   8.224   0.897   1.460 -0.1596 -0.5850  0.3492
12812SOL     OW39507   3.140   1.455   2.089  0.0637  0.2785 -1.1577
12812SOL    HW139508   3.210   1.435   2.026  1.7164  1.0283  0.3360
12812SOL    HW239509   3.175   1.425   2.173 -0.6663  2.2458 -0.0887
12813SOL     OW39510   2.634   7.218   3.639 -0.0465  0.0357  0.2870
12813SOL    HW139511   2.687   7.146   3.606  1.3592  0.4683  1.4663
12813SOL    HW239512   2.667   7.233   3.728 -2.0089  0.5002  0.9915
12814SOL     OW39513   3.133   5.760   1.306 -0.3418 -0.2192  0.1489
12814SOL    HW139514   3.066   5.696   1.283  0.9716 -1.1371 -1.3042
12814SOL    HW239515   3.097   5.844   1.278 -1.3313 -0.5367  0.4233
12815SOL     OW39516   6.762   3.156   5.289  0.0493  0.4996 -1.0237
12815SOL    HW139517   6.678   3.203   5.290  0.2552  0.8723  0.4377
12815SOL    HW239518   6.819   3.209   5.345  0.9726 -0.2900 -1.2022
12816SOL     OW39519   3.417   3.142   0.884 -0.1731  0.2539 -0.1846
12816SOL    HW139520   3.363   3.219   0.904 -0.7448 -0.5187  1.3991
12816SOL    HW239521   3.494   3.152   0.940  0.3356  0.2658 -0.8704
12817SOL     OW39522   3.671   0.114   2.861 -0.6141 -0.0400 -0.1176
12817SOL    HW139523   3.606   0.153   2.919  0.0983 -0.4087  0.9589
12817SOL    HW239524   3.651   0.150   2.774  0.1832  2.9872  0.8558
12818SOL     OW39525   5.585   3.043   4.599  0.0610  0.2512 -0.2000
12818SOL    HW139526   5.540   3.015   4.519 -0.0269  0.6651 -0.2954
12818SOL    HW239527   5.524   3.102   4.642  0.2533  0.3114 -0.0072
12819SOL     OW39528   3.452   4.711   8.024  0.1740 -0.3876 -0.0713
12819SOL    HW139529   3.411   4.624   8.020 -1.1157  0.1873  0.3350
12819SOL    HW239530   3.441   4.738   8.116 -1.7366  1.2711 -0.7215
12820SOL     OW39531   0.694   6.973   1.500 -0.1958 -0.5725 -0.0949
12820SOL    HW139532   0.773   7.021   1.528 -0.2963  0.2600 -1.1474
12820SOL    HW239533   0.645   6.958   1.581  1.1082 -1.2344  0.5999
12821SOL     OW39534   0.199   2.185   1.520  0.0265  0.0121 -0.2694
12821SOL    HW139535   0.174   2.125   1.590  0.3780 -0.6553 -0.7004
12821SOL    HW239536   0.134   2.170   1.451  0.6922 -0.6232 -0.7806
12822SOL     OW39537   8.108   7.754   3.204 -0.5133 -0.1630  0.0073
12822SOL    HW139538   8.112   7.790   3.292 -1.4078  1.1961 -0.4663
12822SOL    HW239539   8.117   7.830   3.146 -1.4912 -0.8134 -1.0537
12823SOL     OW39540   7.304   0.274   4.702 -0.1409  0.4413 -0.1339
12823SOL    HW139541   7.238   0.299   4.767  1.3631  0.7514  1.3206
12823SOL    HW239542   7.325   0.355   4.656 -0.0806  0.5343  0.0569
12824SOL     OW39543   2.771   1.066   3.512 -0.1403  0.0742 -0.3874
12824SOL    HW139544   2.720   1.145   3.531  1.3754  0.7287  1.1397
12824SOL    HW239545   2.801   1.036   3.597  2.6351  0.1510 -1.2516
12825SOL     OW39546   0.307   3.718   1.943  0.2254 -0.3965 -0.4668
12825SOL    HW139547   0.397   3.685   1.946 -0.2506 -1.9164 -1.3783
12825SOL    HW239548   0.293   3.740   1.851 -0.3858 -0.3779 -0.3727
12826SOL     OW39549   2.247   3.267   7.800  0.4493  0.7627 -0.0696
12826SOL    HW139550   2.222   3.183   7.840 -2.6429  1.2160 -0.7769
12826SOL    HW239551   2.164   3.305   7.771  1.7283  4.1132  0.2407
12827SOL     OW39552   0.422   2.453   5.148  0.1374  0.0277  0.5265
12827SOL    HW139553   0.334   2.418   5.138  0.5275 -0.6353 -0.9632
12827SOL    HW239554   0.419   2.540   5.109 -0.0383  0.3605  1.2528
12828SOL     OW39555   7.800   6.004   6.784 -0.0172  0.6599  0.0321
12828SOL    HW139556   7.769   6.045   6.864 -6.8067 -1.7215 -0.6224
12828SOL    HW239557   7.757   6.053   6.714  0.7554 -0.8355 -1.5803
12829SOL     OW39558   3.186   5.292   4.200 -0.1814  0.4538 -0.2859
12829SOL    HW139559   3.183   5.202   4.233  0.0322  0.0587 -1.3066
12829SOL    HW239560   3.229   5.342   4.269  0.3468 -0.3652 -0.0102
12830SOL     OW39561   7.868   5.950   2.072 -0.1412 -0.3668 -0.1502
12830SOL    HW139562   7.913   5.888   2.015  0.1324 -1.4909  1.2159
12830SOL    HW239563   7.846   6.024   2.015  4.4266  0.8472 -0.7785
12831SOL     OW39564   3.682   2.245   5.653  0.6187  0.9560 -0.2530
12831SOL    HW139565   3.724   2.195   5.583  1.4633  0.5312  0.5466
12831SOL    HW239566   3.738   2.232   5.729 -2.4483 -2.2242  1.7685
12832SOL     OW39567   7.304   2.040   6.588  0.4031  0.5825 -0.0260
12832SOL    HW139568   7.362   1.968   6.615 -0.2352  0.2328  0.4517
12832SOL    HW239569   7.332   2.115   6.640  0.4360  0.4148  0.2004
12833SOL     OW39570   4.635   2.559   6.071 -0.4765 -0.0530 -0.1140
12833SOL    HW139571   4.577   2.522   6.005 -0.4203  0.1284 -0.2646
12833SOL    HW239572   4.593   2.640   6.098 -0.2586  0.1151 -0.2762
12834SOL     OW39573   2.317   0.676   2.070  0.0638  0.1027 -0.1594
12834SOL    HW139574   2.245   0.739   2.072 -0.9196 -0.9977  1.3715
12834SOL    HW239575   2.396   0.729   2.082 -0.3046  1.4572 -2.8409
12835SOL     OW39576   4.646   3.199   6.897 -0.0230  0.5267 -0.3120
12835SOL    HW139577   4.630   3.196   6.991  0.6917  0.6792 -0.1798
12835SOL    HW239578   4.681   3.287   6.881  0.2603  0.3535 -0.6567
12836SOL     OW39579   5.511   4.524   0.128 -0.1006  0.3499 -0.1329
12836SOL    HW139580   5.442   4.485   0.182  0.0256 -0.2610 -0.4016
12836SOL    HW239581   5.507   4.475   0.046  0.7026  0.2647 -0.1234
12837SOL     OW39582   4.129   5.792   0.137 -0.0003 -0.1555  0.0084
12837SOL    HW139583   4.188   5.718   0.123  0.1903 -0.0865  0.4127
12837SOL    HW239584   4.162   5.861   0.081  0.3558 -0.0917  0.2935
12838SOL     OW39585   0.503   0.540   0.657 -0.0627  0.2809 -0.2784
12838SOL    HW139586   0.436   0.589   0.706  0.3776  2.6746 -1.8939
12838SOL    HW239587   0.546   0.486   0.723 -2.7785 -0.4764  1.0340
12839SOL     OW39588   1.676   4.590   6.265  0.3481  0.3857  0.1003
12839SOL    HW139589   1.707   4.640   6.189  0.8813  0.7622  0.5593
12839SOL    HW239590   1.581   4.602   6.265  0.1754 -0.6860 -1.2600
12840SOL     OW39591   0.485   2.012   1.985 -0.0615 -0.0068  0.0509
12840SOL    HW139592   0.525   2.079   2.040  1.4209 -1.4428  0.8115
12840SOL    HW239593   0.398   1.999   2.022 -0.0031  0.7823  0.4985
12841SOL     OW39594   5.334   1.550   6.796 -0.3784  0.0506 -0.8221
12841SOL    HW139595   5.376   1.468   6.773 -0.3451  0.0894 -0.9021
12841SOL    HW239596   5.299   1.583   6.713  2.3424  1.6954 -1.4630
12842SOL     OW39597   3.557   6.256   8.124 -0.2260 -0.4648 -0.6083
12842SOL    HW139598   3.494   6.276   8.193 -0.7357 -3.4720 -0.0434
12842SOL    HW239599   3.642   6.252   8.170 -0.4856 -1.8915 -0.1802
12843SOL     OW39600   3.128   7.445   1.372 -0.0583  0.0166 -0.1222
12843SOL    HW139601   3.202   7.479   1.422 -0.4605 -1.7146  1.8039
12843SOL    HW239602   3.096   7.371   1.424 -3.2709  0.8139 -0.7528
12844SOL     OW39603   6.238   1.355   5.776 -0.0028 -0.5003 -0.5339
12844SOL    HW139604   6.298   1.289   5.810  1.2127  1.2100  0.8223
12844SOL    HW239605   6.152   1.331   5.810  0.7250 -0.4158  1.4680
12845SOL     OW39606   7.432   5.367   1.551  0.1420 -0.3058  0.5500
12845SOL    HW139607   7.419   5.304   1.622  0.8434  0.1122  1.0672
12845SOL    HW239608   7.479   5.318   1.483 -1.3120 -0.9555 -0.0286
12846SOL     OW39609   4.343   0.133   0.800 -0.0048 -0.1713  0.2863
12846SOL    HW139610   4.284   0.206   0.782 -1.0774 -1.0917 -0.0345
12846SOL    HW239611   4.421   0.174   0.838  0.6068  1.4248 -2.4691
12847SOL     OW39612   6.326   7.417   6.796 -0.3008 -0.3897 -0.0256
12847SOL    HW139613   6.411   7.456   6.814 -0.4163  0.1656 -0.6386
12847SOL    HW239614   6.287   7.474   6.730 -1.0725 -0.7432  0.1158
12848SOL     OW39615   6.562   1.035   5.307 -0.0109 -0.5580  0.3782
12848SOL    HW139616   6.494   0.968   5.314  1.5015 -2.0697  1.9176
12848SOL    HW239617   6.642   0.985   5.288  1.0044  0.9157  0.6078
12849SOL     OW39618   4.141   2.852   6.586  0.4131  0.4028 -0.6534
12849SOL    HW139619   4.106   2.768   6.559 -1.4828  1.4880 -1.7658
12849SOL    HW239620   4.222   2.830   6.632 -0.1722 -2.0270 -0.6288
12850SOL     OW39621   1.843   4.413   6.381  0.0824 -0.2033  0.4277
12850SOL    HW139622   1.790   4.483   6.343  1.3371  0.7596  0.3745
12850SOL    HW239623   1.867   4.358   6.307  0.7985  0.4976  0.1199
12851SOL     OW39624   3.175   6.665   3.911 -0.8408 -0.5642 -0.1259
12851SOL    HW139625   3.104   6.723   3.885  0.9060  2.7670  1.7646
12851SOL    HW239626   3.146   6.627   3.994 -0.3763  1.0891  0.8421
12852SOL     OW39627   7.433   3.934   0.435  0.1986  0.6365  0.4821
12852SOL    HW139628   7.388   3.956   0.516  0.6074  1.5958  0.4555
12852SOL    HW239629   7.524   3.955   0.450  0.3699  0.3151 -0.0517
12853SOL     OW39630   5.736   2.654   4.039 -0.3232 -0.0839  0.3828
12853SOL    HW139631   5.714   2.729   3.983 -3.1612 -3.0868 -3.0454
12853SOL    HW239632   5.684   2.667   4.118 -0.0453  1.9569  0.2868
12854SOL     OW39633   4.036   7.926   6.739  0.0926  0.2558  0.0421
12854SOL    HW139634   4.121   7.963   6.763 -0.0953  1.0211 -0.4275
12854SOL    HW239635   3.972   7.976   6.790 -0.1181  0.1106 -0.0757
12855SOL     OW39636   7.995   2.360   6.316  0.3101 -0.5592  0.4895
12855SOL    HW139637   7.955   2.316   6.241 -0.1751  1.1115 -0.3000
12855SOL    HW239638   8.077   2.397   6.281 -0.2222  0.7655  0.5698
12856SOL     OW39639   3.734   5.578   6.114  0.0434 -0.0116  0.3317
12856SOL    HW139640   3.652   5.544   6.080 -0.0585  0.1986  0.3633
12856SOL    HW239641   3.708   5.648   6.174  0.2864  0.9821 -0.6840
12857SOL     OW39642   6.811   2.142   6.532 -0.3114  0.5485  0.2971
12857SOL    HW139643   6.830   2.137   6.626 -0.4628  1.1019  0.3638
12857SOL    HW239644   6.715   2.133   6.527 -0.2724  0.2031  0.1697
12858SOL     OW39645   0.332   6.585   3.729  0.2553 -0.2543 -0.3402
12858SOL    HW139646   0.362   6.494   3.724  0.2066 -0.2365 -1.1304
12858SOL    HW239647   0.313   6.599   3.821 -1.3455 -1.5705 -0.4239
12859SOL     OW39648   1.237   6.935   7.213 -0.3508 -0.1742  0.4280
12859SOL    HW139649   1.322   6.908   7.250 -0.5439 -0.9837  0.2962
12859SOL    HW239650   1.223   7.023   7.248 -0.4035 -0.8123  2.1169
12860SOL     OW39651   1.986   5.926   7.496  0.2364  0.5105  0.7717
12860SOL    HW139652   2.033   5.993   7.546 -0.2511  3.7109 -2.6101
12860SOL    HW239653   2.048   5.901   7.427 -0.3569 -1.0509  0.7749
12861SOL     OW39654   1.985   3.822   5.241 -0.2364  0.5822 -0.7437
12861SOL    HW139655   2.071   3.798   5.209 -0.2767  0.8997 -1.1034
12861SOL    HW239656   1.926   3.806   5.167 -0.4016  0.8776 -0.6797
12862SOL     OW39657   5.457   2.455   4.983  0.5156 -0.3920 -0.0378
12862SOL    HW139658   5.502   2.417   4.907  0.5697  0.3966 -0.4114
12862SOL    HW239659   5.456   2.549   4.966  0.4330 -0.2137  0.8982
12863SOL     OW39660   0.311   5.882   6.423 -0.2075 -0.3259 -0.2232
12863SOL    HW139661   0.375   5.859   6.356  0.1423  0.1908 -0.0698
12863SOL    HW239662   0.287   5.973   6.403  2.9311  1.3484  2.7039
12864SOL     OW39663   1.055   3.172   4.721  0.1293 -0.1940 -0.4775
12864SOL    HW139664   1.144   3.206   4.732  0.7480 -1.7943 -0.3147
12864SOL    HW239665   1.065   3.094   4.666 -1.0746 -0.8360  0.1650
12865SOL     OW39666   0.339   3.235   1.293  0.4102  0.7368 -0.0179
12865SOL    HW139667   0.366   3.325   1.311 -1.6466  1.3985  0.0319
12865SOL    HW239668   0.248   3.232   1.321  0.5238 -1.4633  0.2497
12866SOL     OW39669   7.965   4.202   6.215 -0.0806 -0.4017 -0.4316
12866SOL    HW139670   8.040   4.252   6.182 -0.7183  0.8371 -0.0452
12866SOL    HW239671   7.888   4.247   6.180 -0.6887 -0.9274  0.1892
12867SOL     OW39672   3.052   7.802   0.900  0.4373  0.5564 -0.6425
12867SOL    HW139673   3.126   7.861   0.888  0.3872  0.5504 -1.0059
12867SOL    HW239674   3.034   7.769   0.812  1.4813 -1.2287 -0.2577
12868SOL     OW39675   4.735   6.318   3.104 -0.1208 -0.1222 -0.1925
12868SOL    HW139676   4.791   6.266   3.046  1.7899  0.1719  1.2644
12868SOL    HW239677   4.723   6.263   3.181 -2.3567 -0.3870 -0.6762
12869SOL     OW39678   7.496   3.155   7.959 -0.0292 -0.0668  0.3509
12869SOL    HW139679   7.466   3.082   7.904  0.2574 -1.1506  1.5680
12869SOL    HW239680   7.416   3.195   7.992 -0.2224  0.9945 -1.3107
12870SOL     OW39681   6.871   6.176   0.819 -0.1560 -0.1817 -0.2626
12870SOL    HW139682   6.854   6.235   0.746 -1.1481 -0.4723 -0.2744
12870SOL    HW239683   6.961   6.196   0.845  0.5230 -0.6339 -2.0872
12871SOL     OW39684   3.113   6.790   2.264  0.1221 -0.2210  0.1765
12871SOL    HW139685   3.182   6.854   2.280  0.2078 -0.0931 -0.6912
12871SOL    HW239686   3.159   6.712   2.234 -0.1033 -0.1806 -0.2763
12872SOL     OW39687   8.025   0.501   7.879  0.5346  0.3185 -0.3674
12872SOL    HW139688   8.096   0.563   7.895  0.0872  0.5376  0.8796
12872SOL    HW239689   8.057   0.419   7.916 -0.0982  0.5750  0.7916
12873SOL     OW39690   1.608   8.080   0.063 -0.4487  0.3549  0.7043
12873SOL    HW139691   1.605   8.175   0.054  1.1589  0.2856 -1.4721
12873SOL    HW239692   1.689   8.063   0.111 -0.6649  0.0735  0.9724
12874SOL     OW39693   6.390   5.575   7.772  0.1342 -0.3128 -0.4115
12874SOL    HW139694   6.416   5.489   7.739 -0.5628 -0.7500  0.1437
12874SOL    HW239695   6.368   5.560   7.864 -0.1812  0.4161 -0.3618
12875SOL     OW39696   3.186   4.885   5.924 -0.1049  1.0703  0.3965
12875SOL    HW139697   3.250   4.936   5.974 -0.5136  2.3203 -0.3254
12875SOL    HW239698   3.231   4.865   5.842 -0.3620  1.2554  0.2124
12876SOL     OW39699   6.582   8.027   2.756  0.2578 -0.0116  0.1014
12876SOL    HW139700   6.520   8.037   2.684 -0.4584 -2.0040  0.3477
12876SOL    HW239701   6.526   8.015   2.833  0.9869  3.5175  1.3383
12877SOL     OW39702   6.586   1.011   0.909  0.0728 -0.5310 -0.2086
12877SOL    HW139703   6.564   0.991   0.818 -1.5510  2.3325 -0.5452
12877SOL    HW239704   6.661   1.071   0.903  0.1286 -0.5354  0.3639
12878SOL     OW39705   4.411   6.473   4.137 -0.7523 -0.1804 -0.4099
12878SOL    HW139706   4.494   6.429   4.119 -0.6877 -0.3414  0.2526
12878SOL    HW239707   4.392   6.452   4.229 -1.3053  0.2122 -0.4292
12879SOL     OW39708   0.814   7.080   3.226  0.2708  0.3830  0.0817
12879SOL    HW139709   0.745   7.146   3.228  0.9346  1.1137 -0.7044
12879SOL    HW239710   0.828   7.062   3.133  2.1299  1.3134  0.1297
12880SOL     OW39711   6.632   3.028   5.568  0.5046  0.4431  0.6195
12880SOL    HW139712   6.560   3.091   5.581  0.8982  0.9117  0.5416
12880SOL    HW239713   6.669   3.051   5.483 -1.5343 -2.0926 -1.1096
12881SOL     OW39714   4.151   7.097   7.606 -0.6688  0.3237  0.1788
12881SOL    HW139715   4.059   7.079   7.623 -0.2963 -0.4939  1.5165
12881SOL    HW239716   4.170   7.176   7.656 -0.7474  0.7930 -0.5123
12882SOL     OW39717   1.128   2.998   4.009  0.0931 -0.0541  0.3525
12882SOL    HW139718   1.117   2.972   3.917 -0.1148  0.9395  0.0868
12882SOL    HW239719   1.135   3.094   4.006  1.5701 -0.1001  1.2210
12883SOL     OW39720   4.762   1.042   7.652 -0.1706  0.1039  0.3027
12883SOL    HW139721   4.779   1.027   7.745 -1.5535 -0.1713  0.5265
12883SOL    HW239722   4.848   1.066   7.616  0.5806 -0.7580  1.4373
12884SOL     OW39723   4.352   4.165   2.810  0.3140 -0.2640  0.1045
12884SOL    HW139724   4.420   4.137   2.871  1.4021  1.1027 -0.4348
12884SOL    HW239725   4.271   4.156   2.858  1.0758  0.0377  1.4837
12885SOL     OW39726   2.842   3.951   0.162 -0.3986  0.3599  0.6436
12885SOL    HW139727   2.888   3.957   0.246  1.5470 -1.7898 -0.1511
12885SOL    HW239728   2.910   3.924   0.100 -2.2591 -0.4646 -1.1476
12886SOL     OW39729   7.755   1.709   4.637  0.3496  0.1800  0.2454
12886SOL    HW139730   7.823   1.769   4.667 -0.8721  2.1243 -0.7041
12886SOL    HW239731   7.710   1.683   4.718  1.5365 -0.3345  0.7746
12887SOL     OW39732   3.089   2.737   3.520  0.0243  0.2029 -0.1754
12887SOL    HW139733   3.097   2.786   3.602  0.6458 -0.6571  0.2958
12887SOL    HW239734   3.180   2.716   3.496 -0.2424 -3.1031  1.1389
12888SOL     OW39735   6.886   6.030   7.929  0.1159 -0.1162  0.0396
12888SOL    HW139736   6.824   6.103   7.922 -1.1632 -1.1581 -0.0764
12888SOL    HW239737   6.956   6.062   7.986 -0.9979  0.8220  0.9280
12889SOL     OW39738   6.706   0.852   3.009  0.7499  0.3340  0.5305
12889SOL    HW139739   6.676   0.922   3.067 -0.5925 -0.2470  0.5760
12889SOL    HW239740   6.732   0.781   3.067  0.1172  0.0277  0.4424
12890SOL     OW39741   2.212   4.567   0.454 -0.1073  0.2987  0.2028
12890SOL    HW139742   2.228   4.477   0.483 -1.0177  0.0477 -0.0598
12890SOL    HW239743   2.117   4.575   0.449 -0.0151  0.8754 -1.0448
12891SOL     OW39744   2.749   6.108   7.556 -0.0334  0.0314 -0.2238
12891SOL    HW139745   2.659   6.074   7.560 -0.6379  1.6281  0.3494
12891SOL    HW239746   2.773   6.101   7.463 -0.2547 -1.5712 -0.1934
12892SOL     OW39747   4.535   0.332   5.304  0.1793  0.1341 -0.0293
12892SOL    HW139748   4.455   0.298   5.265 -0.8935  0.5368  1.7525
12892SOL    HW239749   4.602   0.267   5.281 -0.8368 -0.7132 -0.7053
12893SOL     OW39750   1.712   0.084   1.528  0.0686  0.2952 -0.7903
12893SOL    HW139751   1.739   0.172   1.502 -0.0226  0.9779  1.3039
12893SOL    HW239752   1.794   0.037   1.540  0.2256  0.9540  0.8659
12894SOL     OW39753   1.806   7.105   2.014  0.0138 -0.4960  0.2738
12894SOL    HW139754   1.798   7.200   2.019  0.2704 -0.5069  0.9492
12894SOL    HW239755   1.721   7.073   2.044 -1.2632 -0.4570 -2.9623
12895SOL     OW39756   7.661   0.134   6.121  0.0884 -0.0597 -0.0857
12895SOL    HW139757   7.637   0.193   6.050  1.8217  0.1011 -0.6038
12895SOL    HW239758   7.617   0.052   6.100 -1.0978  0.5781 -0.1903
12896SOL     OW39759   6.728   1.135   7.372  0.5545 -0.3606 -0.3304
12896SOL    HW139760   6.705   1.224   7.398  1.7205  0.1142 -0.8638
12896SOL    HW239761   6.651   1.083   7.396  0.2530  0.6060  0.9385
12897SOL     OW39762   1.751   2.317   1.834  0.1171 -0.2997  0.7832
12897SOL    HW139763   1.757   2.298   1.740  0.4474 -0.6738  0.8781
12897SOL    HW239764   1.823   2.378   1.851  1.4254 -1.8881  1.1962
12898SOL     OW39765   3.521   0.038   7.569 -0.1486 -0.1256  0.0007
12898SOL    HW139766   3.578   0.104   7.530 -0.9874  0.2717 -0.5683
12898SOL    HW239767   3.562  -0.045   7.548 -0.1232  0.1266 -0.9868
12899SOL     OW39768   0.014   1.137   2.625 -0.1198  0.3078 -0.1627
12899SOL    HW139769   0.077   1.207   2.643 -0.9488  1.4013 -1.3422
12899SOL    HW239770  -0.068   1.183   2.606 -1.2005 -1.0740  0.9906
12900SOL     OW39771   0.913   5.347   2.465  0.1544  0.3210  0.0630
12900SOL    HW139772   0.958   5.421   2.504  0.7116  0.7701 -1.3987
12900SOL    HW239773   0.912   5.365   2.371 -0.1471 -1.2765 -0.2725
12901SOL     OW39774   0.293   1.341   0.460 -0.0831 -0.3234 -0.2092
12901SOL    HW139775   0.282   1.254   0.497  0.1545  0.4744  1.8357
12901SOL    HW239776   0.204   1.372   0.445 -0.1809 -1.4932 -2.5366
12902SOL     OW39777   2.008   4.555   7.965 -0.5087  0.4653  0.5719
12902SOL    HW139778   2.102   4.548   7.944 -0.4329 -0.5596  1.1689
12902SOL    HW239779   1.964   4.554   7.880 -0.0054  0.3143  0.3087
12903SOL     OW39780   2.199   4.293   7.830  0.2862 -0.2402  0.1495
12903SOL    HW139781   2.199   4.383   7.862  0.6691  1.2156 -3.5088
12903SOL    HW239782   2.278   4.254   7.867  0.5676  1.1562  1.0977
12904SOL     OW39783   5.474   1.605   3.622 -0.5188 -0.2912 -0.4039
12904SOL    HW139784   5.431   1.569   3.545  1.4568 -1.1180 -1.1898
12904SOL    HW239785   5.411   1.592   3.693 -1.9761 -0.4210 -1.6643
12905SOL     OW39786   0.319   0.815   8.035 -0.1959  0.5596 -0.3487
12905SOL    HW139787   0.324   0.799   8.129  1.4155 -0.0354 -0.5057
12905SOL    HW239788   0.383   0.884   8.018 -2.5196  2.7875 -0.6435
12906SOL     OW39789   5.611   5.791   0.483 -0.3326  0.1328 -0.0640
12906SOL    HW139790   5.620   5.881   0.451  1.5949  0.7480  1.9307
12906SOL    HW239791   5.668   5.740   0.426  0.0356  0.5292 -0.0579
12907SOL     OW39792   4.195   1.972   5.370  0.0336  0.4816 -0.0457
12907SOL    HW139793   4.103   1.954   5.353  0.4098  0.3786 -2.2103
12907SOL    HW239794   4.233   1.886   5.390 -0.3137  0.5204  0.8123
12908SOL     OW39795   3.324   2.889   0.224 -0.0145 -0.5832  0.2527
12908SOL    HW139796   3.339   2.979   0.251  0.3336 -1.3734  3.0083
12908SOL    HW239797   3.389   2.838   0.272  0.1374 -2.2757 -1.6221
12909SOL     OW39798   3.763   0.588   4.824 -0.2412 -0.0615  0.3307
12909SOL    HW139799   3.842   0.553   4.864 -0.6263 -0.0800  1.0975
12909SOL    HW239800   3.716   0.511   4.793  0.1242 -0.0381 -0.2974
12910SOL     OW39801   3.421   6.942   2.918  0.1487 -0.1026 -0.0055
12910SOL    HW139802   3.371   7.014   2.957 -0.4390  0.3356 -1.4962
12910SOL    HW239803   3.366   6.910   2.847  0.9162 -1.2784 -0.1012
12911SOL     OW39804   0.409   1.569   6.880  0.6172  0.2857  0.1388
12911SOL    HW139805   0.476   1.613   6.932 -0.7221  2.9598 -0.2027
12911SOL    HW239806   0.349   1.532   6.945  1.7359 -1.0801  0.4361
12912SOL     OW39807   0.062   2.681   4.972  0.1685  0.5128  0.1272
12912SOL    HW139808   0.027   2.693   5.061 -0.1699  2.9360 -0.2676
12912SOL    HW239809  -0.015   2.659   4.919  0.3000 -0.4738  0.3204
12913SOL     OW39810   4.467   1.536   7.722  0.1476  0.6148 -0.8248
12913SOL    HW139811   4.483   1.469   7.656  2.3225  0.8245 -0.5749
12913SOL    HW239812   4.548   1.540   7.772 -0.7878  1.7821  0.6788
12914SOL     OW39813   1.467   1.727   5.339 -0.2320 -0.2141 -0.1554
12914SOL    HW139814   1.539   1.772   5.384 -0.6741  0.8989 -0.5305
12914SOL    HW239815   1.511   1.665   5.280  0.4132  0.0556  0.0323
12915SOL     OW39816   2.540   5.002   2.138 -0.4048  0.8030  0.0688
12915SOL    HW139817   2.583   4.982   2.222 -0.0021 -0.9615 -0.5126
12915SOL    HW239818   2.603   4.973   2.072 -2.1071 -1.1275 -0.8197
12916SOL     OW39819   2.771   4.795   1.285 -0.2450 -0.2651  0.7018
12916SOL    HW139820   2.720   4.866   1.245 -0.4891 -0.6589  0.3042
12916SOL    HW239821   2.714   4.762   1.354  0.2009  0.4540  1.4338
12917SOL     OW39822   7.039   0.800   0.189 -0.2504  0.0523 -0.1678
12917SOL    HW139823   7.073   0.728   0.136  0.1638  0.8663 -1.0175
12917SOL    HW239824   7.019   0.869   0.127 -3.3268 -0.2785  0.2738
12918SOL     OW39825   6.277   1.059   3.099  0.9906 -0.2655 -0.1329
12918SOL    HW139826   6.324   0.979   3.123 -0.5963 -1.4628 -0.8022
12918SOL    HW239827   6.340   1.110   3.049  1.3245 -2.3586 -2.0360
12919SOL     OW39828   2.183   1.423   5.016  0.1960  0.1478 -0.7501
12919SOL    HW139829   2.194   1.419   5.111 -2.2386 -0.4899 -0.4240
12919SOL    HW239830   2.223   1.506   4.990 -0.6331  1.1812  1.0983
12920SOL     OW39831   4.188   2.425   6.019 -0.2510  0.3590 -0.2086
12920SOL    HW139832   4.112   2.368   6.031 -1.2519  1.7914  0.4959
12920SOL    HW239833   4.185   2.450   5.927 -0.3308 -0.0012 -0.3056
12921SOL     OW39834   5.685   6.828   3.119 -0.0420 -0.6371 -0.9605
12921SOL    HW139835   5.701   6.919   3.144  0.6041 -1.1002  0.4273
12921SOL    HW239836   5.591   6.824   3.100 -0.3164  0.0444  0.1844
12922SOL     OW39837   3.794   0.262   8.116  0.3253 -0.2179  0.6055
12922SOL    HW139838   3.814   0.169   8.105 -0.1512 -0.3169  0.5477
12922SOL    HW239839   3.710   0.274   8.072 -0.4057 -0.0994  1.9792
12923SOL     OW39840   0.179   3.409   3.757 -0.2072 -0.2849 -0.0416
12923SOL    HW139841   0.150   3.337   3.814 -1.7377 -0.9875 -1.6045
12923SOL    HW239842   0.273   3.394   3.746 -0.4910 -2.0947 -0.3478
12924SOL     OW39843   2.602   2.453   7.577  0.1947  0.5173 -0.0734
12924SOL    HW139844   2.574   2.507   7.503 -1.0607 -1.1690 -0.9025
12924SOL    HW239845   2.522   2.434   7.625  0.7857  0.3586  0.8777
12925SOL     OW39846   3.386   6.023   0.185  0.1585  0.4883  0.0156
12925SOL    HW139847   3.440   6.091   0.224  1.1620 -0.5823  0.5477
12925SOL    HW239848   3.447   5.955   0.160 -0.8744 -0.4739  0.0249
12926SOL     OW39849   5.584   2.794   8.043 -0.0134 -0.1312 -0.0752
12926SOL    HW139850   5.534   2.715   8.020  0.7317 -0.7999  0.5537
12926SOL    HW239851   5.674   2.773   8.018  0.0302  0.9274 -0.8529
12927SOL     OW39852   1.617   3.492   5.259  0.4705  0.0892  0.3306
12927SOL    HW139853   1.539   3.439   5.241  0.4707  0.0751  0.3707
12927SOL    HW239854   1.582   3.580   5.277  0.4811  0.1366  0.1159
12928SOL     OW39855   3.635   0.688   1.204 -0.0323 -0.0889  0.1867
12928SOL    HW139856   3.672   0.716   1.288  0.2909 -1.7917  0.6533
12928SOL    HW239857   3.579   0.761   1.177 -0.7009  0.2303  2.2426
12929SOL     OW39858   4.037   4.966   3.213 -0.2002 -0.1840 -0.9600
12929SOL    HW139859   4.114   4.912   3.196 -1.1756 -2.1593  0.5518
12929SOL    HW239860   4.065   5.024   3.284 -0.0702 -0.8434 -0.4625
12930SOL     OW39861   3.273   4.660   4.347  0.5056 -0.8797  1.1249
12930SOL    HW139862   3.289   4.633   4.257  1.2598  1.7152  0.3893
12930SOL    HW239863   3.203   4.725   4.340  2.5180  1.5040  1.9643
12931SOL     OW39864   3.734   7.980   5.945 -0.3163 -0.1849  0.4176
12931SOL    HW139865   3.649   7.941   5.966 -0.1870 -0.6879  0.0239
12931SOL    HW239866   3.744   8.051   6.009 -0.5464 -0.8093  1.1640
12932SOL     OW39867   3.831   5.305   0.779  0.7324  0.2544  0.0640
12932SOL    HW139868   3.828   5.236   0.845  0.2459  0.6692  0.4837
12932SOL    HW239869   3.834   5.259   0.695 -1.6274 -0.3058  0.2307
12933SOL     OW39870   2.334   1.954   0.313  0.2914 -0.4834 -0.1783
12933SOL    HW139871   2.405   1.890   0.319  0.5894 -0.1365 -0.0108
12933SOL    HW239872   2.259   1.909   0.352  0.8497 -0.2312  1.2117
12934SOL     OW39873   5.568   8.155   3.841  0.3816  0.1711 -0.3251
12934SOL    HW139874   5.541   8.127   3.928 -0.1712 -0.1238 -0.5850
12934SOL    HW239875   5.584   8.073   3.794  0.1154  0.3119 -0.6697
12935SOL     OW39876   3.367   2.160   7.010  0.1272  0.5776  0.3639
12935SOL    HW139877   3.357   2.238   6.955 -0.2478  0.1555 -0.1783
12935SOL    HW239878   3.343   2.190   7.098 -0.2043  1.0312  0.1292
12936SOL     OW39879   6.405   5.133   4.221 -0.3929  0.4080  0.0902
12936SOL    HW139880   6.325   5.144   4.272  0.1620 -1.0980  1.3724
12936SOL    HW239881   6.389   5.055   4.168  0.7286 -0.9027  1.5514
12937SOL     OW39882   5.595   5.188   1.942  0.9518  0.0336  0.8285
12937SOL    HW139883   5.623   5.272   1.906  0.4602  0.7683  2.0869
12937SOL    HW239884   5.513   5.169   1.896  2.1500 -0.8952 -1.0561
12938SOL     OW39885   0.796   4.832   2.579 -0.3223 -0.4739 -0.3516
12938SOL    HW139886   0.872   4.889   2.591  0.9862 -1.8292 -1.5827
12938SOL    HW239887   0.722   4.891   2.566  0.7630  0.9058 -0.4223
12939SOL     OW39888   8.098   3.819   4.176  0.4157  0.6160  0.0790
12939SOL    HW139889   8.053   3.900   4.153 -0.0575 -0.0810 -1.6187
12939SOL    HW239890   8.029   3.752   4.174  1.0342 -0.0370  0.1293
12940SOL     OW39891   3.609   0.394   5.172  0.2644 -0.3364  0.1816
12940SOL    HW139892   3.702   0.399   5.194  0.1858 -2.0341  1.0702
12940SOL    HW239893   3.567   0.456   5.232  0.5522 -1.6453  1.8176
12941SOL     OW39894   2.818   3.586   2.399  0.5518  0.0072 -0.3380
12941SOL    HW139895   2.908   3.597   2.369  0.5123  0.4607 -0.3061
12941SOL    HW239896   2.790   3.675   2.421  0.5412 -0.2861  0.9300
12942SOL     OW39897   3.997   6.212   0.975  0.2929 -0.0575  0.1782
12942SOL    HW139898   4.025   6.274   1.042 -1.8356 -0.8475  1.9392
12942SOL    HW239899   3.974   6.266   0.899  0.5537  1.0722  0.8908
12943SOL     OW39900   2.482   5.224   1.699  0.2010 -0.3746  0.0733
12943SOL    HW139901   2.459   5.237   1.791 -2.4436 -0.6843 -0.4745
12943SOL    HW239902   2.436   5.294   1.652  0.0085 -1.3118 -1.1940
12944SOL     OW39903   2.520   6.016   4.739  0.3281  0.3770  0.1942
12944SOL    HW139904   2.508   6.014   4.644  1.3017  0.0294  0.0634
12944SOL    HW239905   2.478   5.936   4.770  1.5126 -0.3959 -0.1511
12945SOL     OW39906   0.237   6.203   0.295  0.0413 -0.2582  0.0143
12945SOL    HW139907   0.279   6.283   0.263  0.2861  0.1782  1.3872
12945SOL    HW239908   0.178   6.178   0.223  2.2598 -0.6454 -1.7924
12946SOL     OW39909   6.545   3.668   0.954  0.2957 -0.2271 -0.1475
12946SOL    HW139910   6.482   3.597   0.941 -0.6420  1.0385 -4.0693
12946SOL    HW239911   6.529   3.727   0.880  2.6956  2.8203  1.5276
12947SOL     OW39912   3.091   2.537   4.913  0.0117 -0.3893 -0.2323
12947SOL    HW139913   3.048   2.454   4.934 -1.7537  0.3612 -0.7160
12947SOL    HW239914   3.183   2.513   4.896 -0.2154 -2.0665  0.6973
12948SOL     OW39915   2.380   4.742   0.856  0.3212 -0.4688 -0.0470
12948SOL    HW139916   2.457   4.687   0.840 -0.7256 -2.0058 -0.0107
12948SOL    HW239917   2.354   4.772   0.769  0.5598 -0.4868 -0.1266
12949SOL     OW39918   6.745   1.396   1.709  0.3827  0.1494 -0.2382
12949SOL    HW139919   6.833   1.427   1.732  1.4083 -0.1314 -3.3504
12949SOL    HW239920   6.749   1.381   1.615 -1.9097 -3.4069  0.0476
12950SOL     OW39921   6.618   1.003   3.239  0.4802 -0.0990 -0.4083
12950SOL    HW139922   6.700   1.008   3.288 -0.3681  0.8558  1.0061
12950SOL    HW239923   6.581   1.091   3.246  0.2389  0.0404 -2.6959
12951SOL     OW39924   1.391   4.372   0.888 -0.3276  0.2228 -0.0919
12951SOL    HW139925   1.402   4.329   0.973  0.1649 -0.0469 -0.2896
12951SOL    HW239926   1.478   4.371   0.849 -0.5761  0.2366 -0.6543
12952SOL     OW39927   4.149   0.326   0.743  1.1056  0.3656 -0.2356
12952SOL    HW139928   4.059   0.296   0.733  1.1996 -0.2136  0.5854
12952SOL    HW239929   4.159   0.394   0.675 -0.1051  0.8171  0.0078
12953SOL     OW39930   2.172   2.487   0.977  0.2644  0.2695 -0.1562
12953SOL    HW139931   2.164   2.392   0.983 -2.0491  0.3506 -0.8522
12953SOL    HW239932   2.187   2.504   0.884 -0.0280  0.6100 -0.1442
12954SOL     OW39933   7.389   5.351   4.284  0.1533  0.1660  0.6996
12954SOL    HW139934   7.457   5.399   4.237  0.8129 -2.7653 -1.6229
12954SOL    HW239935   7.432   5.316   4.361  0.9291 -0.3898  0.0331
12955SOL     OW39936   0.465   0.344   1.311 -0.0483  0.0932 -0.7124
12955SOL    HW139937   0.545   0.343   1.259  0.2309 -0.0844 -0.2931
12955SOL    HW239938   0.469   0.263   1.362  0.8017  1.2578  1.2229
12956SOL     OW39939   5.809   7.357   0.178  0.0253 -0.3907 -0.3242
12956SOL    HW139940   5.881   7.339   0.117  0.2867 -0.5511  0.0341
12956SOL    HW239941   5.798   7.276   0.227 -0.8994 -0.6228 -0.8863
12957SOL     OW39942   6.095   5.489   6.981 -0.0811 -0.3668  0.1461
12957SOL    HW139943   6.035   5.457   6.913 -0.8559 -1.6097  1.3438
12957SOL    HW239944   6.057   5.456   7.063  0.5607  1.4793  1.2373
12958SOL     OW39945   1.628   3.313   7.455  0.1221 -0.2877 -0.1247
12958SOL    HW139946   1.554   3.360   7.417 -0.6811 -0.4985  1.1016
12958SOL    HW239947   1.623   3.226   7.415 -0.0275 -0.1664 -0.3778
12959SOL     OW39948   1.384   2.783   1.667  0.0084  0.0914 -0.3546
12959SOL    HW139949   1.387   2.870   1.706  1.3195  0.6021 -1.4974
12959SOL    HW239950   1.416   2.725   1.736  0.7306  0.7506 -0.1253
12960SOL     OW39951   6.052   7.625   2.787  0.1627 -0.0502  0.6428
12960SOL    HW139952   6.092   7.709   2.808 -0.7627  0.3050  1.0367
12960SOL    HW239953   6.068   7.613   2.693  3.2755 -1.0754  1.1751
12961SOL     OW39954   7.472   1.968   2.245 -0.3385 -0.3002 -0.3775
12961SOL    HW139955   7.516   1.918   2.314 -0.4052  0.5791  0.3138
12961SOL    HW239956   7.521   2.050   2.240 -0.9834  0.0715 -0.6448
12962SOL     OW39957   3.633   4.344   3.463 -0.0935 -0.5834 -0.3898
12962SOL    HW139958   3.585   4.261   3.469 -0.4157 -0.3201  1.9360
12962SOL    HW239959   3.577   4.406   3.510  1.2019  0.4151 -0.1213
12963SOL     OW39960   6.516   5.042   1.816 -0.2963 -0.1090  0.3007
12963SOL    HW139961   6.461   4.966   1.797 -0.1275  0.1526 -1.2923
12963SOL    HW239962   6.541   5.030   1.908  0.2558 -2.3224 -0.0805
12964SOL     OW39963   7.161   0.260   5.181 -0.6330  1.0002  0.3202
12964SOL    HW139964   7.159   0.241   5.275 -0.8307 -3.4243 -0.3655
12964SOL    HW239965   7.069   0.264   5.155 -0.8019 -2.5391 -0.2185
12965SOL     OW39966   6.019   2.281   4.932  0.0865 -0.1377 -0.1974
12965SOL    HW139967   6.105   2.321   4.931 -0.2651  0.6201 -0.8630
12965SOL    HW239968   5.974   2.323   5.006 -0.9921  2.3000 -2.1221
12966SOL     OW39969   5.445   6.663   0.066 -0.1258  0.1403  0.1949
12966SOL    HW139970   5.500   6.699   0.135  0.8984 -0.6954 -0.1627
12966SOL    HW239971   5.466   6.569   0.065  0.0047  0.1626 -1.3639
12967SOL     OW39972   1.896   4.530   7.049  0.3078 -0.5903 -0.3032
12967SOL    HW139973   1.959   4.591   7.089 -0.9003 -1.4401  3.2608
12967SOL    HW239974   1.857   4.580   6.977 -0.3211  2.8231  2.1160
12968SOL     OW39975   1.864   2.376   5.644 -0.8483 -0.2974  0.0482
12968SOL    HW139976   1.777   2.402   5.615 -0.8423  0.4974  0.7100
12968SOL    HW239977   1.901   2.454   5.684  0.4102 -0.4518 -0.7485
12969SOL     OW39978   5.301   4.590   2.040 -0.2344  0.3370 -0.0637
12969SOL    HW139979   5.295   4.509   1.988  2.0149  0.7589 -1.1082
12969SOL    HW239980   5.376   4.576   2.098 -0.2454  1.3976  0.2304
12970SOL     OW39981   1.606   4.277   7.865 -0.1578 -0.1770  0.2454
12970SOL    HW139982   1.695   4.252   7.891 -0.3393 -2.8467 -1.3539
12970SOL    HW239983   1.579   4.208   7.804 -3.2207  0.7305  0.4425
12971SOL     OW39984   3.716   3.484   8.154  0.3576  0.0948 -0.2568
12971SOL    HW139985   3.685   3.398   8.128 -0.9108  0.3832  0.2369
12971SOL    HW239986   3.637   3.537   8.163  1.0192  0.9851  0.6221
12972SOL     OW39987   1.323   7.228   7.688  0.1686  0.0153  0.5515
12972SOL    HW139988   1.290   7.174   7.760 -0.8095  0.0621  0.1619
12972SOL    HW239989   1.244   7.270   7.652  0.7734  0.8008  0.1214
12973SOL     OW39990   2.040   5.319   5.963 -0.9647  0.0596  0.1470
12973SOL    HW139991   2.129   5.286   5.973 -1.8016 -1.9171  1.6001
12973SOL    HW239992   2.045   5.410   5.992  0.6003  0.0324  0.0431
12974SOL     OW39993   2.973   1.646   8.094 -0.2566 -0.5156  0.1908
12974SOL    HW139994   2.959   1.727   8.142  0.0429  0.5005 -1.3480
12974SOL    HW239995   3.059   1.615   8.122  0.6346  0.9154 -0.8016
12975SOL     OW39996   4.392   0.789   5.867 -0.2773 -0.4259 -0.4469
12975SOL    HW139997   4.365   0.746   5.786  0.0740 -0.0103 -0.7893
12975SOL    HW239998   4.486   0.805   5.855  0.4880 -3.0282  1.2350
12976SOL     OW39999   6.829   0.267   2.078  0.4343  0.2001 -0.0138
12976SOL    HW140000   6.875   0.269   2.162  1.3887  0.6507 -0.5423
12976SOL    HW240001   6.739   0.242   2.101  0.5525  0.8280  1.2068
12977SOL     OW40002   2.068   7.494   0.994 -0.4060  0.3775  0.2052
12977SOL    HW140003   2.062   7.463   0.904  0.1697 -1.0388  0.6346
12977SOL    HW240004   2.162   7.507   1.009 -0.4852  0.4539  0.6539
12978SOL     OW40005   0.403   0.501   1.546 -0.5083 -0.1438 -0.4351
12978SOL    HW140006   0.342   0.439   1.585 -0.2651 -0.5724 -0.7220
12978SOL    HW240007   0.427   0.461   1.462  0.3354 -0.0999 -0.2268
12979SOL     OW40008   3.213   7.974   5.180  0.1590 -0.5106  0.0783
12979SOL    HW140009   3.291   7.921   5.199  0.6952  0.2731  0.1012
12979SOL    HW240010   3.162   7.921   5.119  1.2938 -0.5453 -0.8747
12980SOL     OW40011   3.124   7.347   1.817  0.3568  0.0692 -0.1908
12980SOL    HW140012   3.125   7.284   1.890  1.2960  1.3798  0.9672
12980SOL    HW240013   3.145   7.294   1.740 -1.5949 -1.5353  0.2951
12981SOL     OW40014   2.253   2.952   2.662 -0.2920  0.8253 -0.3071
12981SOL    HW140015   2.312   2.928   2.733  2.2115  0.9220 -2.2085
12981SOL    HW240016   2.228   3.043   2.681 -1.2595  0.2407  1.4046
12982SOL     OW40017   5.547   3.715   0.914 -0.1955 -0.0372 -0.0042
12982SOL    HW140018   5.459   3.691   0.944  0.0454 -2.0601 -0.7139
12982SOL    HW240019   5.547   3.692   0.821  1.5555 -1.6571  0.3298
12983SOL     OW40020   3.568   1.942   2.303 -0.5829 -0.3756  0.5311
12983SOL    HW140021   3.629   1.947   2.230 -0.1967 -0.9892  0.8038
12983SOL    HW240022   3.624   1.941   2.381 -0.9893  0.3375  0.8457
12984SOL     OW40023   5.779   5.324   6.050 -0.0638 -0.1079 -0.1241
12984SOL    HW140024   5.858   5.312   5.998 -1.2281 -0.2789 -1.9147
12984SOL    HW240025   5.749   5.235   6.069  0.3895 -0.0502  0.9515
12985SOL     OW40026   7.076   4.036   7.500 -0.8731 -0.5428  0.0737
12985SOL    HW140027   7.154   4.059   7.449 -1.4253 -1.6398 -1.3436
12985SOL    HW240028   7.108   3.975   7.566 -0.3411 -0.0749  0.2564
12986SOL     OW40029   4.380   1.572   0.513  0.1784  0.0923  0.1570
12986SOL    HW140030   4.351   1.538   0.428  1.0684  1.0731 -0.5732
12986SOL    HW240031   4.338   1.516   0.577 -1.7538  0.2660 -0.8936
12987SOL     OW40032   4.763   3.922   7.519  0.4393  0.1077 -0.4106
12987SOL    HW140033   4.844   3.898   7.475 -0.9752 -0.5071 -2.8857
12987SOL    HW240034   4.751   3.854   7.586  2.4157  0.7871  0.7019
12988SOL     OW40035   2.691   3.666   1.548 -0.5282 -0.0397 -0.3535
12988SOL    HW140036   2.734   3.668   1.634 -1.0238  0.1275 -0.1087
12988SOL    HW240037   2.692   3.757   1.519 -2.2907  0.2664  0.4449
12989SOL     OW40038   2.885   6.617   0.395 -0.0754 -0.2055 -0.7001
12989SOL    HW140039   2.873   6.566   0.315  0.6226 -0.3024 -0.7461
12989SOL    HW240040   2.959   6.675   0.377 -1.4701  1.5708 -1.0054
12990SOL     OW40041   1.401   1.242   6.988 -0.0075 -0.1791 -0.1701
12990SOL    HW140042   1.385   1.284   6.904  1.4645 -0.7621 -0.7720
12990SOL    HW240043   1.398   1.148   6.970  0.9320 -0.3084  0.2942
12991SOL     OW40044   1.540   2.869   4.350 -0.1221  0.4749 -0.1995
12991SOL    HW140045   1.574   2.804   4.288 -1.0578  0.6796 -0.9496
12991SOL    HW240046   1.525   2.821   4.431  1.6169  0.3099  0.0640
12992SOL     OW40047   8.111   2.769   0.474 -0.0803  0.6633 -0.8643
12992SOL    HW140048   8.099   2.675   0.485  2.1671  0.6050  1.9186
12992SOL    HW240049   8.124   2.780   0.380 -0.8731 -1.7054 -1.3222
12993SOL     OW40050   3.221   5.533   2.851 -0.4240  0.1050 -0.4074
12993SOL    HW140051   3.209   5.594   2.924 -2.1151 -0.1827 -0.4010
12993SOL    HW240052   3.155   5.560   2.787 -1.3165 -1.8067 -0.3340
12994SOL     OW40053   0.074   1.821   2.246  0.2556 -0.5933 -0.7436
12994SOL    HW140054   0.020   1.833   2.168  1.7404  0.9770 -1.5860
12994SOL    HW240055   0.048   1.735   2.280 -0.6869 -1.1566 -2.7529
12995SOL     OW40056   7.131   4.928   7.693  0.0336  0.3267  0.3838
12995SOL    HW140057   7.074   4.853   7.709  0.6197  0.0763  1.3485
12995SOL    HW240058   7.074   4.993   7.653 -0.7123 -0.2594  0.4716
12996SOL     OW40059   7.004   4.996   0.989 -0.4868  0.2742 -0.2822
12996SOL    HW140060   7.029   4.947   0.911 -1.7882  0.4732 -0.8504
12996SOL    HW240061   7.034   4.942   1.062  0.4593 -0.0685 -0.9063
12997SOL     OW40062   0.650   5.371   4.822  0.1281  0.1926 -0.0650
12997SOL    HW140063   0.561   5.337   4.829  0.0589  0.3354 -0.2510
12997SOL    HW240064   0.646   5.434   4.750  0.6027 -0.5370 -0.7576
12998SOL     OW40065   4.131   1.262   1.518  0.5366 -0.9182  1.0100
12998SOL    HW140066   4.076   1.183   1.513  1.6881 -1.7216  0.6151
12998SOL    HW240067   4.187   1.247   1.594  0.6438 -0.3915  1.0353
12999SOL     OW40068   6.559   3.302   0.534  0.2763  0.4706 -0.3192
12999SOL    HW140069   6.615   3.226   0.547  1.5080  1.5482  0.9913
12999SOL    HW240070   6.603   3.352   0.465  0.0491  0.5131 -0.4328
13000SOL     OW40071   6.722   4.789   6.289 -0.0185 -0.6731 -0.6410
13000SOL    HW140072   6.808   4.749   6.273  0.0082 -0.6777 -0.4896
13000SOL    HW240073   6.662   4.715   6.295 -0.1627 -0.6353 -1.5057
13001SOL     OW40074   0.110   3.168   3.849  0.2051 -0.3337 -0.3034
13001SOL    HW140075   0.050   3.126   3.788 -0.9973 -0.4412  0.9192
13001SOL    HW240076   0.164   3.096   3.882  2.0793 -0.0482 -2.4721
13002SOL     OW40077   2.898   0.604   7.781 -0.1844 -1.2697 -0.2878
13002SOL    HW140078   2.812   0.603   7.823 -0.3891 -0.2406 -0.6714
13002SOL    HW240079   2.880   0.609   7.687  0.2889 -0.5201 -0.3498
13003SOL     OW40080   0.352   5.084   0.438 -0.1697 -0.4648 -0.2027
13003SOL    HW140081   0.319   5.146   0.504 -0.2452 -1.3389  0.6057
13003SOL    HW240082   0.326   4.998   0.471  0.7958 -1.0056 -0.7896
13004SOL     OW40083   7.093   1.190   7.355  0.1754 -0.1210 -0.2307
13004SOL    HW140084   7.030   1.188   7.283  1.9398 -0.6656 -1.8323
13004SOL    HW240085   7.178   1.192   7.312  1.3063 -0.9558  1.8533
13005SOL     OW40086   1.881   3.952   6.963 -0.5123  0.1037 -0.0147
13005SOL    HW140087   1.826   4.028   6.980  0.2540  0.4688  0.8794
13005SOL    HW240088   1.912   3.965   6.873 -1.2839  0.2657 -0.2622
13006SOL     OW40089   4.216   2.007   2.355 -0.0379 -0.0713  0.5883
13006SOL    HW140090   4.200   1.979   2.445  1.6068 -0.0941  0.9037
13006SOL    HW240091   4.285   1.949   2.323  0.4634  0.8930 -0.1581
13007SOL     OW40092   5.272   6.881   4.158  0.1436  0.4538  0.3467
13007SOL    HW140093   5.278   6.836   4.074  1.3987  0.6742  0.2935
13007SOL    HW240094   5.358   6.868   4.199  0.3001  2.1489  0.6544
13008SOL     OW40095   4.927   3.937   0.602 -0.1375  0.4134  0.2454
13008SOL    HW140096   4.841   3.906   0.632  0.1526  0.2556  0.9403
13008SOL    HW240097   4.950   4.007   0.663  1.0527 -0.7927  1.2530
13009SOL     OW40098   2.390   7.581   6.512  0.3215 -0.3721  0.1347
13009SOL    HW140099   2.355   7.645   6.574 -0.6235 -1.5256  0.8333
13009SOL    HW240100   2.313   7.538   6.476  0.7788  0.8579 -2.5932
13010SOL     OW40101   7.513   6.863   4.924 -0.3510 -0.0145  0.1650
13010SOL    HW140102   7.464   6.927   4.873 -1.9153 -0.9204  0.4680
13010SOL    HW240103   7.472   6.865   5.011  0.7247 -0.1961  0.6970
13011SOL     OW40104   5.401   5.573   1.138 -0.3377 -0.2497 -0.3450
13011SOL    HW140105   5.314   5.610   1.153  0.5641  1.0386  2.3950
13011SOL    HW240106   5.392   5.480   1.158 -1.0537 -0.1029  0.0328
13012SOL     OW40107   4.040   4.838   0.149 -0.0397  0.4496  0.1933
13012SOL    HW140108   4.104   4.905   0.125 -0.3659  0.8585  0.4378
13012SOL    HW240109   4.052   4.769   0.085  0.6001  0.5543  0.1969
13013SOL     OW40110   8.110   1.784   0.886  0.0036  0.0092  0.0698
13013SOL    HW140111   8.015   1.777   0.887  0.0297 -0.5458 -0.5071
13013SOL    HW240112   8.129   1.839   0.810  0.1630 -0.2624 -0.0873
13014SOL     OW40113   7.295   6.952   6.372  0.3615 -0.0936  0.1986
13014SOL    HW140114   7.364   6.992   6.424 -1.7539 -0.1069  3.2597
13014SOL    HW240115   7.322   6.968   6.281  4.1787  0.0960  1.1777
13015SOL     OW40116   7.086   4.750   5.104  0.2557  0.1655  0.0233
13015SOL    HW140117   7.152   4.750   5.173 -0.8867 -0.0181  1.1703
13015SOL    HW240118   7.006   4.722   5.148 -0.6455  0.6180 -1.2636
13016SOL     OW40119   2.765   3.867   7.106 -0.0635  0.3556 -0.3994
13016SOL    HW140120   2.715   3.948   7.114 -0.3759  0.2375 -1.0860
13016SOL    HW240121   2.700   3.797   7.109 -0.0170  0.2258 -1.8430
13017SOL     OW40122   0.504   5.557   2.406 -0.6845 -0.1135 -0.4134
13017SOL    HW140123   0.446   5.482   2.418  0.8262 -1.3650 -0.7622
13017SOL    HW240124   0.552   5.564   2.488  0.6934 -0.8826 -1.1261
13018SOL     OW40125   7.570   3.285   0.371 -0.3469  0.0465  0.6060
13018SOL    HW140126   7.634   3.289   0.442 -0.9648 -1.4228  1.2941
13018SOL    HW240127   7.582   3.367   0.323  1.5071  0.1515  1.1697
13019SOL     OW40128   1.367   5.415   2.870 -0.3949 -0.3906  0.0619
13019SOL    HW140129   1.410   5.446   2.790  2.3381  1.5455  2.1057
13019SOL    HW240130   1.423   5.344   2.901  0.6085  1.1490  1.9698
13020SOL     OW40131   5.088   0.014   1.623  0.0750  0.0461  0.0770
13020SOL    HW140132   5.137   0.004   1.704 -0.4180 -2.1421  0.1527
13020SOL    HW240133   5.134  -0.041   1.559 -1.8122 -1.5448 -0.0167
13021SOL     OW40134   1.235   1.400   6.501 -0.2010 -0.2938  0.1987
13021SOL    HW140135   1.258   1.352   6.421 -1.8810 -0.0822 -0.4598
13021SOL    HW240136   1.308   1.462   6.514 -0.0410 -0.1225 -1.3450
13022SOL     OW40137   4.532   8.018   5.179 -0.4437  0.2224 -0.1306
13022SOL    HW140138   4.573   7.941   5.217 -1.8156 -1.0056 -1.0315
13022SOL    HW240139   4.442   7.991   5.161 -0.8083  1.8613 -0.9816
13023SOL     OW40140   5.463   2.127   6.523 -0.5306  0.4137  0.1566
13023SOL    HW140141   5.384   2.112   6.575 -0.5246  3.4613  1.2949
13023SOL    HW240142   5.519   2.052   6.541 -2.8488 -1.5259 -0.1932
13024SOL     OW40143   7.012   6.523   0.841  0.6575 -0.1055 -0.1580
13024SOL    HW140144   6.965   6.564   0.914  2.0785 -1.2211  1.4543
13024SOL    HW240145   7.031   6.435   0.871 -0.1414 -1.1924 -2.5795
13025SOL     OW40146   7.060   6.190   7.633 -0.8753 -0.1266 -0.3031
13025SOL    HW140147   7.049   6.123   7.700 -2.0300 -2.0868 -2.3062
13025SOL    HW240148   6.976   6.195   7.589  0.2580 -0.1220 -2.6258
13026SOL     OW40149   0.190   3.959   3.744 -0.0376 -0.0127  0.1251
13026SOL    HW140150   0.108   3.952   3.695 -1.7130 -1.2869  2.8478
13026SOL    HW240151   0.229   3.872   3.738  0.1591  0.0579  0.3784
13027SOL     OW40152   3.533   0.271   0.675  0.7245 -0.7567 -0.1987
13027SOL    HW140153   3.560   0.249   0.764  1.9028 -1.0673 -0.6252
13027SOL    HW240154   3.529   0.186   0.630  0.0304 -0.6127 -0.4284
13028SOL     OW40155   4.637   8.034   7.808  0.6396 -0.3170  0.1935
13028SOL    HW140156   4.611   8.090   7.735  1.5624  1.7067  1.3232
13028SOL    HW240157   4.721   7.997   7.781  1.0358  0.5170  0.2569
13029SOL     OW40158   5.169   1.953   1.312 -0.0987 -0.4456  0.5053
13029SOL    HW140159   5.114   1.970   1.235 -0.3038 -1.1571  0.4938
13029SOL    HW240160   5.213   1.871   1.293 -0.5747 -0.9207  1.3859
13030SOL     OW40161   5.762   6.430   3.264 -0.2092  0.5514  0.3101
13030SOL    HW140162   5.806   6.488   3.202 -1.5738 -0.1983 -1.4433
13030SOL    HW240163   5.831   6.373   3.297  0.1416 -1.3879 -3.2401
13031SOL     OW40164   1.345   6.407   6.366 -0.1925  0.3173  0.4054
13031SOL    HW140165   1.432   6.398   6.326 -0.6252 -0.0554 -0.4482
13031SOL    HW240166   1.284   6.405   6.293 -0.9400  0.4470  1.0163
13032SOL     OW40167   3.902   5.873   1.885  0.6972  0.1057  0.3286
13032SOL    HW140168   3.985   5.855   1.928  1.3240  2.4045  0.2129
13032SOL    HW240169   3.924   5.934   1.814 -0.9221 -0.2100 -0.4989
13033SOL     OW40170   4.651   1.399   6.156 -0.0820  0.3031 -0.0797
13033SOL    HW140171   4.651   1.324   6.097  0.2139 -0.2769  0.6498
13033SOL    HW240172   4.655   1.475   6.098 -0.0622 -0.2483 -0.8119
13034SOL     OW40173   5.931   0.167   6.472 -0.1817 -0.0811 -0.2895
13034SOL    HW140174   5.842   0.146   6.500 -0.1403 -0.3454 -0.3552
13034SOL    HW240175   5.962   0.088   6.429  0.6846 -0.6119  1.2054
13035SOL     OW40176   5.004   0.787   6.995  0.0744 -0.2691 -0.1314
13035SOL    HW140177   5.096   0.805   6.977  0.2657 -1.3344 -0.2725
13035SOL    HW240178   4.960   0.806   6.912 -0.0117  1.2435  0.2193
13036SOL     OW40179   3.050   2.490   4.616  0.7254 -0.6036 -0.0594
13036SOL    HW140180   3.087   2.573   4.647 -0.0598 -0.0187 -0.6452
13036SOL    HW240181   3.119   2.426   4.633  1.8494  0.3774 -0.7385
13037SOL     OW40182   0.142   0.430   0.016  0.0001 -0.5655 -0.1848
13037SOL    HW140183   0.137   0.441  -0.079 -0.5800 -0.6682 -0.1702
13037SOL    HW240184   0.236   0.419   0.034 -0.0562 -3.3541 -1.0574
13038SOL     OW40185   3.303   4.171   0.529 -0.2863  0.4949  0.8389
13038SOL    HW140186   3.393   4.194   0.551 -0.0479 -0.3854  0.8339
13038SOL    HW240187   3.250   4.238   0.572  0.3214  0.4425  1.7036
13039SOL     OW40188   4.812   2.119   7.057 -0.3477  0.1895  0.6511
13039SOL    HW140189   4.871   2.082   6.991 -3.5535 -0.0658 -2.3412
13039SOL    HW240190   4.819   2.060   7.132  0.3486 -2.0513 -1.0809
13040SOL     OW40191   2.198   5.310   7.788 -0.2445 -0.3413  0.5219
13040SOL    HW140192   2.293   5.309   7.803 -0.2524 -0.1594  0.5812
13040SOL    HW240193   2.160   5.292   7.874 -0.2632 -0.4385  0.4934
13041SOL     OW40194   0.311   6.732   0.365 -0.0440 -0.1912  0.2917
13041SOL    HW140195   0.217   6.727   0.384  0.0486  0.9290  1.1977
13041SOL    HW240196   0.322   6.816   0.320  0.7976  0.8562  2.3039
13042SOL     OW40197   6.840   5.297   0.322  0.4046  0.0836 -0.2539
13042SOL    HW140198   6.748   5.275   0.334  0.7024 -0.6291  0.8993
13042SOL    HW240199   6.867   5.332   0.407  0.8854  1.5254 -0.9625
13043SOL     OW40200   5.925   4.010   5.379 -0.3462 -1.0100 -0.1923
13043SOL    HW140201   5.854   3.947   5.397 -0.7688 -0.2380  0.9416
13043SOL    HW240202   5.883   4.080   5.329 -0.3904 -0.5468  0.4873
13044SOL     OW40203   3.030   3.011   4.112 -0.3635 -0.2360  0.2256
13044SOL    HW140204   2.997   3.078   4.172  0.5719 -1.1907  1.8708
13044SOL    HW240205   2.975   3.020   4.034 -0.7004  1.9989  0.6283
13045SOL     OW40206   7.274   2.988   4.715  0.3209 -0.1568  0.1632
13045SOL    HW140207   7.269   3.082   4.694  0.3422 -0.2158 -0.1157
13045SOL    HW240208   7.333   2.983   4.790  0.0794  0.0834  0.3721
13046SOL     OW40209   6.386   4.074   0.853 -0.1280 -0.0997 -0.6009
13046SOL    HW140210   6.385   4.165   0.822 -0.8641  0.9271  2.1514
13046SOL    HW240211   6.295   4.044   0.841 -1.1612  1.2335  2.7307
13047SOL     OW40212   1.857   0.467   2.933  0.2752 -0.1949  0.1495
13047SOL    HW140213   1.895   0.455   3.020  1.4371 -0.0420 -0.3183
13047SOL    HW240214   1.929   0.499   2.879 -0.5456  0.1881 -0.7620
13048SOL     OW40215   6.369   0.476   6.040 -0.8867  0.1263  0.5064
13048SOL    HW140216   6.379   0.396   5.989 -0.7148  0.0905  0.5938
13048SOL    HW240217   6.285   0.466   6.085 -0.3639 -0.5001  1.3835
13049SOL     OW40218   2.896   7.007   5.373 -0.2382 -0.2798  0.2404
13049SOL    HW140219   2.944   6.976   5.297 -0.8699 -0.2337 -0.1824
13049SOL    HW240220   2.873   7.098   5.351 -1.3093 -0.5884  0.0449
13050SOL     OW40221   0.713   6.493   2.316  0.2866  0.1289  0.5084
13050SOL    HW140222   0.651   6.502   2.244 -0.3731  1.1186  1.1728
13050SOL    HW240223   0.797   6.522   2.279 -0.1330  1.0639  0.2369
13051SOL     OW40224   2.569   3.763   4.300 -0.2232  0.4343  0.7528
13051SOL    HW140225   2.507   3.809   4.243  0.2535 -0.1853 -0.2848
13051SOL    HW240226   2.574   3.818   4.379 -1.4764  0.9040  0.5259
13052SOL     OW40227   8.089   2.508   4.374 -0.0756  0.6768 -0.3334
13052SOL    HW140228   8.164   2.462   4.413 -0.8075  0.7193  1.1806
13052SOL    HW240229   8.098   2.492   4.280  1.4246  0.0747 -0.1188
13053SOL     OW40230   3.994   6.095   2.481 -0.3235 -0.2884 -0.1908
13053SOL    HW140231   4.027   6.184   2.462  1.5253  0.0574  3.7012
13053SOL    HW240232   3.910   6.109   2.524  0.3841 -0.2636  1.2562
13054SOL     OW40233   1.378   3.724   4.857 -0.2470 -0.1290  0.0364
13054SOL    HW140234   1.363   3.753   4.947  1.2859  0.3211  0.1689
13054SOL    HW240235   1.473   3.711   4.851 -0.3368 -0.2679 -1.4794
13055SOL     OW40236   7.685   2.736   4.214  0.5501 -0.5654 -0.3099
13055SOL    HW140237   7.691   2.657   4.267 -1.5189 -0.8380 -0.4247
13055SOL    HW240238   7.681   2.808   4.278  0.9203 -0.6594 -0.1775
13056SOL     OW40239   2.855   2.571   3.203  0.2804 -0.2869  0.5211
13056SOL    HW140240   2.769   2.605   3.181 -1.2145 -3.1523  1.4689
13056SOL    HW240241   2.890   2.537   3.120 -0.4382 -0.9656  0.4823
13057SOL     OW40242   0.926   5.433   2.205  0.1505 -0.0307 -0.1631
13057SOL    HW140243   1.006   5.450   2.155  1.2933 -2.2530  0.7503
13057SOL    HW240244   0.855   5.448   2.143  1.2504  1.7880 -1.0582
13058SOL     OW40245   4.966   4.616   3.776  0.5948  0.1443  0.3320
13058SOL    HW140246   4.879   4.612   3.737  1.1643 -0.9841 -0.8689
13058SOL    HW240247   5.019   4.555   3.725  2.5550  2.0804 -0.1369
13059SOL     OW40248   1.069   4.636   3.185  0.4425 -0.0487 -0.4970
13059SOL    HW140249   1.098   4.672   3.269 -1.1215 -0.8047  0.4321
13059SOL    HW240250   1.007   4.567   3.210 -1.5744  0.9970 -2.2831
13060SOL     OW40251   6.964   4.584   0.939 -0.1724 -0.7074 -1.0031
13060SOL    HW140252   7.002   4.499   0.963  0.1520 -0.4421 -0.5434
13060SOL    HW240253   7.039   4.635   0.907 -0.1634 -0.2434 -0.2745
13061SOL     OW40254   6.909   2.828   6.486 -0.0348  0.3641 -0.0073
13061SOL    HW140255   6.825   2.785   6.501  0.1589  0.3085  0.9831
13061SOL    HW240256   6.938   2.796   6.401  0.5726 -2.2876  1.1000
13062SOL     OW40257   5.901   3.733   0.340  0.1796 -0.3613 -0.8835
13062SOL    HW140258   5.936   3.680   0.268 -1.3843 -0.5017 -1.5753
13062SOL    HW240259   5.948   3.817   0.333  0.7079 -0.6969 -1.4813
13063SOL     OW40260   6.961   7.578   7.103  0.4735  0.4729 -0.5739
13063SOL    HW140261   7.048   7.611   7.123  0.5031  0.2417 -0.3170
13063SOL    HW240262   6.903   7.653   7.119  0.5866  0.5257 -0.4121
13064SOL     OW40263   0.495   4.711   3.695 -0.5545  0.0264 -0.0571
13064SOL    HW140264   0.405   4.692   3.720 -0.5074 -0.0456  0.0613
13064SOL    HW240265   0.546   4.640   3.735 -0.5255 -0.3452 -0.7453
13065SOL     OW40266   6.911   4.302   1.783  0.0987  0.4548  0.4999
13065SOL    HW140267   6.840   4.248   1.816  0.9697 -1.3943 -0.5314
13065SOL    HW240268   6.869   4.363   1.723 -0.4705 -1.8593 -1.6020
13066SOL     OW40269   1.473   7.113   5.302  0.2580  0.1762  0.0669
13066SOL    HW140270   1.388   7.070   5.311 -0.9049  2.3088 -0.1134
13066SOL    HW240271   1.505   7.085   5.216 -0.7832  0.1844 -0.3411
13067SOL     OW40272   0.509   1.226   0.860 -0.3070  0.6360  0.3018
13067SOL    HW140273   0.488   1.318   0.846 -1.4456  0.1044 -2.0877
13067SOL    HW240274   0.603   1.226   0.877  0.2455  2.1272 -2.1213
13068SOL     OW40275   7.726   5.947   4.569  0.6466 -0.5301 -0.2839
13068SOL    HW140276   7.767   5.927   4.485  1.0247  0.4190 -0.3301
13068SOL    HW240277   7.797   5.981   4.624  0.2409 -0.3753  0.1558
13069SOL     OW40278   5.397   2.762   6.087  0.2433  0.1993  0.2910
13069SOL    HW140279   5.422   2.854   6.096  2.9040 -0.4688  0.6689
13069SOL    HW240280   5.411   2.725   6.174 -2.6970 -0.2530  0.6855
13070SOL     OW40281   4.777   1.951   2.550 -0.3885  0.5043 -0.1702
13070SOL    HW140282   4.801   1.922   2.462  0.0372  0.8414 -0.1704
13070SOL    HW240283   4.854   1.932   2.603 -1.1442 -0.9736  0.4332
13071SOL     OW40284   3.595   4.074   0.913  0.2267  0.0332  0.0495
13071SOL    HW140285   3.556   4.011   0.974  0.9084 -0.5769 -0.1231
13071SOL    HW240286   3.640   4.138   0.968  0.6251 -0.3723  0.2033
13072SOL     OW40287   4.793   7.824   2.556 -0.3661  0.3545  0.2881
13072SOL    HW140288   4.836   7.771   2.489 -0.5923  0.5620 -0.0233
13072SOL    HW240289   4.765   7.903   2.510  0.3506  0.9463  0.8402
13073SOL     OW40290   8.057   7.367   7.887  0.0556 -0.2042  0.0852
13073SOL    HW140291   8.132   7.378   7.946 -0.6025  1.3587  0.6858
13073SOL    HW240292   7.981   7.384   7.943 -0.6460  0.0520 -0.9369
13074SOL     OW40293   1.191   4.641   4.428  0.4694 -0.0779  0.1068
13074SOL    HW140294   1.168   4.549   4.444 -0.5458 -0.1117 -1.3603
13074SOL    HW240295   1.279   4.638   4.392  1.3264 -0.2706  2.0810
13075SOL     OW40296   5.319   0.928   0.011 -0.4786 -0.5016  0.2989
13075SOL    HW140297   5.261   0.864  -0.031 -2.2338  1.7494 -0.9013
13075SOL    HW240298   5.320   0.901   0.103  3.4233 -5.5399 -0.7729
13076SOL     OW40299   4.855   1.847   3.264 -0.6814  0.2166  0.0991
13076SOL    HW140300   4.838   1.815   3.353  0.3931  0.7633  0.5178
13076SOL    HW240301   4.774   1.892   3.239 -0.9797  0.1014  0.8190
13077SOL     OW40302   5.120   0.402   0.386 -0.2809  0.4524 -0.1871
13077SOL    HW140303   5.054   0.451   0.337 -0.3440  0.2112 -0.3425
13077SOL    HW240304   5.069   0.349   0.447 -0.2031  0.7651  0.1539
13078SOL     OW40305   1.902   1.353   4.946 -0.1507 -0.4065 -0.4997
13078SOL    HW140306   1.875   1.346   5.038 -1.9583  1.5880 -0.7809
13078SOL    HW240307   1.997   1.360   4.949 -0.2002  0.1154  1.2776
13079SOL     OW40308   6.389   1.634   6.066 -0.3529  0.1491  0.3599
13079SOL    HW140309   6.362   1.620   5.976  0.0487  0.2441  0.2240
13079SOL    HW240310   6.484   1.647   6.062 -0.3178  0.0733  0.8018
13080SOL     OW40311   5.112   6.320   2.257  0.4704 -0.0408  0.3057
13080SOL    HW140312   5.152   6.285   2.177 -1.1132  2.1428 -1.5712
13080SOL    HW240313   5.032   6.270   2.269  0.3623  0.0887  0.1227
13081SOL     OW40314   7.358   4.634   3.621  0.3433 -0.4939  0.2169
13081SOL    HW140315   7.384   4.597   3.537  0.1967 -1.1743  0.4593
13081SOL    HW240316   7.352   4.728   3.606  2.2151 -0.3859 -0.0184
13082SOL     OW40317   5.437   1.182   3.809 -0.3885 -0.0308 -0.2195
13082SOL    HW140318   5.456   1.195   3.716  0.8738  1.2366  0.1756
13082SOL    HW240319   5.345   1.156   3.812 -0.2561 -0.7518 -1.8644
13083SOL     OW40320   4.991   1.379   0.483  1.0797  0.2050  0.0434
13083SOL    HW140321   4.982   1.473   0.501 -1.2766  0.1385 -0.5015
13083SOL    HW240322   5.026   1.375   0.394  0.1726  0.5972 -0.3432
13084SOL     OW40323   2.175   0.140   2.888  0.2043 -0.4052 -0.3384
13084SOL    HW140324   2.199   0.051   2.862 -0.5309 -0.7863  0.2545
13084SOL    HW240325   2.256   0.190   2.881  1.0202 -1.4940  0.9284
13085SOL     OW40326   0.170   7.812   1.923 -0.4049 -0.3541  0.0057
13085SOL    HW140327   0.075   7.801   1.922 -0.5917  1.0439 -0.6352
13085SOL    HW240328   0.184   7.898   1.962  0.5355 -0.1217 -0.8054
13086SOL     OW40329   6.912   0.699   4.000 -0.3390 -0.4861 -0.6262
13086SOL    HW140330   6.821   0.729   3.995 -1.2324 -3.0602 -0.8777
13086SOL    HW240331   6.925   0.677   4.092  0.6830  1.5546 -0.2125
13087SOL     OW40332   1.130   1.822   4.268 -0.6003  0.3285 -0.3961
13087SOL    HW140333   1.223   1.843   4.264 -0.9851  2.3363  0.2074
13087SOL    HW240334   1.103   1.848   4.356 -1.1251 -3.2145  0.6524
13088SOL     OW40335   4.198   4.787   0.385  0.1383 -0.0826 -0.3864
13088SOL    HW140336   4.142   4.739   0.446 -1.4581 -0.2884 -1.9335
13088SOL    HW240337   4.143   4.801   0.308  2.2178 -0.2003 -1.9724
13089SOL     OW40338   1.406   2.122   0.931  0.3842  0.2153  0.3002
13089SOL    HW140339   1.474   2.142   0.867 -0.4565  0.4879 -0.5372
13089SOL    HW240340   1.328   2.168   0.898 -0.7797 -1.8271  0.0499
13090SOL     OW40341   1.777   6.722   5.371 -0.3358 -0.5209  0.3071
13090SOL    HW140342   1.839   6.760   5.309 -1.1252  0.4945  0.1299
13090SOL    HW240343   1.794   6.628   5.366 -0.7121 -0.5247 -1.8207
13091SOL     OW40344   5.160   3.935   6.905 -0.3852 -0.0517  0.5622
13091SOL    HW140345   5.253   3.917   6.890  0.1369  1.4542  1.7797
13091SOL    HW240346   5.138   4.002   6.841 -0.9354 -1.1081 -0.3995
13092SOL     OW40347   4.115   0.733   4.541  0.1376  0.4471 -0.3744
13092SOL    HW140348   4.070   0.661   4.497  1.7835 -1.6642  1.1748
13092SOL    HW240349   4.206   0.705   4.547  0.3788  1.4610  2.5134
13093SOL     OW40350   3.700   5.507   1.825 -0.2439  0.2758  0.1072
13093SOL    HW140351   3.634   5.488   1.758  1.0629  0.6185 -1.3197
13093SOL    HW240352   3.692   5.600   1.842  0.0182  0.3562 -0.2170
13094SOL     OW40353   2.236   2.383   7.153 -0.3907 -0.8774  0.7813
13094SOL    HW140354   2.291   2.433   7.214  0.9631  2.0289 -2.4308
13094SOL    HW240355   2.146   2.406   7.177  0.1153  0.5567  1.4146
13095SOL     OW40356   2.647   4.066   6.702  0.3646  0.0884 -0.4840
13095SOL    HW140357   2.720   4.004   6.697  1.8570  1.7911 -1.5247
13095SOL    HW240358   2.635   4.096   6.611  0.3960  1.9975  0.0923
13096SOL     OW40359   0.889   2.698   3.562 -0.9603 -0.4806  0.3137
13096SOL    HW140360   0.843   2.709   3.645 -0.3084 -0.9362  0.7445
13096SOL    HW240361   0.873   2.607   3.538 -1.7977 -0.1410 -0.4698
13097SOL     OW40362   1.799   8.085   2.450 -0.2260 -0.2412 -0.4358
13097SOL    HW140363   1.888   8.097   2.416 -1.0923 -0.8937 -3.1894
13097SOL    HW240364   1.811   8.051   2.538  2.2226  3.3553  0.8734
13098SOL     OW40365   4.901   2.195   3.784 -0.3243 -0.2410 -0.6958
13098SOL    HW140366   4.956   2.117   3.793 -0.3936 -0.1125  1.2141
13098SOL    HW240367   4.820   2.173   3.829  0.0191  1.2328  0.7372
13099SOL     OW40368   4.383   5.284   8.022  0.2535  0.1846 -0.4808
13099SOL    HW140369   4.340   5.347   8.080 -1.9163 -0.4871 -1.2820
13099SOL    HW240370   4.381   5.325   7.936 -0.4674 -0.6160 -0.8604
13100SOL     OW40371   2.521   1.989   7.006 -0.1957  0.1416 -0.7875
13100SOL    HW140372   2.500   2.082   7.013  0.2863  0.1394  1.3326
13100SOL    HW240373   2.616   1.985   7.013 -0.3156 -0.5920  1.6718
13101SOL     OW40374   7.664   5.604   6.496  0.7123 -0.5210  0.3050
13101SOL    HW140375   7.694   5.667   6.562 -0.4193  1.2837 -0.8128
13101SOL    HW240376   7.734   5.602   6.431  0.0948  0.8293 -0.4365
13102SOL     OW40377   1.736   6.170   1.905 -0.1641  0.2653 -1.2231
13102SOL    HW140378   1.738   6.076   1.926  0.8726  0.2298 -1.4083
13102SOL    HW240379   1.760   6.174   1.812  1.9823  0.8259 -0.6931
13103SOL     OW40380   5.551   4.028   5.452  0.1993 -0.4116 -0.0664
13103SOL    HW140381   5.577   4.066   5.537  0.8732  1.7273 -1.1564
13103SOL    HW240382   5.487   4.090   5.417  0.1786 -1.0980 -1.2738
13104SOL     OW40383   1.715   7.112   0.532  0.3578  0.5037 -0.2480
13104SOL    HW140384   1.792   7.116   0.589 -0.0448  3.7294  0.2875
13104SOL    HW240385   1.746   7.147   0.448 -0.8125  4.0787  0.6063
13105SOL     OW40386   4.634   1.040   0.459 -0.4959 -0.1552  0.2844
13105SOL    HW140387   4.666   0.958   0.422  1.8917  0.1115  1.5598
13105SOL    HW240388   4.592   1.014   0.541 -2.2601 -0.3497 -0.6539
13106SOL     OW40389   7.968   6.938   4.521 -1.0280  0.4290  0.1528
13106SOL    HW140390   8.004   6.985   4.596 -1.3566 -0.4189  0.8537
13106SOL    HW240391   7.996   6.847   4.533 -1.2233  0.2469 -0.6669
13107SOL     OW40392   8.142   5.879   0.168  0.1763 -0.3257 -0.2309
13107SOL    HW140393   8.205   5.808   0.159 -1.4344 -1.9464  0.6050
13107SOL    HW240394   8.120   5.880   0.261 -2.7266 -1.4282 -0.8013
13108SOL     OW40395   7.655   4.031   7.074  0.5317 -0.0552  0.2649
13108SOL    HW140396   7.655   3.957   7.135 -0.7404 -1.5594 -1.4477
13108SOL    HW240397   7.702   3.998   6.997  0.3133  1.0674 -0.3650
13109SOL     OW40398   6.503   6.435   1.619 -0.2291  0.1469  0.1021
13109SOL    HW140399   6.561   6.423   1.694 -1.4126  1.2886  1.2648
13109SOL    HW240400   6.558   6.417   1.543  0.6627 -2.3687  1.2392
13110SOL     OW40401   3.450   2.614   6.848 -0.2332  0.3443 -0.2427
13110SOL    HW140402   3.537   2.655   6.841 -0.4332  0.8724  0.2802
13110SOL    HW240403   3.424   2.630   6.938 -0.7231 -0.1351 -0.2975
13111SOL     OW40404   5.721   6.339   6.547  0.9241  0.4480 -0.6236
13111SOL    HW140405   5.699   6.425   6.583  1.9061 -0.0781  1.3518
13111SOL    HW240406   5.718   6.280   6.622 -0.6637 -1.4897 -2.0823
13112SOL     OW40407   4.798   6.209   8.114 -0.3623  0.5962 -0.2664
13112SOL    HW140408   4.812   6.225   8.020  0.3771  0.7150 -0.1452
13112SOL    HW240409   4.754   6.288   8.145 -0.0068  0.8456 -0.3862
13113SOL     OW40410   0.063   2.660   1.221  0.1444 -0.3559  0.1311
13113SOL    HW140411   0.049   2.740   1.271 -0.7716 -0.9352  0.8427
13113SOL    HW240412   0.158   2.657   1.206  0.2502  0.5858  0.5375
13114SOL     OW40413   5.055   0.014   4.573  0.0424 -0.2404 -0.0523
13114SOL    HW140414   5.060   0.078   4.503  2.5644 -0.8126 -0.5107
13114SOL    HW240415   4.982   0.042   4.627  0.2274  2.2272 -0.9776
13115SOL     OW40416   7.509   3.713   3.930 -0.2164 -0.8211  0.3510
13115SOL    HW140417   7.485   3.715   4.022  0.3269 -2.8065  0.5817
13115SOL    HW240418   7.436   3.668   3.887  0.0504 -0.9008 -0.0233
13116SOL     OW40419   4.685   3.354   1.131  0.3597  0.4095  0.0528
13116SOL    HW140420   4.600   3.311   1.124  0.3331  0.2593  1.0646
13116SOL    HW240421   4.738   3.313   1.063 -0.1130 -0.1558  0.0129
13117SOL     OW40422   4.966   7.900   4.205 -0.3386  0.3383 -0.2080
13117SOL    HW140423   4.900   7.873   4.270  0.5993 -1.7035 -0.0296
13117SOL    HW240424   5.037   7.937   4.258  0.4340 -1.3430  0.0029
13118SOL     OW40425   4.768   4.006   0.121  0.0216  0.5026 -0.0912
13118SOL    HW140426   4.679   4.040   0.128  0.0525  0.4315  0.6664
13118SOL    HW240427   4.761   3.914   0.143 -0.0464 -0.0254 -2.0837
13119SOL     OW40428   1.539   5.474   2.651  0.2666  0.1821  0.1974
13119SOL    HW140429   1.630   5.461   2.677 -0.4723 -0.3334  2.8482
13119SOL    HW240430   1.534   5.566   2.624  1.5095  0.2763  0.2294
13120SOL     OW40431   0.250   4.623   1.281 -0.0791 -1.2435  0.2382
13120SOL    HW140432   0.309   4.678   1.332 -0.9936 -1.7862  1.9501
13120SOL    HW240433   0.292   4.616   1.195  1.0045  0.5163  0.5836
13121SOL     OW40434   3.823   4.713   7.318 -0.8298  0.5035  0.3020
13121SOL    HW140435   3.854   4.627   7.290 -0.5957  0.4549  0.7149
13121SOL    HW240436   3.848   4.771   7.245  0.8129  0.5845  0.8792
13122SOL     OW40437   0.921   6.281   0.979  0.5829 -0.1694  0.0146
13122SOL    HW140438   0.860   6.295   0.906  0.2964 -1.5020 -0.0468
13122SOL    HW240439   0.991   6.227   0.941  1.0788  0.1856  0.4236
13123SOL     OW40440   1.327   5.792   6.714 -0.1341 -0.3613  0.0725
13123SOL    HW140441   1.363   5.879   6.695 -3.7390  1.4031  0.5823
13123SOL    HW240442   1.400   5.745   6.755  2.7712  1.3814 -2.6223
13124SOL     OW40443   1.856   7.688   6.167  0.1426 -0.4702 -0.6926
13124SOL    HW140444   1.905   7.770   6.171  0.9019 -0.9597  0.3746
13124SOL    HW240445   1.922   7.620   6.155 -0.3135 -1.0840  0.1742
13125SOL     OW40446   0.327   0.789   3.145  0.1842  0.9833 -0.2031
13125SOL    HW140447   0.259   0.845   3.181 -0.8602 -0.1081 -0.4290
13125SOL    HW240448   0.365   0.746   3.221  0.4315  1.3649 -0.1056
13126SOL     OW40449   2.967   1.735   0.444 -0.9785 -0.4646 -0.1944
13126SOL    HW140450   2.957   1.805   0.509  1.9638 -0.3871  0.2921
13126SOL    HW240451   2.927   1.770   0.364 -1.4835  0.8738  0.6105
13127SOL     OW40452   1.373   2.097   7.389 -0.4362  0.5340 -0.3081
13127SOL    HW140453   1.278   2.107   7.380 -0.0821  3.3176 -2.7588
13127SOL    HW240454   1.399   2.054   7.308  0.4626  0.4586  0.0178
13128SOL     OW40455   3.707   3.152   2.108  0.2285  0.1741  0.1084
13128SOL    HW140456   3.688   3.084   2.043 -1.0385  2.0764 -1.6343
13128SOL    HW240457   3.634   3.148   2.169 -0.3160  0.5433 -0.5107
13129SOL     OW40458   0.400   3.949   4.429  0.3774 -0.1661  0.3418
13129SOL    HW140459   0.404   3.857   4.455 -0.8703 -0.6322 -0.9857
13129SOL    HW240460   0.358   3.993   4.503 -0.7523 -1.0191  0.2397
13130SOL     OW40461   3.319   1.628   7.262  0.1590  0.5539  0.6959
13130SOL    HW140462   3.263   1.656   7.189  0.0265  0.3282  0.7082
13130SOL    HW240463   3.274   1.551   7.298  0.5078  0.3349  0.6700
13131SOL     OW40464   1.881   6.761   1.170  0.3008  0.3097  0.4108
13131SOL    HW140465   1.865   6.806   1.253  0.9934  1.3745 -0.0027
13131SOL    HW240466   1.925   6.680   1.195  0.6416  0.6877  1.0811
13132SOL     OW40467   3.397   7.708   6.309  0.2557  0.1255 -0.1632
13132SOL    HW140468   3.325   7.749   6.357  1.4593  2.0140  0.1633
13132SOL    HW240469   3.474   7.757   6.337  1.3518 -0.3915 -2.1300
13133SOL     OW40470   2.494   6.118   0.449  0.1863  0.0828 -0.0334
13133SOL    HW140471   2.462   6.204   0.421  1.4345  0.3160 -0.7916
13133SOL    HW240472   2.547   6.137   0.527  0.6383  0.0317 -0.3267
13134SOL     OW40473   1.071   5.642   3.720  0.2638  0.2485 -0.8372
13134SOL    HW140474   0.982   5.617   3.692 -0.0287  0.9992 -0.5808
13134SOL    HW240475   1.105   5.563   3.762 -0.4466  0.0948 -0.5390
13135SOL     OW40476   4.397   7.436   5.469  0.0135 -0.3669 -0.1219
13135SOL    HW140477   4.332   7.419   5.538  0.5829 -0.8866  0.2948
13135SOL    HW240478   4.377   7.525   5.440 -0.1854 -0.0975  0.7822
13136SOL     OW40479   3.223   1.007   5.828 -0.2458  0.2559 -0.2894
13136SOL    HW140480   3.283   0.950   5.877 -0.0016  0.9479  0.2418
13136SOL    HW240481   3.237   1.094   5.866 -0.6320  0.6656 -1.0644
13137SOL     OW40482   4.189   0.791   7.309 -0.0429 -0.4871  0.1876
13137SOL    HW140483   4.277   0.753   7.307  0.0691 -0.2474 -1.9230
13137SOL    HW240484   4.197   0.866   7.367  1.2921 -0.1524 -0.3878
13138SOL     OW40485   2.223   3.518   0.118  0.3312  0.0771 -0.2094
13138SOL    HW140486   2.163   3.462   0.069 -0.6162  0.1984  0.7615
13138SOL    HW240487   2.184   3.605   0.112  1.8221  0.6826 -1.7552
13139SOL     OW40488   0.769   0.394   8.135 -0.0941  0.6604 -0.0441
13139SOL    HW140489   0.824   0.403   8.058 -0.1603  4.2108  0.1998
13139SOL    HW240490   0.815   0.442   8.204 -0.3086 -1.9120  2.1052
13140SOL     OW40491   2.458   0.133   8.078  0.5434  0.0525  0.2929
13140SOL    HW140492   2.499   0.179   8.151 -0.3017 -0.3696  1.0525
13140SOL    HW240493   2.379   0.095   8.115 -0.6316  0.9557 -1.1452
13141SOL     OW40494   1.943   4.395   0.000 -0.0883  0.5110 -0.5720
13141SOL    HW140495   1.888   4.341  -0.057 -0.4347 -0.0416  0.2556
13141SOL    HW240496   1.969   4.469  -0.054  0.2525 -0.3954 -1.6932
13142SOL     OW40497   4.350   3.067   7.331 -0.0386  0.2903 -0.0742
13142SOL    HW140498   4.313   2.982   7.307 -2.1978  0.9409  0.7059
13142SOL    HW240499   4.424   3.046   7.388 -0.4807 -1.0727  0.0290
13143SOL     OW40500   5.231   4.192   3.184  0.0954  0.3795 -0.3023
13143SOL    HW140501   5.224   4.234   3.269  0.2670  1.2602 -0.7170
13143SOL    HW240502   5.199   4.103   3.199 -1.6644  1.0665  0.2737
13144SOL     OW40503   6.587   1.217   3.789  0.3186  0.0295  0.6374
13144SOL    HW140504   6.666   1.203   3.841  0.3415  0.4333  0.7174
13144SOL    HW240505   6.599   1.161   3.713  1.3659  1.1432 -0.0717
13145SOL     OW40506   1.036   2.751   7.405  0.2821  0.4911  0.6162
13145SOL    HW140507   0.963   2.690   7.402 -1.8716  2.9253  0.3483
13145SOL    HW240508   1.063   2.750   7.497  0.4830 -0.9908  0.5762
13146SOL     OW40509   2.352   2.995   5.242  0.1278 -0.3182 -0.1815
13146SOL    HW140510   2.305   2.913   5.224 -0.4520  0.4763 -2.5137
13146SOL    HW240511   2.335   3.012   5.335 -3.2977 -0.6631 -0.6402
13147SOL     OW40512   3.748   1.006   0.797  0.3508 -0.4028 -0.1690
13147SOL    HW140513   3.783   0.976   0.713  0.2167  0.8074 -0.6682
13147SOL    HW240514   3.794   0.952   0.862  3.2632  1.1325 -0.7810
13148SOL     OW40515   1.782   4.631   5.476 -0.4085  0.2219 -0.4701
13148SOL    HW140516   1.746   4.719   5.490 -0.6173 -0.1152  1.3688
13148SOL    HW240517   1.708   4.572   5.494  0.2467 -0.3813  0.3009
13149SOL     OW40518   7.563   7.874   0.105 -0.3309 -0.5070 -0.1011
13149SOL    HW140519   7.659   7.875   0.099 -0.3174  1.3987 -0.1075
13149SOL    HW240520   7.538   7.965   0.096 -1.9379 -0.4676  3.3683
13150SOL     OW40521   3.136   6.125   7.012  0.3189 -0.2553  0.3552
13150SOL    HW140522   3.170   6.064   7.078  0.4668 -1.0333 -0.4181
13150SOL    HW240523   3.078   6.071   6.959  0.2184  0.3609 -0.1645
13151SOL     OW40524   1.973   7.403   1.527 -0.0224 -0.1460 -0.4976
13151SOL    HW140525   2.050   7.348   1.539  0.4520  0.5702 -0.1611
13151SOL    HW240526   1.985   7.444   1.441 -0.0833 -0.1207 -0.4945
13152SOL     OW40527   2.145   7.790   2.590  0.7752 -0.2233  0.0978
13152SOL    HW140528   2.101   7.831   2.516 -1.1504 -2.2532  0.0234
13152SOL    HW240529   2.171   7.703   2.558  1.5490 -0.4465  1.2587
13153SOL     OW40530   4.878   3.322   6.409 -0.1834 -0.0045 -0.1698
13153SOL    HW140531   4.930   3.353   6.335  0.3273 -0.0495  0.1670
13153SOL    HW240532   4.795   3.369   6.401 -0.2581 -0.2614 -0.9581
13154SOL     OW40533   4.895   2.165   3.289 -0.5470 -0.1601 -0.3313
13154SOL    HW140534   4.953   2.090   3.276  1.1895  0.8578  1.1496
13154SOL    HW240535   4.949   2.242   3.269 -1.3279  0.8254  1.1124
13155SOL     OW40536   4.234   6.008   7.655  0.1456  0.1592 -0.0596
13155SOL    HW140537   4.140   5.994   7.667  0.0612  1.1222  0.4856
13155SOL    HW240538   4.269   6.015   7.744  1.0094 -1.7627 -0.1895
13156SOL     OW40539   3.855   2.859   2.831  0.0089 -0.0263 -0.2938
13156SOL    HW140540   3.783   2.851   2.894  0.1779  0.8368  0.0167
13156SOL    HW240541   3.813   2.849   2.746 -0.3518 -0.3648 -0.0797
13157SOL     OW40542   7.475   1.556   3.234  0.3575 -0.3511  0.1310
13157SOL    HW140543   7.456   1.642   3.272  0.0724 -1.0689  1.6803
13157SOL    HW240544   7.570   1.550   3.234  0.3856  0.0921 -0.2802
13158SOL     OW40545   1.345   0.433   3.897  0.6810  0.2615  0.5893
13158SOL    HW140546   1.254   0.445   3.922  0.7013 -0.2159  0.8999
13158SOL    HW240547   1.362   0.340   3.912  1.2659  0.3836  0.6960
13159SOL     OW40548   3.285   0.608   3.651 -0.8250 -0.4566 -0.1716
13159SOL    HW140549   3.283   0.519   3.686 -0.6566 -0.4607 -0.1703
13159SOL    HW240550   3.213   0.612   3.588  0.5183 -1.2947 -1.8513
13160SOL     OW40551   0.331   7.342   1.794  0.0562 -0.3421  0.1581
13160SOL    HW140552   0.420   7.348   1.758 -0.4944  0.7795 -1.1148
13160SOL    HW240553   0.297   7.259   1.759  0.3693 -0.4639  0.1326
13161SOL     OW40554   3.466   7.020   1.389  0.8082 -0.1732 -0.1023
13161SOL    HW140555   3.457   6.982   1.476 -1.3208 -0.9258 -0.5856
13161SOL    HW240556   3.378   7.049   1.366  1.7844  2.3910 -0.9988
13162SOL     OW40557   0.168   6.259   5.514  0.4502 -0.1843 -0.1397
13162SOL    HW140558   0.088   6.246   5.564  0.6303  0.3168  0.2787
13162SOL    HW240559   0.239   6.243   5.576  0.6780  1.1618 -0.0368
13163SOL     OW40560   7.103   3.136   5.921 -0.0005 -0.1112 -0.4498
13163SOL    HW140561   7.160   3.063   5.896  0.2249 -0.8841  2.0012
13163SOL    HW240562   7.026   3.127   5.864 -0.2205 -2.6484  0.0912
13164SOL     OW40563   0.622   3.084   4.731  0.1117  0.4068  0.1496
13164SOL    HW140564   0.685   3.018   4.701 -0.6278 -0.9085  1.3978
13164SOL    HW240565   0.543   3.066   4.679 -0.3401 -0.2123  1.0349
13165SOL     OW40566   4.076   2.739   5.885  0.6775  0.1883  0.3564
13165SOL    HW140567   4.165   2.774   5.876  0.6258  0.2344  0.0124
13165SOL    HW240568   4.022   2.794   5.829  0.1821  1.0186  1.6128
13166SOL     OW40569   2.438   0.978   7.487 -0.4853 -0.0007  0.1347
13166SOL    HW140570   2.403   1.038   7.422 -0.7659 -0.5696 -0.2550
13166SOL    HW240571   2.440   0.893   7.442  1.1657 -0.0368  0.2217
13167SOL     OW40572   3.699   3.428   5.781 -0.6986  0.0206  0.3082
13167SOL    HW140573   3.713   3.360   5.847  0.4761 -0.1785 -0.1279
13167SOL    HW240574   3.748   3.504   5.815  2.4789 -0.9545 -1.6726
13168SOL     OW40575   5.370   7.220   6.389  0.1449  0.3187  0.0766
13168SOL    HW140576   5.339   7.242   6.477 -1.4892 -2.0611  0.1800
13168SOL    HW240577   5.315   7.274   6.331 -1.4846 -0.8892  0.4300
13169SOL     OW40578   2.831   1.529   0.797 -0.4951 -0.0587 -0.8079
13169SOL    HW140579   2.822   1.523   0.892 -0.7369  1.1243 -0.7453
13169SOL    HW240580   2.741   1.527   0.764 -0.6483  2.5388 -0.7814
13170SOL     OW40581   3.113   3.604   6.985 -0.1947 -0.0689  0.0532
13170SOL    HW140582   3.089   3.530   6.930  1.0238 -1.6979  1.5899
13170SOL    HW240583   3.209   3.604   6.986 -0.1366  2.0880 -0.5773
13171SOL     OW40584   4.789   7.475   7.691  0.1823 -0.7158  0.4720
13171SOL    HW140585   4.743   7.535   7.750 -1.2185 -1.5489  0.2587
13171SOL    HW240586   4.771   7.388   7.727 -2.0516 -1.4046 -1.9883
13172SOL     OW40587   1.368   6.722   2.455  0.1226 -0.2206 -0.1809
13172SOL    HW140588   1.430   6.675   2.510  0.8930 -0.1281 -0.9361
13172SOL    HW240589   1.322   6.653   2.406 -1.2126 -0.3579  1.1999
13173SOL     OW40590   3.662   0.110   6.630 -0.4423 -0.1580  0.4012
13173SOL    HW140591   3.619   0.053   6.693 -0.0819  0.7637  1.5246
13173SOL    HW240592   3.602   0.184   6.620 -0.1950  0.0176  0.1858
13174SOL     OW40593   4.497   0.007   4.039  0.1093  0.2989  0.5676
13174SOL    HW140594   4.409  -0.015   4.011  0.5294  0.0915 -0.6653
13174SOL    HW240595   4.509  -0.041   4.121 -0.8605  0.2073  0.6654
13175SOL     OW40596   7.308   2.071   4.474 -0.0543  0.4125  0.0455
13175SOL    HW140597   7.273   2.156   4.447  0.4059  0.7568  0.5155
13175SOL    HW240598   7.376   2.051   4.410  1.9325  1.8330  1.5972
13176SOL     OW40599   1.303   7.482   4.276 -0.1648  0.5000  0.2591
13176SOL    HW140600   1.268   7.468   4.364  1.4654 -0.0540  0.8627
13176SOL    HW240601   1.337   7.572   4.278 -1.8283  1.1923 -0.4609
13177SOL     OW40602   3.545   8.094   1.944 -0.5274  0.1736  0.7218
13177SOL    HW140603   3.526   8.185   1.920  0.2179  0.7106  2.0862
13177SOL    HW240604   3.487   8.042   1.888 -1.0145  1.4845 -0.0287
13178SOL     OW40605   4.130   3.617   1.380  0.7456 -0.1567  0.7029
13178SOL    HW140606   4.085   3.679   1.323  0.0831 -1.6246 -0.4499
13178SOL    HW240607   4.207   3.591   1.329  0.3698 -1.1692  0.6360
13179SOL     OW40608   6.161   0.619   0.935  0.1451  0.4111 -0.2999
13179SOL    HW140609   6.218   0.622   1.011  1.2751  0.7455 -1.1371
13179SOL    HW240610   6.087   0.676   0.958 -0.4449 -0.8941  1.2243
13180SOL     OW40611   2.334   2.528   2.112  0.6112  0.3220  0.0019
13180SOL    HW140612   2.257   2.525   2.056  0.2266  0.5924  0.5069
13180SOL    HW240613   2.364   2.619   2.107 -0.1235  0.6590  1.1376
13181SOL     OW40614   1.718   0.669   0.362  0.0643 -0.8451  0.4388
13181SOL    HW140615   1.687   0.759   0.376 -1.1377 -1.1752 -0.0362
13181SOL    HW240616   1.684   0.620   0.437 -0.5186 -1.1969 -0.0527
13182SOL     OW40617   5.791   7.284   3.618  0.0185  0.4620  0.1793
13182SOL    HW140618   5.751   7.320   3.698 -0.1791 -0.0056  0.2932
13182SOL    HW240619   5.717   7.269   3.559  0.3242  2.7272 -0.9043
13183SOL     OW40620   7.854   3.913   3.934 -0.6089 -0.1132 -0.1691
13183SOL    HW140621   7.767   3.945   3.912 -1.1057 -0.5835  1.0268
13183SOL    HW240622   7.841   3.821   3.959  0.5187 -0.7614 -1.7777
13184SOL     OW40623   1.204   2.697   6.526 -0.4602  0.0285 -0.3695
13184SOL    HW140624   1.161   2.694   6.611  0.9350 -0.0966  0.3612
13184SOL    HW240625   1.135   2.722   6.465 -1.6140 -0.4126  0.7060
13185SOL     OW40626   6.742   2.548   6.043  0.0605 -0.4648 -0.0456
13185SOL    HW140627   6.762   2.466   5.998  2.9118  0.1571 -0.0673
13185SOL    HW240628   6.698   2.601   5.977  0.4160 -1.0913 -0.8087
13186SOL     OW40629   7.793   4.372   4.180  0.3220 -0.5410 -0.0765
13186SOL    HW140630   7.836   4.415   4.253  0.5828 -1.5425  0.3878
13186SOL    HW240631   7.709   4.342   4.215 -0.3828  0.5906 -0.7204
13187SOL     OW40632   3.886   6.450   1.864 -0.1504 -0.1559 -0.2467
13187SOL    HW140633   3.936   6.519   1.908 -1.9890  1.4458 -0.5410
13187SOL    HW240634   3.810   6.495   1.826 -1.5388 -2.3799 -0.3054
13188SOL     OW40635   7.051   5.943   4.827  0.2995  0.1525 -0.0640
13188SOL    HW140636   7.042   5.848   4.820  2.2260 -0.2466  1.7372
13188SOL    HW240637   6.997   5.978   4.756 -0.6184 -2.2589 -0.6497
13189SOL     OW40638   1.585   0.011   3.565  0.0046  0.3285 -0.0560
13189SOL    HW140639   1.624   0.004   3.477 -0.6698  2.0615 -0.5335
13189SOL    HW240640   1.657   0.039   3.621  1.1337 -3.3868  0.5889
13190SOL     OW40641   3.870   3.409   1.033  0.1140 -0.6193 -0.2957
13190SOL    HW140642   3.876   3.375   0.944  2.2301  0.1658 -0.5100
13190SOL    HW240643   3.882   3.332   1.089  1.3676 -0.7693 -0.7393
13191SOL     OW40644   6.836   0.895   4.990  0.2637  0.5739  0.5174
13191SOL    HW140645   6.828   0.801   5.010  0.2246  0.8388  1.8344
13191SOL    HW240646   6.896   0.899   4.916  0.3612 -0.4872  0.5260
13192SOL     OW40647   7.275   0.258   2.670 -0.1823  0.3848  0.4320
13192SOL    HW140648   7.334   0.185   2.690 -0.8530 -1.4405 -3.3444
13192SOL    HW240649   7.332   0.325   2.632  0.0791  0.6844  1.3431
13193SOL     OW40650   2.486   6.749   4.620  0.4445  0.3127  0.7378
13193SOL    HW140651   2.425   6.683   4.651  1.4392 -0.8765  0.2797
13193SOL    HW240652   2.520   6.713   4.538 -0.7602  2.5054 -0.8269
13194SOL     OW40653   2.401   5.185   1.106  0.1174  0.0869 -0.2491
13194SOL    HW140654   2.458   5.117   1.141  0.7127  1.2535  1.1441
13194SOL    HW240655   2.332   5.137   1.060 -0.9179 -1.6085  2.7773
13195SOL     OW40656   1.827   0.214   1.973  0.2785 -0.2535  0.8501
13195SOL    HW140657   1.745   0.180   1.937 -0.0450  1.2789  0.0385
13195SOL    HW240658   1.826   0.186   2.065 -1.7493  0.7284  1.1986
13196SOL     OW40659   2.443   3.961   2.084 -0.2265 -0.0914 -0.2323
13196SOL    HW140660   2.424   3.968   2.177 -1.7346 -0.0923 -0.5143
13196SOL    HW240661   2.487   4.043   2.062  0.6706 -0.3387  0.5819
13197SOL     OW40662   6.160   1.726   2.248  0.6492 -0.1715 -0.1956
13197SOL    HW140663   6.150   1.765   2.161 -1.1793 -1.4906 -0.6389
13197SOL    HW240664   6.106   1.781   2.305 -0.2259 -0.7811 -0.4157
13198SOL     OW40665   6.817   2.105   4.437  0.4510  0.0943 -0.5960
13198SOL    HW140666   6.873   2.059   4.375  0.8244  1.5792 -1.3985
13198SOL    HW240667   6.728   2.075   4.416  0.7092 -0.4495 -0.9267
13199SOL     OW40668   1.499   2.846   5.739 -0.1157 -0.4246 -0.7826
13199SOL    HW140669   1.582   2.852   5.787 -0.8064  1.9373  0.2478
13199SOL    HW240670   1.519   2.884   5.653  0.3158 -1.7333 -1.2995
13200SOL     OW40671   0.021   0.718   6.944 -0.2093 -0.1689  0.1249
13200SOL    HW140672  -0.070   0.693   6.958 -0.5052  0.8766  0.1782
13200SOL    HW240673   0.056   0.732   7.032 -0.9675  2.6229  0.0927
13201SOL     OW40674   2.646   3.240   5.200  0.0612  0.2680 -1.1965
13201SOL    HW140675   2.691   3.164   5.164 -1.6277 -0.7972 -1.1487
13201SOL    HW240676   2.622   3.292   5.123 -0.2076 -0.0780 -1.3500
13202SOL     OW40677   4.221   0.560   5.989 -0.3547 -0.0046  0.9978
13202SOL    HW140678   4.143   0.536   5.938 -0.8378 -1.0075  2.1408
13202SOL    HW240679   4.295   0.528   5.937 -0.5256  2.4465 -0.9347
13203SOL     OW40680   7.369   4.851   1.532 -0.5446  0.1642  0.0530
13203SOL    HW140681   7.420   4.901   1.596 -0.9316  1.5968 -0.7269
13203SOL    HW240682   7.344   4.915   1.466 -0.3542 -1.2460 -1.4324
13204SOL     OW40683   0.595   7.281   6.387 -0.2203 -0.3808 -0.3494
13204SOL    HW140684   0.574   7.360   6.338  1.1625 -0.2755 -0.8311
13204SOL    HW240685   0.648   7.228   6.327 -0.4271 -1.2960  0.2446
13205SOL     OW40686   2.491   3.191   3.464 -0.0038 -0.2569  0.8598
13205SOL    HW140687   2.564   3.241   3.428 -0.8707  0.4304  0.0060
13205SOL    HW240688   2.468   3.237   3.545 -0.2337  0.2315  0.5242
13206SOL     OW40689   3.088   7.346   4.701  0.2447  0.2978 -0.5774
13206SOL    HW140690   3.076   7.280   4.770  1.4535  0.7870  0.1410
13206SOL    HW240691   3.014   7.333   4.642 -0.0191 -1.1265  0.0148
13207SOL     OW40692   3.488   2.924   2.662  0.5116  0.1456  0.3719
13207SOL    HW140693   3.463   3.013   2.640  1.0323  0.5027  1.1909
13207SOL    HW240694   3.409   2.885   2.700 -0.6525 -0.7255 -2.6789
13208SOL     OW40695   1.886   6.557   7.726  0.1784  0.1381 -0.1418
13208SOL    HW140696   1.840   6.638   7.702  0.1235 -0.2278 -1.3014
13208SOL    HW240697   1.924   6.526   7.644  1.4667 -0.2276  0.5650
13209SOL     OW40698   4.110   2.448   3.459  0.5577  0.3121  0.1526
13209SOL    HW140699   4.122   2.430   3.366  0.9246 -1.4872  0.5083
13209SOL    HW240700   4.065   2.370   3.493 -1.6417  1.8712  1.0854
13210SOL     OW40701   4.760   6.735   7.238 -0.2094 -0.3552 -0.3485
13210SOL    HW140702   4.833   6.681   7.267  1.2875  1.8273  0.2362
13210SOL    HW240703   4.684   6.701   7.286  1.0922 -0.5886  1.6797
13211SOL     OW40704   7.911   1.185   5.912 -0.7425 -0.0341 -0.3736
13211SOL    HW140705   7.873   1.100   5.889 -0.8365 -0.0300 -0.2347
13211SOL    HW240706   7.962   1.168   5.992 -2.2219  0.3993  0.7104
13212SOL     OW40707   1.969   7.185   4.154 -0.0407  0.0190  0.6089
13212SOL    HW140708   1.902   7.254   4.149  0.7748  0.7434 -0.7483
13212SOL    HW240709   1.919   7.105   4.169 -1.1700  0.6467  0.3318
13213SOL     OW40710   3.199   5.487   5.841  0.7454 -0.0442  0.2032
13213SOL    HW140711   3.292   5.473   5.859  0.8526 -0.0675 -0.3400
13213SOL    HW240712   3.183   5.439   5.760 -0.0733 -1.2288  1.0347
13214SOL     OW40713   6.576   1.664   5.193  0.5854 -0.2705 -0.1725
13214SOL    HW140714   6.638   1.602   5.231 -0.7373 -1.1507  0.6277
13214SOL    HW240715   6.518   1.610   5.138 -0.9324  0.1193  0.9682
13215SOL     OW40716   7.423   0.722   1.271 -0.0518  0.5122  0.1803
13215SOL    HW140717   7.447   0.812   1.248 -0.0427  0.1454 -1.2907
13215SOL    HW240718   7.506   0.678   1.286 -0.0529  0.7012  0.7961
13216SOL     OW40719   3.577   1.383   1.842  0.1384  0.2203  0.4820
13216SOL    HW140720   3.569   1.461   1.898 -2.0347  0.6243 -0.2973
13216SOL    HW240721   3.610   1.417   1.759 -0.2225  0.2288  0.3394
13217SOL     OW40722   6.716   1.468   5.312 -0.1334 -0.4574 -0.3462
13217SOL    HW140723   6.728   1.435   5.401  0.2671 -0.6665 -0.4750
13217SOL    HW240724   6.644   1.416   5.276 -1.4019  0.7329  0.3965
13218SOL     OW40725   6.390   3.101   0.667 -0.3171 -0.0128 -0.8989
13218SOL    HW140726   6.395   3.045   0.590  1.4157 -1.0208 -0.1094
13218SOL    HW240727   6.448   3.175   0.648 -1.6495  0.9282 -1.4418
13219SOL     OW40728   2.870   2.303   2.471  0.2392 -0.4072 -0.2534
13219SOL    HW140729   2.802   2.365   2.495 -0.0600  0.1897 -2.4741
13219SOL    HW240730   2.845   2.222   2.515 -0.1344  0.6227  1.5275
13220SOL     OW40731   0.694   2.249   5.467  0.3399  0.3729  0.0632
13220SOL    HW140732   0.620   2.239   5.527  0.2863 -0.6537 -0.1617
13220SOL    HW240733   0.695   2.168   5.416  1.1204  0.7269 -0.5046
13221SOL     OW40734   5.509   0.501   4.810  0.1187 -0.0259  0.4016
13221SOL    HW140735   5.488   0.581   4.762  1.3593  0.0629 -0.0285
13221SOL    HW240736   5.596   0.476   4.779  0.0250 -1.1945  0.9959
13222SOL     OW40737   8.017   6.873   1.063 -0.1917  0.1274  0.4929
13222SOL    HW140738   7.980   6.807   1.121 -1.2658  0.1212 -0.1713
13222SOL    HW240739   8.112   6.863   1.073 -0.3505 -0.0975  1.9667
13223SOL     OW40740   8.133   4.627   4.182  0.2267 -0.4610 -0.1572
13223SOL    HW140741   8.155   4.568   4.255 -0.4160 -0.4906  0.0183
13223SOL    HW240742   8.060   4.584   4.138  0.1586 -0.0923 -0.4025
13224SOL     OW40743   5.045   6.574   5.777 -0.4500  0.0184  0.3664
13224SOL    HW140744   5.003   6.521   5.709 -2.0912  0.5775  0.8922
13224SOL    HW240745   5.061   6.658   5.735 -2.5051  0.7463  0.9305
13225SOL     OW40746   4.411   3.340   4.835 -0.4020  0.1732 -0.4285
13225SOL    HW140747   4.440   3.266   4.888 -0.6312 -0.7381 -1.5525
13225SOL    HW240748   4.395   3.410   4.899  1.2743 -0.2426  0.5267
13226SOL     OW40749   0.502   0.128   2.437 -0.0724 -0.6974  0.2150
13226SOL    HW140750   0.470   0.196   2.495  0.9303  0.4292 -0.5258
13226SOL    HW240751   0.440   0.128   2.363 -0.8991 -1.6051  0.8740
13227SOL     OW40752   6.231   6.752   2.861  0.3199  0.5366 -0.2066
13227SOL    HW140753   6.224   6.660   2.836  1.5757 -0.0948  1.5446
13227SOL    HW240754   6.325   6.771   2.859  0.2592  1.1747  1.3224
13228SOL     OW40755   1.423   3.902   4.033 -0.2749 -0.0759 -0.1402
13228SOL    HW140756   1.437   3.842   4.106 -0.9661  0.1963  0.2178
13228SOL    HW240757   1.328   3.906   4.022 -0.2989  1.5703  0.3662
13229SOL     OW40758   2.482   1.779   0.687 -0.1528  0.1394 -0.9556
13229SOL    HW140759   2.397   1.822   0.687  1.2453  3.3761 -3.6541
13229SOL    HW240760   2.537   1.833   0.743  0.5836 -0.8625 -0.6792
13230SOL     OW40761   4.344   1.880   4.223 -0.3676  0.2924  0.1374
13230SOL    HW140762   4.330   1.788   4.201 -1.0028  0.5772 -0.6917
13230SOL    HW240763   4.337   1.926   4.140 -1.4377  1.2530  0.7245
13231SOL     OW40764   0.398   5.829   4.285  0.6416 -0.1703  0.4226
13231SOL    HW140765   0.430   5.788   4.365 -0.3174  1.4066  1.6634
13231SOL    HW240766   0.321   5.879   4.312 -0.5765 -0.6943 -1.7431
13232SOL     OW40767   0.436   6.150   1.338  0.3512  0.1180  0.5771
13232SOL    HW140768   0.460   6.098   1.261  0.6089 -1.2665  1.5585
13232SOL    HW240769   0.372   6.096   1.384  0.5190  0.7315  1.5570
13233SOL     OW40770   4.476   7.243   4.456  0.2783  0.7214  0.5040
13233SOL    HW140771   4.413   7.292   4.403 -1.1470 -1.0642  0.4703
13233SOL    HW240772   4.542   7.213   4.393  0.0360  0.8458  0.1858
13234SOL     OW40773   2.143   4.861   5.738  0.2966 -0.1317 -0.1133
13234SOL    HW140774   2.157   4.955   5.726  0.4553 -0.2158 -0.5806
13234SOL    HW240775   2.088   4.834   5.665  1.0629 -0.5897 -0.5411
13235SOL     OW40776   3.356   0.484   1.546 -0.0837  0.4451  0.1445
13235SOL    HW140777   3.310   0.401   1.558 -0.1569 -0.0771 -2.8112
13235SOL    HW240778   3.416   0.468   1.473 -2.0664  3.6051 -2.5031
13236SOL     OW40779   0.647   0.772   7.188 -0.2576  0.0286  0.6675
13236SOL    HW140780   0.671   0.792   7.278 -0.4954  0.0640  0.7247
13236SOL    HW240781   0.729   0.749   7.145 -0.1097  0.2634  0.8276
13237SOL     OW40782   5.266   0.093   7.215  0.2064 -0.1001 -0.6203
13237SOL    HW140783   5.211   0.143   7.275 -1.6506 -0.1642 -2.1750
13237SOL    HW240784   5.346   0.145   7.207  0.2218  0.2413  1.3285
13238SOL     OW40785   0.911   4.423   6.266 -0.9332 -0.4314  0.6161
13238SOL    HW140786   0.946   4.476   6.338  0.8188 -0.1861 -0.3658
13238SOL    HW240787   0.878   4.487   6.203  0.2552 -0.4957 -0.1090
13239SOL     OW40788   2.730   7.549   2.219  0.1397  0.5375 -0.2798
13239SOL    HW140789   2.768   7.536   2.306 -0.9736 -1.3322 -0.0220
13239SOL    HW240790   2.635   7.548   2.234 -0.0639  0.6789 -1.4595
13240SOL     OW40791   3.625   3.183   7.070 -0.2502  0.2452  0.4155
13240SOL    HW140792   3.558   3.123   7.036 -0.7068 -0.4707  2.4073
13240SOL    HW240793   3.623   3.168   7.165  1.4637  1.5595  0.6908
13241SOL     OW40794   7.724   3.527   3.684 -0.4532 -0.2885  0.2810
13241SOL    HW140795   7.789   3.596   3.696  0.9035 -1.3870 -0.4724
13241SOL    HW240796   7.640   3.570   3.702  0.3950  1.3737  0.4709
13242SOL     OW40797   5.573   2.455   1.999  0.1269  0.0414  0.3019
13242SOL    HW140798   5.656   2.490   2.033 -0.1150 -0.5108  1.5009
13242SOL    HW240799   5.507   2.517   2.030 -0.0671 -0.3415  0.6681
13243SOL     OW40800   2.216   6.805   6.223  0.1675 -0.3945  0.6879
13243SOL    HW140801   2.222   6.732   6.162 -0.7011 -0.3868  0.5900
13243SOL    HW240802   2.307   6.835   6.233  0.5566 -1.5384  0.8070
13244SOL     OW40803   5.869   1.459   1.947 -0.1880  0.0268  0.6255
13244SOL    HW140804   5.777   1.472   1.921  0.6481  3.1038 -1.3029
13244SOL    HW240805   5.864   1.428   2.037 -3.1129 -1.3915  0.1049
13245SOL     OW40806   7.719   2.980   7.791  0.2454  0.0255 -0.2843
13245SOL    HW140807   7.685   3.046   7.731 -2.2748  0.7204  1.6735
13245SOL    HW240808   7.805   3.012   7.817  0.8326  0.3510 -2.4271
13246SOL     OW40809   1.373   6.934   6.888 -0.6713 -0.6012  0.3267
13246SOL    HW140810   1.399   7.012   6.839  0.6192 -0.4728  1.1463
13246SOL    HW240811   1.298   6.962   6.940 -0.9715 -0.2512 -0.2968
13247SOL     OW40812   2.765   5.414   1.062  0.4015 -0.0434 -0.3913
13247SOL    HW140813   2.719   5.490   1.096  0.0874  0.4890 -1.9518
13247SOL    HW240814   2.858   5.437   1.068  0.4165 -0.3378  0.9211
13248SOL     OW40815   4.268   5.356   5.570 -0.0730  0.2746  0.3676
13248SOL    HW140816   4.226   5.296   5.508 -1.3497  1.7008 -0.2169
13248SOL    HW240817   4.260   5.443   5.530  0.9724  0.9778  1.5657
13249SOL     OW40818   6.929   4.255   6.224 -0.9170 -0.7001  0.5722
13249SOL    HW140819   6.962   4.293   6.305  0.1840 -0.0282 -0.1550
13249SOL    HW240820   7.007   4.219   6.182 -0.5261  2.9507 -2.3174
13250SOL     OW40821   0.019   4.141   1.872 -0.3996 -0.2035 -0.0620
13250SOL    HW140822  -0.032   4.164   1.795  0.1163 -0.3544 -0.4522
13250SOL    HW240823   0.110   4.145   1.843 -0.1842  0.0898  0.6328
13251SOL     OW40824   2.998   2.026   5.778 -0.1275  0.0303 -0.2528
13251SOL    HW140825   3.076   2.023   5.724  0.0828 -1.6298  0.0736
13251SOL    HW240826   3.030   2.014   5.867 -0.6563  0.4687 -0.0004
13252SOL     OW40827   5.110   5.275   0.532  0.7274  0.7153 -0.1291
13252SOL    HW140828   5.081   5.199   0.481  0.6877 -0.2001  1.2265
13252SOL    HW240829   5.061   5.348   0.494 -0.6361 -0.2275 -0.2572
13253SOL     OW40830   4.773   7.170   4.452 -0.0481  0.1360 -0.3284
13253SOL    HW140831   4.745   7.244   4.506 -0.4117 -1.0347  1.1688
13253SOL    HW240832   4.752   7.195   4.362 -4.1747  0.1871  0.4551
13254SOL     OW40833   2.530   1.411   4.563 -0.4282 -1.0422  0.1200
13254SOL    HW140834   2.490   1.428   4.648 -0.7758  1.8712 -0.5278
13254SOL    HW240835   2.468   1.448   4.500 -0.7576 -4.1377 -1.5768
13255SOL     OW40836   6.537   2.979   4.392 -0.3928  0.5718  0.0672
13255SOL    HW140837   6.557   3.016   4.478 -0.8158  0.2374  0.3127
13255SOL    HW240838   6.518   3.055   4.337  1.2867  0.8944 -0.1208
13256SOL     OW40839   4.422   7.196   2.610 -0.2373 -0.0190 -0.2865
13256SOL    HW140840   4.370   7.276   2.602 -0.3571  0.1873  1.8299
13256SOL    HW240841   4.365   7.135   2.657  0.6359 -0.5707  0.0795
13257SOL     OW40842   5.907   3.961   1.054 -0.0919 -0.3020 -0.2685
13257SOL    HW140843   5.943   4.042   1.090 -2.0273 -0.6728  2.9362
13257SOL    HW240844   5.814   3.980   1.040 -0.0672 -1.2605 -1.8984
13258SOL     OW40845   2.474   2.003   4.230  0.2868  0.3615  0.3443
13258SOL    HW140846   2.497   2.053   4.151  1.8001  1.4917  1.4384
13258SOL    HW240847   2.557   1.991   4.276 -0.4567 -0.8856  1.4422
13259SOL     OW40848   2.505   3.449   0.102 -0.1176  0.8002  0.4419
13259SOL    HW140849   2.411   3.466   0.110 -0.1781  0.3416  0.7968
13259SOL    HW240850   2.530   3.490   0.020 -0.8102  0.1745 -0.0983
13260SOL     OW40851   4.744   5.955   7.271 -0.4870 -0.1518  0.2233
13260SOL    HW140852   4.704   5.868   7.268  1.1630 -1.0010  1.2686
13260SOL    HW240853   4.832   5.942   7.237 -0.3153  1.1952  0.0969
13261SOL     OW40854   0.744   6.441   4.912 -0.0859  0.4387 -0.4202
13261SOL    HW140855   0.654   6.411   4.926  0.1381  0.1253  0.4416
13261SOL    HW240856   0.746   6.528   4.953  0.0107  0.4248 -0.3965
13262SOL     OW40857   1.271   7.566   6.974 -0.0611  0.0975 -0.4306
13262SOL    HW140858   1.309   7.646   6.939  0.2433 -0.5999 -1.7522
13262SOL    HW240859   1.233   7.522   6.898 -1.5631 -0.3044  0.5056
13263SOL     OW40860   8.074   2.444   1.285  0.0888  0.0829  0.6650
13263SOL    HW140861   8.145   2.501   1.254 -0.2603  0.3830  0.4067
13263SOL    HW240862   8.032   2.413   1.205  0.2639 -0.5247  0.8062
13264SOL     OW40863   0.448   1.937   7.372 -0.2785 -0.5682  0.2896
13264SOL    HW140864   0.543   1.946   7.385 -0.3074  0.7593 -0.2963
13264SOL    HW240865   0.410   2.012   7.418 -0.9884 -0.6578 -0.1438
13265SOL     OW40866   7.106   2.164   8.022 -0.4830  0.3339  0.0793
13265SOL    HW140867   7.016   2.137   8.006 -0.9139 -0.4744  3.1428
13265SOL    HW240868   7.103   2.207   8.108  2.1127 -0.0570  0.4604
13266SOL     OW40869   8.011   8.062   7.788  0.8459 -0.5335 -0.0835
13266SOL    HW140870   8.021   7.988   7.848  2.5179 -0.0508  0.2696
13266SOL    HW240871   8.035   8.026   7.702  1.7831 -0.3874  0.1091
13267SOL     OW40872   5.969   1.056   4.673 -0.1410 -0.4491 -0.5588
13267SOL    HW140873   5.932   0.969   4.659  0.4084 -0.8225  0.1953
13267SOL    HW240874   6.022   1.047   4.752  4.5851 -0.9334 -3.4181
13268SOL     OW40875   3.909   0.080   1.519  0.1327 -0.0078  0.6669
13268SOL    HW140876   3.966   0.126   1.580 -0.5071 -0.4714  1.6500
13268SOL    HW240877   3.872   0.008   1.571 -2.2829  0.9751  0.4869
13269SOL     OW40878   1.751   6.022   2.572 -0.1706 -0.2303 -0.1051
13269SOL    HW140879   1.675   6.073   2.599  0.1518 -0.0769  0.5433
13269SOL    HW240880   1.739   6.009   2.478 -1.1133 -0.4148  0.0321
13270SOL     OW40881   1.433   7.988   5.514  0.3046 -0.6599  0.1977
13270SOL    HW140882   1.525   7.973   5.490  0.9312  1.3761  1.0717
13270SOL    HW240883   1.422   7.942   5.597  1.0832  0.4340  0.9475
13271SOL     OW40884   4.989   6.492   4.505  0.0549  0.9569  0.3882
13271SOL    HW140885   4.933   6.417   4.523 -2.4434  2.4397 -0.6684
13271SOL    HW240886   5.042   6.465   4.430  1.8747 -0.9401  2.1980
13272SOL     OW40887   0.536   2.356   3.684 -0.4665  0.2948  0.1167
13272SOL    HW140888   0.507   2.361   3.775  0.8369  0.4095  0.5457
13272SOL    HW240889   0.625   2.392   3.685 -0.9517  1.6731 -1.4553
13273SOL     OW40890   2.288   7.550   2.563 -0.1491 -0.2469  0.2359
13273SOL    HW140891   2.288   7.456   2.545 -0.6994 -0.6737  2.2412
13273SOL    HW240892   2.379   7.576   2.552  0.0621 -1.0647 -0.0756
13274SOL     OW40893   3.545   4.740   6.990  0.0065 -0.2401 -0.0618
13274SOL    HW140894   3.588   4.782   6.916  0.8031 -0.2763  0.3677
13274SOL    HW240895   3.565   4.647   6.979 -1.2055 -0.4541 -0.6547
13275SOL     OW40896   2.578   3.522   4.187 -0.1552 -0.4952 -0.0775
13275SOL    HW140897   2.571   3.606   4.231  1.2406 -0.1901 -0.3948
13275SOL    HW240898   2.500   3.517   4.132  0.6115  1.4380 -1.4456
13276SOL     OW40899   3.148   5.578   3.761 -0.1597 -0.4816 -0.3440
13276SOL    HW140900   3.084   5.556   3.693 -0.6654  1.4675 -0.5502
13276SOL    HW240901   3.232   5.548   3.725 -0.5037 -0.0167 -1.5751
13277SOL     OW40902   8.074   6.290   3.093 -0.0258  0.1508 -0.5313
13277SOL    HW140903   8.116   6.337   3.021 -0.5765  2.4305  0.5416
13277SOL    HW240904   8.011   6.233   3.050  0.3101  0.7531 -1.9026
13278SOL     OW40905   4.355   7.285   0.478  0.1001 -0.1826 -0.4720
13278SOL    HW140906   4.422   7.304   0.544 -0.7978  1.5957  0.0080
13278SOL    HW240907   4.343   7.368   0.432 -0.3712 -1.0004 -1.8839
13279SOL     OW40908   0.767   6.486   0.764 -0.0369  0.3027 -0.2177
13279SOL    HW140909   0.823   6.543   0.817 -1.4498  1.1792  0.3906
13279SOL    HW240910   0.801   6.494   0.675  0.4526  1.2491  0.0458
13280SOL     OW40911   6.278   6.587   1.610  0.1028  0.1090  0.2544
13280SOL    HW140912   6.364   6.546   1.611  0.0801  0.0611  0.2391
13280SOL    HW240913   6.293   6.675   1.644  0.4581  0.6856 -1.3246
13281SOL     OW40914   4.302   3.821   7.176  0.0432 -0.6559  0.3762
13281SOL    HW140915   4.213   3.816   7.142 -0.4387 -0.2997  1.5241
13281SOL    HW240916   4.326   3.914   7.169 -0.1397 -0.5431  1.1722
13282SOL     OW40917   5.280   1.072   4.488  0.9409  0.3588  0.2565
13282SOL    HW140918   5.347   1.095   4.423  1.8499  0.3862  1.1775
13282SOL    HW240919   5.232   1.154   4.503  1.5155  0.6574  0.5026
13283SOL     OW40920   0.905   0.985   2.926 -0.3093 -0.5031  0.6352
13283SOL    HW140921   0.891   0.899   2.967  2.1673 -1.7700 -0.9023
13283SOL    HW240922   0.920   0.965   2.834 -0.2275  1.6710  0.1239
13284SOL     OW40923   4.256   5.949   1.278 -0.1662 -0.1131 -0.6694
13284SOL    HW140924   4.169   5.929   1.313  0.4722 -3.5723 -0.7107
13284SOL    HW240925   4.240   5.966   1.185 -1.0210  2.0049 -0.2043
13285SOL     OW40926   2.173   1.266   4.613 -0.4838 -0.0508 -0.1893
13285SOL    HW140927   2.200   1.357   4.603 -2.3106  0.2555 -4.5069
13285SOL    HW240928   2.100   1.269   4.675  1.0439  0.9319  1.6719
13286SOL     OW40929   8.112   5.836   5.823  0.7829  0.1362  0.1231
13286SOL    HW140930   8.128   5.765   5.885  0.0648  0.1212  0.2972
13286SOL    HW240931   8.124   5.916   5.873  1.3275  0.1429 -0.0080
13287SOL     OW40932   3.116   2.164   3.746  0.1047  0.4630  0.4207
13287SOL    HW140933   3.210   2.149   3.737  0.1789  1.7236 -1.6564
13287SOL    HW240934   3.110   2.252   3.783 -0.2276  0.7266 -0.2426
13288SOL     OW40935   1.189   5.788   4.681 -0.1435  0.3032 -0.2863
13288SOL    HW140936   1.121   5.721   4.677 -0.5130  0.6746 -0.2402
13288SOL    HW240937   1.271   5.740   4.666 -0.5583  0.0946 -2.0613
13289SOL     OW40938   7.177   3.732   5.536  0.0745 -0.3791 -0.2945
13289SOL    HW140939   7.272   3.740   5.531  0.2172 -2.2773 -2.7890
13289SOL    HW240940   7.162   3.673   5.610  0.8143 -0.0380  0.1380
13290SOL     OW40941   2.736   7.443   3.406 -0.0696  0.1976  0.1583
13290SOL    HW140942   2.733   7.469   3.498  0.0450 -0.6011  0.3916
13290SOL    HW240943   2.830   7.437   3.386 -0.0761 -1.4410  0.5198
13291SOL     OW40944   3.109   4.417   6.254  0.7777  0.2176  0.1319
13291SOL    HW140945   3.089   4.380   6.168 -1.2074  1.1706  0.1275
13291SOL    HW240946   3.204   4.412   6.261  0.8170 -2.0778 -1.0896
13292SOL     OW40947   5.595   2.663   2.330 -0.0394 -0.3336 -0.2769
13292SOL    HW140948   5.523   2.642   2.270 -0.9311 -1.1468  1.0484
13292SOL    HW240949   5.555   2.669   2.416  1.2619  0.6024  0.3083
13293SOL     OW40950   6.884   4.523   1.209  0.2891  0.1818  0.3121
13293SOL    HW140951   6.930   4.565   1.137  1.8907 -1.0396  0.5765
13293SOL    HW240952   6.817   4.469   1.167  1.0084 -0.2769 -0.2653
13294SOL     OW40953   7.507   5.961   4.725 -0.2240 -0.1407  0.2085
13294SOL    HW140954   7.576   5.931   4.666  1.9618  3.0862  0.8455
13294SOL    HW240955   7.438   5.895   4.716  3.0187 -3.9190 -0.1381
13295SOL     OW40956   6.693   7.445   2.597  0.4438  0.2949 -0.7128
13295SOL    HW140957   6.656   7.395   2.524 -0.5910 -0.1413  0.0868
13295SOL    HW240958   6.787   7.448   2.579  0.2750 -0.3030 -1.7593
13296SOL     OW40959   5.585   5.302   3.922 -0.3173 -0.0757 -0.4598
13296SOL    HW140960   5.592   5.226   3.864  1.2263 -0.4992  0.2099
13296SOL    HW240961   5.493   5.327   3.918 -0.4910 -0.8542 -2.1033
13297SOL     OW40962   2.016   0.472   5.176  0.4239 -0.0115  0.2454
13297SOL    HW140963   2.053   0.386   5.156 -2.5738 -1.4465  0.3731
13297SOL    HW240964   1.941   0.481   5.116 -0.4011  1.7305  1.4329
13298SOL     OW40965   1.571   0.348   2.634  0.5097  0.3776 -0.5382
13298SOL    HW140966   1.628   0.272   2.646 -1.6615 -1.4021 -0.9316
13298SOL    HW240967   1.566   0.359   2.540  1.2401  1.4142 -0.4786
13299SOL     OW40968   3.013   1.162   3.868  0.7342  0.3391  0.1715
13299SOL    HW140969   3.050   1.075   3.883  1.4438  0.1501 -2.2204
13299SOL    HW240970   2.922   1.146   3.843  0.8713  0.2514 -0.2923
13300SOL     OW40971   6.630   5.924   2.626  0.2128 -0.0143  0.4721
13300SOL    HW140972   6.546   5.966   2.646  0.5362  1.7154 -1.4597
13300SOL    HW240973   6.696   5.988   2.652  1.0934 -1.7275  2.8640
13301SOL     OW40974   1.454   6.985   2.578 -0.0130  0.5891 -0.0241
13301SOL    HW140975   1.388   6.922   2.547  0.6460  0.5619 -1.4913
13301SOL    HW240976   1.475   7.037   2.500  0.2442  1.9181  0.9100
13302SOL     OW40977   7.131   1.921   6.405 -0.0888  0.1814 -0.3512
13302SOL    HW140978   7.048   1.904   6.451  0.0158  0.6667  0.0263
13302SOL    HW240979   7.184   1.969   6.469 -0.1475  1.3537 -1.1522
13303SOL     OW40980   3.945   3.342   2.954  0.3175 -0.0240  0.2634
13303SOL    HW140981   4.033   3.349   2.991  0.2997  1.1766  0.1187
13303SOL    HW240982   3.895   3.412   2.997 -0.0532  0.5523 -1.0332
13304SOL     OW40983   7.273   0.040   5.016 -0.2517 -0.3295  0.3479
13304SOL    HW140984   7.236   0.114   5.065 -1.7614 -1.6259  1.2744
13304SOL    HW240985   7.216  -0.034   5.038  1.9504 -2.0928  0.4683
13305SOL     OW40986   2.255   1.547   3.462  0.0435 -0.6279  0.2929
13305SOL    HW140987   2.223   1.484   3.526  0.5762 -1.3489 -0.1212
13305SOL    HW240988   2.272   1.494   3.384  0.1149  0.1061 -0.1991
13306SOL     OW40989   4.838   7.186   1.288  0.1161 -0.2213  0.1860
13306SOL    HW140990   4.908   7.251   1.285  0.4127 -0.5813 -1.6624
13306SOL    HW240991   4.829   7.165   1.381  1.4288  0.9261  0.6066
13307SOL     OW40992   4.177   2.277   2.074  0.5699 -0.1124 -0.0169
13307SOL    HW140993   4.169   2.318   2.160 -0.1800 -0.3089  0.0197
13307SOL    HW240994   4.097   2.224   2.066  0.1147  0.7233 -1.2717
13308SOL     OW40995   0.437   3.447   1.058  0.0731  0.4084 -0.2853
13308SOL    HW140996   0.408   3.356   1.057  1.7639 -0.2111 -2.7286
13308SOL    HW240997   0.401   3.484   0.977 -0.8703  2.0505  0.8362
13309SOL     OW40998   2.344   6.518   0.047 -0.3598  0.4179  0.0973
13309SOL    HW140999   2.324   6.527  -0.046 -2.3151  0.5506  0.5029
13309SOL    HW241000   2.364   6.425   0.058  2.7766  0.8392 -0.9198
13310SOL     OW41001   5.116   3.734   8.052 -0.7249 -0.3913  0.0220
13310SOL    HW141002   5.119   3.642   8.080 -1.3229  0.1211  1.8821
13310SOL    HW241003   5.107   3.783   8.133  2.2832  1.5216 -0.6604
13311SOL     OW41004   4.765   6.557   4.246 -0.0447  0.8503  0.1855
13311SOL    HW141005   4.848   6.605   4.250  0.0076  0.9102 -1.2888
13311SOL    HW241006   4.698   6.625   4.246 -0.1592  0.7905  1.9998
13312SOL     OW41007   6.989   4.411   1.443  0.0501 -0.0689  0.8141
13312SOL    HW141008   6.961   4.450   1.360  1.1046 -1.3645 -0.2099
13312SOL    HW241009   6.909   4.372   1.479 -0.3956  0.3759  0.3209
13313SOL     OW41010   2.588   7.802   2.551 -0.4526 -0.0262  0.2773
13313SOL    HW141011   2.575   7.714   2.517 -1.9306  0.0016  0.7291
13313SOL    HW241012   2.582   7.793   2.646  1.0764  0.3148  0.4393
13314SOL     OW41013   5.363   7.610   2.469 -0.2026  0.0664 -0.0987
13314SOL    HW141014   5.342   7.680   2.407 -1.4731 -0.3259 -0.1266
13314SOL    HW241015   5.303   7.625   2.543  0.4869 -0.1704  0.5215
13315SOL     OW41016   0.127   3.646   6.222 -0.5267  0.3165 -0.5371
13315SOL    HW141017   0.085   3.666   6.305 -1.2141  0.0477 -0.8126
13315SOL    HW241018   0.058   3.604   6.169  0.1323 -0.3016 -0.9321
13316SOL     OW41019   7.067   6.887   2.991  0.1062  0.0765  0.2012
13316SOL    HW141020   7.080   6.857   3.081 -0.0758 -0.3574  0.0847
13316SOL    HW241021   7.004   6.959   2.998 -0.6230 -0.5678  0.3259
13317SOL     OW41022   5.742   1.665   3.581  0.1185  0.0077 -0.1109
13317SOL    HW141023   5.742   1.642   3.674 -1.4382  0.9843  0.1698
13317SOL    HW241024   5.654   1.643   3.551 -0.0793  1.6183 -0.8219
13318SOL     OW41025   8.058   4.858   6.179  0.0674 -0.0677  0.0870
13318SOL    HW141026   8.041   4.778   6.131  0.0608 -0.4017  0.6365
13318SOL    HW241027   7.986   4.917   6.155 -0.3637 -0.5056  0.2841
13319SOL     OW41028   3.221   4.050   2.341 -0.0771 -0.1779 -0.5490
13319SOL    HW141029   3.229   3.959   2.368  0.9428 -0.3575 -1.3962
13319SOL    HW241030   3.311   4.079   2.326 -0.4260  0.7891 -0.8555
13320SOL     OW41031   4.851   4.044   4.262 -0.2702  0.1110 -0.5447
13320SOL    HW141032   4.789   4.099   4.311  0.6408 -0.4492  1.3549
13320SOL    HW241033   4.912   4.106   4.223  0.9580  0.5638  1.8663
13321SOL     OW41034   2.197   5.948   2.368  0.5479 -0.7284 -0.2772
13321SOL    HW141035   2.272   5.905   2.409  0.6598  0.7694  1.2141
13321SOL    HW241036   2.236   6.011   2.307  0.5206 -0.0995  0.3416
13322SOL     OW41037   3.607   6.125   0.719 -0.2908 -0.3028  0.1083
13322SOL    HW141038   3.595   6.061   0.789  0.4977  0.0887  0.6206
13322SOL    HW241039   3.697   6.112   0.690 -0.7536 -0.7827 -1.1755
13323SOL     OW41040   5.425   0.209   3.980  1.1110 -0.1277 -0.4054
13323SOL    HW141041   5.478   0.150   3.926  0.0112  0.7982 -2.6016
13323SOL    HW241042   5.385   0.269   3.918 -0.8546  0.5330  1.3864
13324SOL     OW41043   4.692   5.900   0.858  0.0572 -0.3424 -0.0703
13324SOL    HW141044   4.696   5.805   0.872  0.9158 -0.7915 -2.8456
13324SOL    HW241045   4.781   5.924   0.833  0.0478  1.3906  1.3806
13325SOL     OW41046   7.691   4.662   7.073  0.3971  0.2298  0.2386
13325SOL    HW141047   7.610   4.706   7.048 -0.5060 -1.2555  0.3995
13325SOL    HW241048   7.684   4.652   7.168  0.5743 -0.2568  0.2038
13326SOL     OW41049   0.905   6.980   0.924 -0.3214 -0.0349  0.1030
13326SOL    HW141050   0.912   6.887   0.903 -0.2044  0.0621 -0.3163
13326SOL    HW241051   0.819   6.989   0.966  0.3897 -0.6042  1.7391
13327SOL     OW41052   0.221   3.884   4.747 -0.0784 -0.4369  0.2049
13327SOL    HW141053   0.247   3.962   4.796  1.2432 -0.5139 -0.3340
13327SOL    HW241054   0.198   3.820   4.815 -1.7642  0.5829  0.6415
13328SOL     OW41055   8.019   1.391   3.859  0.3442  0.2421  0.1839
13328SOL    HW141056   7.960   1.457   3.895 -1.1501 -0.7991 -0.2908
13328SOL    HW241057   7.963   1.317   3.837  1.0716  0.7197 -4.2477
13329SOL     OW41058   5.085   6.917   3.940  0.4228 -0.3259 -0.4523
13329SOL    HW141059   5.023   6.906   4.012  0.7794 -1.3796 -0.2853
13329SOL    HW241060   5.053   6.993   3.891 -1.8412 -1.6836 -1.2312
13330SOL     OW41061   4.181   4.157   6.003  0.4312 -0.4035  0.2447
13330SOL    HW141062   4.137   4.075   5.982 -0.0475  0.0969 -0.7774
13330SOL    HW241063   4.265   4.131   6.042  0.2236 -1.3648  0.0617
13331SOL     OW41064   6.598   5.997   6.194 -0.2067  0.0074  0.0731
13331SOL    HW141065   6.656   6.060   6.237  1.0716 -1.1910  0.1662
13331SOL    HW241066   6.618   6.005   6.101  0.6838 -0.9366  0.1698
13332SOL     OW41067   0.337   3.841   1.474 -0.1463  0.0119  0.3619
13332SOL    HW141068   0.287   3.816   1.397 -1.8321  1.6564  0.8592
13332SOL    HW241069   0.346   3.936   1.467 -0.6991  0.2511  2.3682
13333SOL     OW41070   7.908   2.248   1.936 -0.5304  0.1551 -0.2888
13333SOL    HW141071   7.880   2.293   2.015 -2.3593 -1.4131  0.0429
13333SOL    HW241072   7.920   2.318   1.871  0.9677  1.4624  1.2871
13334SOL     OW41073   7.849   1.694   7.562 -0.0694  0.0722 -0.1310
13334SOL    HW141074   7.761   1.705   7.526 -0.9528 -2.0123  1.1910
13334SOL    HW241075   7.843   1.730   7.651  0.2618 -0.4990  0.1306
13335SOL     OW41076   3.688   5.168   3.416 -0.1865  0.2084 -0.6946
13335SOL    HW141077   3.780   5.186   3.434  0.3261 -0.0945 -2.7392
13335SOL    HW241078   3.657   5.247   3.372 -0.9207  0.2962 -0.0421
13336SOL     OW41079   4.677   6.720   5.981  0.3380 -0.0751 -0.5015
13336SOL    HW141080   4.627   6.671   6.046 -0.3462 -0.3343 -1.2177
13336SOL    HW241081   4.764   6.680   5.982  1.1147  1.4449  1.9477
13337SOL     OW41082   2.738   8.025   2.551  0.0505  0.3741  0.1005
13337SOL    HW141083   2.676   7.953   2.561 -0.3985  0.4776 -1.6932
13337SOL    HW241084   2.815   7.986   2.511 -0.2792  0.9131 -1.0842
13338SOL     OW41085   5.198   7.986   0.464  0.3089  0.4151  0.0556
13338SOL    HW141086   5.234   7.997   0.552  0.6658  0.6791 -0.1174
13338SOL    HW241087   5.263   8.027   0.407  0.7011 -0.8503 -0.4459
13339SOL     OW41088   6.856   6.204   7.462  0.3781 -0.7583  0.1348
13339SOL    HW141089   6.840   6.266   7.392 -0.8111 -1.1359  0.0514
13339SOL    HW241090   6.821   6.121   7.430 -0.3828 -0.8954  1.2241
13340SOL     OW41091   8.114   4.322   4.688 -0.1345 -0.1986  1.1906
13340SOL    HW141092   8.197   4.358   4.659 -0.5792  1.3337  1.7069
13340SOL    HW241093   8.117   4.328   4.784 -1.4397  1.3481  1.1651
13341SOL     OW41094   2.012   6.656   3.180 -0.4596  0.3098 -0.4421
13341SOL    HW141095   2.035   6.714   3.108  0.2647  1.4108  0.6348
13341SOL    HW241096   1.971   6.714   3.245 -0.3207 -0.4953  0.3833
13342SOL     OW41097   6.470   1.258   3.294  0.0265 -0.1159 -0.2191
13342SOL    HW141098   6.526   1.315   3.242 -0.0205 -1.8955 -2.3142
13342SOL    HW241099   6.384   1.301   3.293  0.5706  1.0520  0.4517
13343SOL     OW41100   3.911   6.068   7.930 -0.1091 -0.4056 -0.4242
13343SOL    HW141101   3.920   6.071   7.835 -1.8640  0.1245 -0.6127
13343SOL    HW241102   3.867   5.984   7.947 -0.6823 -0.0610 -0.1792
13344SOL     OW41103   1.509   3.946   2.979  0.0447  0.1166 -0.3130
13344SOL    HW141104   1.435   3.887   2.990 -0.4883  0.8175 -0.1286
13344SOL    HW241105   1.494   4.016   3.043  0.4692  0.6572 -0.8005
13345SOL     OW41106   4.408   5.747   6.306  0.3012 -0.6343 -0.2418
13345SOL    HW141107   4.499   5.761   6.334 -0.4674  0.8204  1.7555
13345SOL    HW241108   4.355   5.784   6.377 -1.8661  0.3504 -2.2490
13346SOL     OW41109   0.077   2.435   6.276 -0.2442  0.1161 -0.1096
13346SOL    HW141110   0.135   2.359   6.279 -0.2505  0.0819 -0.6732
13346SOL    HW241111   0.093   2.481   6.358  1.7901  1.0005 -0.9347
13347SOL     OW41112   6.797   1.707   1.429 -0.5976  0.0510  0.1020
13347SOL    HW141113   6.814   1.701   1.336 -1.3598 -2.1758  0.0646
13347SOL    HW241114   6.709   1.744   1.435 -0.7790 -0.3511 -0.0820
13348SOL     OW41115   2.881   2.707   4.805 -0.4802 -0.2158 -0.4407
13348SOL    HW141116   2.946   2.649   4.846 -0.7768 -0.4351 -0.2739
13348SOL    HW241117   2.898   2.699   4.711  1.0644  1.3020 -0.3366
13349SOL     OW41118   1.306   4.379   5.040 -0.3193 -0.2688 -0.4097
13349SOL    HW141119   1.262   4.444   4.985  0.4452 -0.7733 -1.6496
13349SOL    HW241120   1.392   4.416   5.058  0.0767 -0.8872 -1.0228
13350SOL     OW41121   7.768   3.465   4.758 -0.1274  0.3397  0.4031
13350SOL    HW141122   7.789   3.377   4.726 -0.5978  0.4624 -0.2600
13350SOL    HW241123   7.850   3.513   4.749  0.2282 -0.1279  1.1090
13351SOL     OW41124   1.502   2.589   0.922  0.6288  0.1482  0.4494
13351SOL    HW141125   1.517   2.579   0.828  0.2712  0.9444  0.2993
13351SOL    HW241126   1.544   2.672   0.945 -1.1273  1.0663  0.5367
13352SOL     OW41127   1.889   1.694   5.338 -0.2073  0.3788  0.2376
13352SOL    HW141128   1.961   1.632   5.323  0.2971  0.7442  1.0508
13352SOL    HW241129   1.823   1.642   5.383 -0.3906  0.0807 -0.3658
13353SOL     OW41130   0.185   7.050   4.479  0.1991 -0.1505  0.0306
13353SOL    HW141131   0.155   7.114   4.544  1.4144  0.4137  0.0640
13353SOL    HW241132   0.275   7.075   4.461 -0.3120  0.1216 -2.4082
13354SOL     OW41133   6.584   0.640   2.825  0.8426  0.1868  0.0958
13354SOL    HW141134   6.600   0.711   2.887 -0.2519  0.3760  0.1749
13354SOL    HW241135   6.641   0.569   2.856  0.0762  0.1505  1.5456
13355SOL     OW41136   1.635   1.136   3.830  0.1882 -0.1976  0.1402
13355SOL    HW141137   1.592   1.184   3.901 -1.8206  0.1313 -1.2036
13355SOL    HW241138   1.647   1.047   3.864  3.7485  0.9884  2.5850
13356SOL     OW41139   2.882   4.122   6.310 -0.1761 -0.0640  0.3592
13356SOL    HW141140   2.855   4.182   6.240  1.0116 -1.6293 -1.5644
13356SOL    HW241141   2.800   4.085   6.342 -0.7233 -0.1270 -1.0190
13357SOL     OW41142   5.305   2.617   5.236  0.0677 -0.3782 -0.1644
13357SOL    HW141143   5.359   2.661   5.170  0.8993  0.7943  1.2378
13357SOL    HW241144   5.268   2.542   5.190  0.8261  0.2436 -1.8850
13358SOL     OW41145   2.896   3.740   8.113 -0.3847  0.0260  0.4192
13358SOL    HW141146   2.946   3.739   8.194 -0.7385 -1.0693  0.6441
13358SOL    HW241147   2.912   3.826   8.075  0.0891  0.4047  1.4595
13359SOL     OW41148   7.829   3.703   0.862  0.1292 -0.4524 -0.2578
13359SOL    HW141149   7.905   3.682   0.916  0.7991  0.0297 -0.9942
13359SOL    HW241150   7.850   3.667   0.776  0.0006  0.6210 -0.7516
13360SOL     OW41151   5.508   0.456   6.544  0.2046  0.7039  0.5014
13360SOL    HW141152   5.502   0.517   6.470  0.1418 -0.7901 -0.7810
13360SOL    HW241153   5.417   0.432   6.562  0.3253 -0.3879 -0.2371
13361SOL     OW41154   7.228   7.068   5.874 -0.1879  0.3922 -0.2219
13361SOL    HW141155   7.221   7.147   5.820  1.5842  0.0121 -1.0528
13361SOL    HW241156   7.230   6.996   5.812  0.7849 -0.1321  0.4017
13362SOL     OW41157   4.049   6.616   2.029 -0.3496  0.2163  0.0538
13362SOL    HW141158   4.144   6.625   2.038 -0.3098  0.0266 -0.1759
13362SOL    HW241159   4.019   6.704   2.005 -0.0695 -0.0216 -1.2521
13363SOL     OW41160   2.388   7.213   2.347 -0.2354  0.1773 -0.0771
13363SOL    HW141161   2.478   7.184   2.363 -0.3672 -0.9349 -1.1907
13363SOL    HW241162   2.346   7.211   2.433  0.3277 -1.0288  0.1828
13364SOL     OW41163   4.105   7.021   7.981  0.7241 -0.8334  0.5514
13364SOL    HW141164   4.023   6.973   7.989  0.3052 -0.2696 -0.2199
13364SOL    HW241165   4.168   6.971   8.033 -0.0697 -1.3514  1.0294
13365SOL     OW41166   0.610   2.971   0.015 -0.4076  0.4022 -0.2533
13365SOL    HW141167   0.594   3.003  -0.074  0.9677 -1.9222 -1.4459
13365SOL    HW241168   0.684   3.023   0.046 -0.4846  0.8084 -0.7436
13366SOL     OW41169   4.005   2.841   7.075  0.0422  0.2765 -0.1476
13366SOL    HW141170   4.074   2.866   7.013 -1.0830  2.8115 -0.5293
13366SOL    HW241171   3.985   2.922   7.122 -0.0597 -1.2894  2.6694
13367SOL     OW41172   3.835   3.631   5.905 -0.8059  0.2265 -0.2048
13367SOL    HW141173   3.830   3.686   5.983  2.2733  1.5818 -0.7806
13367SOL    HW241174   3.929   3.624   5.887 -1.3686 -0.1246 -3.7068
13368SOL     OW41175   6.801   1.686   1.141  0.0047  0.0264  0.1338
13368SOL    HW141176   6.752   1.611   1.106 -1.0234  0.1340  1.2614
13368SOL    HW241177   6.813   1.744   1.067  1.1889 -1.4224 -0.8775
13369SOL     OW41178   7.918   6.775   6.055  0.2223  0.2522 -0.0056
13369SOL    HW141179   7.861   6.772   6.131 -0.0797  1.6807 -0.1385
13369SOL    HW241180   7.859   6.767   5.980  0.4665 -0.6539 -0.1157
13370SOL     OW41181   1.814   6.109   4.406  0.5045 -0.4579  0.0717
13370SOL    HW141182   1.725   6.141   4.418 -0.2379 -2.4105  0.0252
13370SOL    HW241183   1.834   6.127   4.314  0.8098  1.4386  0.4572
13371SOL     OW41184   5.210   8.144   5.620  0.2434  0.0477 -0.1261
13371SOL    HW141185   5.236   8.056   5.650  1.2183  0.2438 -0.3472
13371SOL    HW241186   5.174   8.186   5.698  0.2931 -0.3589  0.1215
13372SOL     OW41187   4.626   5.932   1.815 -0.4508  0.0397 -0.3495
13372SOL    HW141188   4.639   5.900   1.904 -2.5811 -0.2258 -0.0616
13372SOL    HW241189   4.611   6.026   1.825 -0.6286  0.0209 -0.4200
13373SOL     OW41190   0.320   2.598   1.237 -0.1841 -0.4860  0.2490
13373SOL    HW141191   0.313   2.508   1.270 -0.1153 -0.6310 -0.1214
13373SOL    HW241192   0.363   2.588   1.151  1.0387  0.0192  0.7817
13374SOL     OW41193   7.179   2.455   5.708 -0.2572  0.8609  0.1782
13374SOL    HW141194   7.083   2.456   5.713 -0.2528 -0.0577  0.6984
13374SOL    HW241195   7.203   2.366   5.734  0.7770  1.2885  0.7310
13375SOL     OW41196   0.876   3.774   2.741  0.2770 -0.4188 -0.2258
13375SOL    HW141197   0.820   3.814   2.807 -0.4194  1.8389 -2.0419
13375SOL    HW241198   0.910   3.695   2.782 -3.2253 -1.2289  1.4357
13376SOL     OW41199   0.556   5.086   2.528  0.4541  0.1536  0.3423
13376SOL    HW141200   0.612   5.143   2.476  0.5484 -1.2521 -1.1553
13376SOL    HW241201   0.467   5.105   2.497  0.2888  0.7754  1.1477
13377SOL     OW41202   7.819   4.403   5.103 -0.3344 -0.0357 -0.4486
13377SOL    HW141203   7.814   4.346   5.180  1.6694 -0.6868 -0.7329
13377SOL    HW241204   7.731   4.402   5.066 -1.2088 -0.1254  1.5329
13378SOL     OW41205   6.049   7.597   7.352 -0.3701  0.0386  0.8161
13378SOL    HW141206   6.126   7.639   7.389 -0.0598  0.3098 -0.0950
13378SOL    HW241207   6.052   7.620   7.259 -1.5489  0.0533  0.7670
13379SOL     OW41208   1.397   8.064   1.137 -0.2962  0.1699 -0.2322
13379SOL    HW141209   1.428   8.030   1.053 -1.3287  0.3599 -0.7118
13379SOL    HW241210   1.343   7.993   1.173  0.7037 -0.1822  0.6139
13380SOL     OW41211   2.449   2.587   2.622  0.3825 -0.1663  0.0447
13380SOL    HW141212   2.431   2.621   2.535  0.8909 -1.1562 -0.4671
13380SOL    HW241213   2.365   2.588   2.667 -0.1040 -0.7295 -0.8517
13381SOL     OW41214   2.038   7.543   4.153  0.2018 -0.8751  0.0030
13381SOL    HW141215   1.999   7.557   4.239 -0.7524  0.1513 -0.5682
13381SOL    HW241216   2.129   7.518   4.171  0.8119  1.8934  1.2740
13382SOL     OW41217   2.439   6.542   0.775  0.1538 -0.2080  0.1688
13382SOL    HW141218   2.465   6.527   0.685 -2.1064 -1.6593 -0.3336
13382SOL    HW241219   2.517   6.521   0.827  0.9107 -1.2905 -1.3376
13383SOL     OW41220   4.259   0.658   6.365 -0.1742  0.5098  0.3966
13383SOL    HW141221   4.303   0.709   6.433  0.3825  0.7834 -0.1496
13383SOL    HW241222   4.193   0.607   6.411 -0.3267  1.2655  1.0407
13384SOL     OW41223   3.409   6.064   5.650 -0.0813  0.1430 -0.0346
13384SOL    HW141224   3.315   6.080   5.656  0.0152  0.5641  0.4805
13384SOL    HW241225   3.423   6.034   5.560 -0.9229 -1.4747  0.3311
13385SOL     OW41226   7.941   5.239   1.431 -0.1641 -0.6431  0.5570
13385SOL    HW141227   7.914   5.236   1.339 -0.4980  1.2728  0.5509
13385SOL    HW241228   7.976   5.327   1.443  0.1633 -0.9610  2.1986
13386SOL     OW41229   5.911   1.277   8.152 -0.3666  0.2724 -0.3951
13386SOL    HW141230   5.933   1.200   8.101 -1.8290 -0.5392  0.1352
13386SOL    HW241231   5.875   1.339   8.088  1.0980  0.6813 -0.8704
13387SOL     OW41232   2.969   0.360   2.553 -0.3540  0.1531 -0.0861
13387SOL    HW141233   2.891   0.360   2.609  0.8256  0.5125  1.6460
13387SOL    HW241234   3.039   0.327   2.610  1.1367  1.5436 -1.0272
13388SOL     OW41235   0.526   0.695   4.910 -0.2334  0.0751  0.0959
13388SOL    HW141236   0.608   0.743   4.901 -0.0367 -0.5298 -1.7781
13388SOL    HW241237   0.486   0.700   4.823 -0.9807 -1.7207  0.3018
13389SOL     OW41238   0.469   2.270   5.640  0.1432  0.6730  0.1255
13389SOL    HW141239   0.486   2.293   5.731  1.3351 -0.4785  0.2173
13389SOL    HW241240   0.400   2.331   5.612  0.8976  2.1180  1.3055
13390SOL     OW41241   4.247   7.943   4.536 -0.3389  0.4329  0.4429
13390SOL    HW141242   4.160   7.938   4.498  0.4755 -0.9371 -1.4148
13390SOL    HW241243   4.273   8.034   4.525 -1.5414  0.8797  1.1169
13391SOL     OW41244   0.491   7.182   7.642 -0.0836 -0.0200 -0.3348
13391SOL    HW141245   0.532   7.098   7.660  0.1165 -0.0957 -1.1136
13391SOL    HW241246   0.453   7.209   7.726 -1.3346 -1.5200 -0.3926
13392SOL     OW41247   1.492   4.925   1.340  0.1745 -0.1527 -0.1614
13392SOL    HW141248   1.450   4.868   1.276  0.4404 -0.6616  0.1145
13392SOL    HW241249   1.489   4.876   1.422  0.9498 -0.0326 -0.0546
13393SOL     OW41250   2.342   0.318   0.900 -0.5984  0.0208 -0.1925
13393SOL    HW141251   2.396   0.291   0.974 -0.2775 -0.3256 -0.5501
13393SOL    HW241252   2.380   0.402   0.872 -0.6202  0.0732 -0.0653
13394SOL     OW41253   3.819   3.606   1.901  0.0884 -0.5720 -0.3312
13394SOL    HW141254   3.811   3.530   1.959 -0.6786 -0.7249 -0.6227
13394SOL    HW241255   3.845   3.569   1.816 -2.2306 -0.7803 -1.0241
13395SOL     OW41256   6.838   3.204   2.318  0.0831 -0.0463  0.1390
13395SOL    HW141257   6.862   3.267   2.250  1.9875  2.0466  2.5586
13395SOL    HW241258   6.893   3.128   2.300 -1.2756 -0.6117 -2.0392
13396SOL     OW41259   2.382   0.976   7.779  0.0694  0.6500 -0.2074
13396SOL    HW141260   2.391   0.999   7.687 -0.1325 -0.7591 -0.6069
13396SOL    HW241261   2.295   0.938   7.787  1.7432 -3.9193 -0.6130
13397SOL     OW41262   4.713   7.933   6.824 -0.0587 -0.4128 -0.0022
13397SOL    HW141263   4.747   8.022   6.812 -0.5213 -0.4660 -2.2101
13397SOL    HW241264   4.760   7.899   6.899  2.1903  0.7547 -0.7941
13398SOL     OW41265   1.652   1.523   2.682  0.5371 -0.7748  0.2235
13398SOL    HW141266   1.625   1.493   2.595 -1.9905 -0.0305  0.6591
13398SOL    HW241267   1.705   1.601   2.665  0.8946 -1.1993 -0.6645
13399SOL     OW41268   0.186   7.147   7.786  0.0794 -1.0044  0.0934
13399SOL    HW141269   0.160   7.230   7.825 -0.3591 -1.6034  1.1466
13399SOL    HW241270   0.230   7.101   7.858  0.6673 -1.5247 -0.5875
13400SOL     OW41271   6.107   1.611   7.818 -0.0477 -0.0115 -0.1229
13400SOL    HW141272   6.165   1.591   7.745 -0.8701 -0.0868 -0.7677
13400SOL    HW241273   6.048   1.678   7.784  0.0113  0.4801  0.7025
13401SOL     OW41274   4.232   1.268   1.080 -0.2712 -0.3898  0.5642
13401SOL    HW141275   4.161   1.239   1.023 -0.6453  2.1777 -0.4086
13401SOL    HW241276   4.238   1.200   1.147 -5.0333  0.1862  1.9477
13402SOL     OW41277   1.971   1.068   0.948 -0.2751  0.2831  0.2990
13402SOL    HW141278   2.044   1.059   1.009  1.2835  0.0009 -1.4973
13402SOL    HW241279   1.965   1.162   0.930 -2.0037  0.6146  2.2607
13403SOL     OW41280   4.357   6.207   3.616 -0.3882 -0.6560  0.5071
13403SOL    HW141281   4.442   6.169   3.639  0.0159 -0.4679 -0.5830
13403SOL    HW241282   4.307   6.133   3.582  0.0568 -0.4235 -0.7079
13404SOL     OW41283   1.066   7.598   4.768  0.2509  0.1378  0.2192
13404SOL    HW141284   1.104   7.679   4.802  0.2470 -0.4035  1.6046
13404SOL    HW241285   0.972   7.617   4.762  0.1223 -0.0095  1.4003
13405SOL     OW41286   5.872   4.794   5.234 -0.1091 -0.3402  0.4488
13405SOL    HW141287   5.818   4.716   5.229  0.2570 -0.5217 -1.3177
13405SOL    HW241288   5.810   4.867   5.227 -0.2022 -0.5437 -1.2491
13406SOL     OW41289   0.510   2.269   6.773 -0.2364 -0.1280  0.6018
13406SOL    HW141290   0.527   2.176   6.759 -0.8660 -0.2317  0.4653
13406SOL    HW241291   0.417   2.273   6.795 -0.4623  0.5697 -0.3891
13407SOL     OW41292   1.411   5.219   1.529  0.0140 -0.0331  0.3250
13407SOL    HW141293   1.355   5.227   1.606  1.1622  1.8923  1.0284
13407SOL    HW241294   1.420   5.308   1.496  0.8797 -0.5988 -1.0684
13408SOL     OW41295   2.629   4.909   5.695  0.3781  0.0200 -0.0607
13408SOL    HW141296   2.580   4.892   5.775  2.4835 -1.5757  1.0108
13408SOL    HW241297   2.562   4.924   5.629 -1.4657  0.2434  1.7514
13409SOL     OW41298   4.528   6.579   6.162  0.0810  0.0141  0.2749
13409SOL    HW141299   4.493   6.630   6.235  0.3945 -0.1879  0.5705
13409SOL    HW241300   4.502   6.489   6.181 -0.7128  0.0889 -0.3867
13410SOL     OW41301   3.730   7.174   3.127 -0.2541 -0.0541  0.2877
13410SOL    HW141302   3.695   7.159   3.040  3.9357 -0.8974 -1.4775
13410SOL    HW241303   3.750   7.268   3.129 -0.0604 -0.0926  0.1998
13411SOL     OW41304   0.127   6.206   1.143 -0.7790 -0.6180 -0.0121
13411SOL    HW141305   0.063   6.143   1.175  0.3986 -1.0122  1.7406
13411SOL    HW241306   0.212   6.165   1.162  0.0118  0.4515 -1.0710
13412SOL     OW41307   2.637   5.551   0.394 -0.5159 -0.2534 -0.9024
13412SOL    HW141308   2.612   5.641   0.374 -0.9938 -0.0910  0.3862
13412SOL    HW241309   2.733   5.553   0.395 -0.3491  1.3867  3.6384
13413SOL     OW41310   6.699   3.078   0.566  0.3504 -0.5747 -0.0717
13413SOL    HW141311   6.690   3.028   0.485  1.2126 -0.3123 -0.3436
13413SOL    HW241312   6.688   3.013   0.635 -0.0208 -0.8695 -0.4000
13414SOL     OW41313   5.054   1.585   3.495 -0.1639 -0.2225  0.0398
13414SOL    HW141314   4.994   1.659   3.504 -0.1171 -0.3118  1.1547
13414SOL    HW241315   5.050   1.540   3.579  2.0710  0.2186  0.4421
13415SOL     OW41316   6.563   2.777   3.929 -0.1004 -0.1266 -0.6067
13415SOL    HW141317   6.534   2.743   4.014 -0.1454  1.6466  0.1295
13415SOL    HW241318   6.483   2.787   3.878 -0.0288 -1.6284 -1.0554
13416SOL     OW41319   5.502   7.985   5.495  0.4089  0.0240  0.6107
13416SOL    HW141320   5.558   8.052   5.456 -0.3731  0.4504  0.2076
13416SOL    HW241321   5.487   7.922   5.423 -1.4972  1.1011  0.0039
13417SOL     OW41322   4.893   2.797   7.062 -0.0605  0.2229 -0.2722
13417SOL    HW141323   4.946   2.788   6.983 -1.0315 -0.0264 -0.9138
13417SOL    HW241324   4.821   2.735   7.050  1.0542 -1.6869  1.9187
13418SOL     OW41325   3.722   2.686   5.858  0.2108 -0.4276 -0.3175
13418SOL    HW141326   3.786   2.615   5.845  2.1565  1.3317 -0.9284
13418SOL    HW241327   3.760   2.739   5.928 -1.6439 -0.4212  0.7197
13419SOL     OW41328   5.430   6.174   5.677 -0.0442  0.8585 -0.2487
13419SOL    HW141329   5.484   6.133   5.610  0.5774 -1.9990  1.8233
13419SOL    HW241330   5.347   6.125   5.675 -0.9981  2.4040 -0.5591
13420SOL     OW41331   5.093   1.182   7.225 -0.5381 -0.7609  0.2517
13420SOL    HW141332   5.022   1.119   7.221 -1.2801  0.0901 -0.5430
13420SOL    HW241333   5.114   1.201   7.134 -0.6633  0.4781  0.4559
13421SOL     OW41334   1.597   8.049   4.839 -0.8051  0.0014  0.0073
13421SOL    HW141335   1.510   8.087   4.828 -1.4037 -0.8970  1.3906
13421SOL    HW241336   1.588   7.959   4.807 -1.0292 -0.8027  2.1736
13422SOL     OW41337   3.381   6.588   6.543 -0.1755 -0.0500  0.2613
13422SOL    HW141338   3.409   6.497   6.547 -1.2644 -0.4678 -0.9987
13422SOL    HW241339   3.302   6.586   6.489  0.4105  1.7986 -0.7223
13423SOL     OW41340   2.075   5.788   6.529 -0.2891  0.2411  0.7291
13423SOL    HW141341   2.136   5.769   6.458 -0.7068  2.4596 -0.3170
13423SOL    HW241342   2.019   5.710   6.535  1.3521 -1.0069  0.3772
13424SOL     OW41343   6.484   7.090   3.571  0.5063 -0.7200 -0.0966
13424SOL    HW141344   6.492   7.007   3.524  1.1003 -0.7562  0.0652
13424SOL    HW241345   6.553   7.145   3.535 -0.3654 -0.0284 -0.7371
13425SOL     OW41346   6.721   2.090   6.271  0.8961 -0.1161 -0.3279
13425SOL    HW141347   6.742   1.997   6.282  0.4566 -0.0829  1.0148
13425SOL    HW241348   6.762   2.133   6.346 -2.4969  0.1421  1.5705
13426SOL     OW41349   6.895   4.949   5.399 -0.1386  0.1984  0.4688
13426SOL    HW141350   6.835   4.941   5.473  1.0023  0.8074  1.5016
13426SOL    HW241351   6.898   4.862   5.360 -2.7257  0.4425 -0.4942
13427SOL     OW41352   0.552   6.142   6.728  0.2738  0.4402  0.2383
13427SOL    HW141353   0.531   6.057   6.691  0.1596 -0.0537  1.3900
13427SOL    HW241354   0.600   6.188   6.659  1.0987 -0.8816 -0.1010
13428SOL     OW41355   3.710   8.026   3.419  0.0550 -0.2347  0.2794
13428SOL    HW141356   3.711   8.103   3.363 -1.0574 -2.0170 -2.4286
13428SOL    HW241357   3.802   7.999   3.424  0.2355  0.2694 -0.2372
13429SOL     OW41358   0.943   4.561   1.322 -0.1051 -0.8842 -0.8981
13429SOL    HW141359   0.886   4.595   1.252  0.7754 -0.1844 -1.2981
13429SOL    HW241360   1.021   4.615   1.317  0.2175 -1.2172  0.2614
13430SOL     OW41361   1.827   4.325   0.485  0.0462 -1.1465  0.2730
13430SOL    HW141362   1.896   4.322   0.419 -1.1905  0.5344 -1.1941
13430SOL    HW241363   1.751   4.287   0.442 -0.4802 -1.1044  1.1446
13431SOL     OW41364   5.786   3.123   0.305  0.1033 -0.0613 -0.1737
13431SOL    HW141365   5.779   3.152   0.396  0.5250  1.7126 -0.6681
13431SOL    HW241366   5.765   3.030   0.308  1.2278 -0.3091  1.8985
13432SOL     OW41367   0.665   7.963   1.745  0.1167  0.4372  0.1057
13432SOL    HW141368   0.583   7.924   1.774 -0.3965  1.5722  0.2680
13432SOL    HW241369   0.724   7.889   1.733 -0.9768 -0.4204 -0.1914
13433SOL     OW41370   1.928   4.979   3.095 -0.2016 -0.0999  0.3236
13433SOL    HW141371   1.943   4.921   3.020 -1.0679  0.2110 -0.1019
13433SOL    HW241372   2.015   4.990   3.133  0.0511 -1.3057  0.1494
13434SOL     OW41373   3.980   2.638   2.327 -0.4226 -0.1839 -0.0300
13434SOL    HW141374   4.014   2.636   2.237  0.8174 -0.2695  0.4104
13434SOL    HW241375   4.028   2.709   2.369 -2.0001  0.7737  0.2105
13435SOL     OW41376   3.943   0.941   4.470  0.2808  0.7206 -0.5560
13435SOL    HW141377   3.913   0.863   4.518 -2.4879  0.2175 -2.8484
13435SOL    HW241378   4.014   0.908   4.414  1.3527  0.6333  0.7926
13436SOL     OW41379   3.475   2.064   7.855  0.0745  0.3896  0.3024
13436SOL    HW141380   3.446   2.097   7.940  1.0459  0.1433  0.7413
13436SOL    HW241381   3.482   1.969   7.868  1.3716  0.4723  0.3099
13437SOL     OW41382   3.156   6.941   7.380 -0.4672  0.2241 -0.0746
13437SOL    HW141383   3.168   6.974   7.291 -1.9953  0.2774 -0.2976
13437SOL    HW241384   3.221   6.987   7.432  1.2533 -0.6737 -1.3341
13438SOL     OW41385   2.021   7.571   0.682 -0.4025  0.2241 -0.1048
13438SOL    HW141386   2.046   7.572   0.589 -1.7562  0.6655 -0.5011
13438SOL    HW241387   1.956   7.501   0.688  0.1613 -0.2377  0.6543
13439SOL     OW41388   1.849   3.074   1.007  0.0869 -0.3580 -0.1315
13439SOL    HW141389   1.794   3.048   0.932 -0.0339 -1.3506  0.2818
13439SOL    HW241390   1.792   3.066   1.083 -0.4292  2.6839 -0.0911
13440SOL     OW41391   3.152   5.791   2.700 -0.3889  0.8685  0.0074
13440SOL    HW141392   3.245   5.812   2.708  0.2495 -1.4072 -0.6263
13440SOL    HW241393   3.148   5.730   2.627 -2.4723  1.2392 -0.2535
13441SOL     OW41394   2.294   0.618   2.421  0.0217 -0.1004 -0.0461
13441SOL    HW141395   2.316   0.667   2.342 -0.8233 -0.0339 -0.2478
13441SOL    HW241396   2.360   0.645   2.485  1.2146 -0.7700 -0.9489
13442SOL     OW41397   3.740   7.601   0.881 -0.4293  0.8777  0.2491
13442SOL    HW141398   3.709   7.598   0.791  0.5974  0.0487 -0.0956
13442SOL    HW241399   3.836   7.603   0.873 -0.2907 -0.4174  1.3295
13443SOL     OW41400   7.967   3.332   3.286 -0.1435  0.1232 -0.0861
13443SOL    HW141401   7.907   3.403   3.311 -1.3126 -0.8842  0.0677
13443SOL    HW241402   7.994   3.293   3.369  0.9442  0.7063 -0.1405
13444SOL     OW41403   6.448   1.956   4.568  0.2335 -0.3077  0.0984
13444SOL    HW141404   6.523   1.911   4.529  0.1814 -0.3902  0.0920
13444SOL    HW241405   6.377   1.942   4.506  0.7042  1.5188 -0.9482
13445SOL     OW41406   2.368   7.774   0.901  0.1582  0.7561 -0.8284
13445SOL    HW141407   2.414   7.855   0.877  1.2598  0.2563 -0.4427
13445SOL    HW241408   2.409   7.706   0.847 -1.3552  0.5755 -1.8012
13446SOL     OW41409   0.707   5.684   1.485 -0.1091  0.4665  1.4321
13446SOL    HW141410   0.702   5.774   1.517 -0.9959  0.2459  1.9471
13446SOL    HW241411   0.658   5.633   1.550 -0.9222 -0.1637  0.3427
13447SOL     OW41412   4.187   2.018   0.506  0.2476 -0.6350  0.0495
13447SOL    HW141413   4.248   1.966   0.559  0.5187 -0.8916 -0.5127
13447SOL    HW241414   4.119   1.956   0.479  0.6175 -0.7265 -0.6935
13448SOL     OW41415   7.055   0.050   3.577 -0.1414 -0.1562  0.2807
13448SOL    HW141416   7.037   0.054   3.671 -1.7413  0.9300 -0.0245
13448SOL    HW241417   7.077   0.140   3.552  0.1026 -0.3979 -0.4047
13449SOL     OW41418   0.756   0.080   1.628 -0.2494  0.1472 -0.2526
13449SOL    HW141419   0.839   0.093   1.674 -0.5791 -0.8098  0.6700
13449SOL    HW241420   0.729  -0.009   1.652 -1.8675  0.6723  0.0276
13450SOL     OW41421   7.207   6.222   1.839 -0.3425 -0.3810 -0.3863
13450SOL    HW141422   7.260   6.210   1.918  0.1386 -1.2880 -0.8228
13450SOL    HW241423   7.208   6.316   1.822  0.4664 -0.3055  0.0623
13451SOL     OW41424   0.092   5.419   4.362  0.3700 -0.7635 -0.2609
13451SOL    HW141425   0.139   5.478   4.303  0.8291 -0.4272  0.4298
13451SOL    HW241426   0.078   5.340   4.310  0.8741 -0.5186 -0.7855
13452SOL     OW41427   1.580   1.320   7.461 -0.1007  0.1483  0.0263
13452SOL    HW141428   1.617   1.245   7.415 -0.0264  0.2895 -0.1473
13452SOL    HW241429   1.589   1.298   7.553  1.6706  0.7382  0.0472
13453SOL     OW41430   3.575   4.892   4.889 -0.0777  0.0317  0.0773
13453SOL    HW141431   3.648   4.831   4.896  0.9869  1.3205  0.4813
13453SOL    HW241432   3.609   4.975   4.921 -1.8943  0.5332  0.8800
13454SOL     OW41433   7.710   1.218   2.593 -0.1608 -0.2850  0.0121
13454SOL    HW141434   7.652   1.267   2.651 -0.6155 -0.6709 -0.1069
13454SOL    HW241435   7.674   1.233   2.505  1.8025  2.1363 -0.5092
13455SOL     OW41436   0.918   2.312   4.517 -0.4987 -0.0001 -0.5064
13455SOL    HW141437   0.992   2.371   4.532 -1.2886  1.2499 -1.4108
13455SOL    HW241438   0.845   2.370   4.497 -1.3420 -1.2842 -1.2422
13456SOL     OW41439   4.398   7.322   7.100  0.3766  0.2235 -0.5338
13456SOL    HW141440   4.343   7.244   7.105 -0.4622  0.8935  1.7267
13456SOL    HW241441   4.409   7.337   7.006 -3.4756  0.0986 -1.1779
13457SOL     OW41442   5.105   5.369   5.042 -0.2251  0.2075  0.4336
13457SOL    HW141443   5.086   5.276   5.033 -1.8998  0.5759 -0.1930
13457SOL    HW241444   5.201   5.374   5.041 -0.0954 -1.5453  1.1308
13458SOL     OW41445   0.986   1.443   0.305  0.2860  0.0651  0.1724
13458SOL    HW141446   0.994   1.532   0.272  0.7887 -0.1881 -0.4070
13458SOL    HW241447   0.905   1.410   0.266  0.2250  0.1902  0.1948
13459SOL     OW41448   0.965   1.278   0.534 -0.0107 -0.2907 -0.4515
13459SOL    HW141449   1.012   1.258   0.453 -0.5311 -0.1259 -0.7905
13459SOL    HW241450   0.915   1.356   0.515 -0.8708 -0.7863 -0.2640
13460SOL     OW41451   6.839   6.256   4.262 -0.6758  0.3122  0.2198
13460SOL    HW141452   6.922   6.298   4.284 -1.2287  1.1529  0.7631
13460SOL    HW241453   6.827   6.275   4.169  0.4730 -1.1412 -0.2607
13461SOL     OW41454   4.891   3.066   3.361  0.1770  0.2920 -0.7406
13461SOL    HW141455   4.863   2.984   3.402 -1.1581  0.7794 -0.6220
13461SOL    HW241456   4.876   3.053   3.268  0.3458  0.2631 -0.7644
13462SOL     OW41457   5.568   2.409   4.026 -0.1992  0.4021  0.1530
13462SOL    HW141458   5.608   2.496   4.023 -1.1971  0.8721 -0.2186
13462SOL    HW241459   5.639   2.350   4.051  0.8343  1.1216 -0.9841
13463SOL     OW41460   6.134   0.921   0.591 -0.4685  0.0171  0.0673
13463SOL    HW141461   6.173   0.918   0.503 -1.7990 -0.7127 -0.5198
13463SOL    HW241462   6.200   0.966   0.645  1.8126 -2.3028 -0.5754
13464SOL     OW41463   0.802   6.326   3.461 -0.0544  0.2647 -0.3912
13464SOL    HW141464   0.855   6.252   3.431  0.2052  0.2467  0.0919
13464SOL    HW241465   0.822   6.396   3.399 -0.6126 -0.1886 -1.0886
13465SOL     OW41466   5.674   1.512   4.192  0.4051  0.6175  0.2592
13465SOL    HW141467   5.635   1.503   4.279 -0.9428  1.6554 -0.2071
13465SOL    HW241468   5.673   1.423   4.156  0.6996  0.2307  1.1710
13466SOL     OW41469   4.417   2.335   0.687  0.5059 -0.0953 -0.0797
13466SOL    HW141470   4.330   2.347   0.723  1.1656  3.0505  0.7160
13466SOL    HW241471   4.407   2.351   0.593  0.2098  0.1592 -0.0063
13467SOL     OW41472   3.995   3.162   2.337  0.5784  0.2945 -0.3042
13467SOL    HW141473   3.928   3.093   2.339  0.3651  0.4412  3.1045
13467SOL    HW241474   4.072   3.122   2.377  1.2855  1.3314 -0.5940
13468SOL     OW41475   4.843   1.877   5.651 -0.1598  0.0803  0.2411
13468SOL    HW141476   4.852   1.790   5.614  3.5902 -0.3935  1.8197
13468SOL    HW241477   4.850   1.864   5.746 -0.8238  1.9751  0.6065
13469SOL     OW41478   3.003   8.007   5.379  0.4363  0.5524  0.3755
13469SOL    HW141479   3.044   8.029   5.295 -1.1960  0.9745 -0.3411
13469SOL    HW241480   3.074   8.017   5.443  1.9817 -0.7680 -1.0369
13470SOL     OW41481   2.882   0.626   4.308 -0.4301  0.0284 -0.1355
13470SOL    HW141482   2.964   0.672   4.324 -0.8489  0.3656  1.1988
13470SOL    HW241483   2.897   0.537   4.340 -0.4264 -0.0532 -0.3620
13471SOL     OW41484   4.417   5.664   5.200 -0.0105  0.1026 -0.6116
13471SOL    HW141485   4.368   5.735   5.160  0.7839  0.5453 -0.8286
13471SOL    HW241486   4.507   5.697   5.207 -0.0205 -0.1111  1.1456
13472SOL     OW41487   1.169   7.186   4.537  0.1107  0.1641 -0.0866
13472SOL    HW141488   1.179   7.150   4.449  0.1004 -0.2587  0.0871
13472SOL    HW241489   1.170   7.281   4.524 -0.2375  0.1028 -0.5843
13473SOL     OW41490   1.729   2.796   0.511 -0.1120  0.1364 -0.5570
13473SOL    HW141491   1.730   2.767   0.420  0.6447  0.9175 -0.8061
13473SOL    HW241492   1.681   2.879   0.510  0.5988  0.5608 -0.3835
13474SOL     OW41493   3.092   7.035   2.607 -0.5668  0.1325  0.0817
13474SOL    HW141494   3.167   6.978   2.588 -1.7466 -1.5839  0.3961
13474SOL    HW241495   3.105   7.111   2.549  1.8927  0.3616  0.7957
13475SOL     OW41496   6.575   4.586   1.245 -0.2496  0.4625 -0.4437
13475SOL    HW141497   6.545   4.607   1.334  0.3945 -1.8762  0.4062
13475SOL    HW241498   6.643   4.650   1.227 -0.3016  0.9069  0.8089
13476SOL     OW41499   7.087   4.844   1.188  0.0018  0.5514  0.3543
13476SOL    HW141500   7.049   4.830   1.275  0.0334  0.9324  0.4292
13476SOL    HW241501   7.179   4.820   1.198 -0.3258 -1.0104  0.0141
13477SOL     OW41502   1.947   0.385   7.074 -0.1880 -0.1814  0.8364
13477SOL    HW141503   1.883   0.359   7.008 -1.0416  0.5963  1.3297
13477SOL    HW241504   1.983   0.468   7.041  1.1515 -0.9852  0.1856
13478SOL     OW41505   8.116   4.707   7.076  0.4372  0.6506 -0.4108
13478SOL    HW141506   8.050   4.744   7.017  1.3327  0.3765 -1.6195
13478SOL    HW241507   8.147   4.629   7.032 -1.4725 -1.7476  2.1168
13479SOL     OW41508   4.320   0.551   4.826 -0.3290  0.7741 -0.4993
13479SOL    HW141509   4.330   0.628   4.770 -0.9994  0.8175 -0.5592
13479SOL    HW241510   4.226   0.537   4.832 -0.2495  0.5869  0.3829
13480SOL     OW41511   0.458   2.288   4.308 -0.0367  0.0794 -0.0484
13480SOL    HW141512   0.371   2.319   4.281  0.8184  2.6218 -0.2089
13480SOL    HW241513   0.504   2.272   4.226  0.0174 -0.1102  0.0186
13481SOL     OW41514   2.232   0.275   5.138 -0.0938  0.5659  0.9654
13481SOL    HW141515   2.195   0.196   5.177 -1.6251 -0.4284 -2.1581
13481SOL    HW241516   2.326   0.268   5.155 -0.2172 -1.7674  1.0880
13482SOL     OW41517   5.476   6.484   6.230 -0.2362  0.8951  0.0294
13482SOL    HW141518   5.431   6.559   6.270  1.4127  0.8303  2.1234
13482SOL    HW241519   5.408   6.416   6.225 -0.8840  1.4137  1.3214
13483SOL     OW41520   5.914   1.241   0.774  0.2322 -0.7832 -0.0273
13483SOL    HW141521   5.910   1.234   0.870 -1.5059 -2.0467 -0.1477
13483SOL    HW241522   5.885   1.156   0.742  0.3878 -0.2480 -1.6959
13484SOL     OW41523   7.899   1.850   5.754  0.2570  0.1356  0.3798
13484SOL    HW141524   7.901   1.849   5.658  0.8710  1.5638  0.3529
13484SOL    HW241525   7.984   1.886   5.779  0.2105 -0.4954  1.4808
13485SOL     OW41526   3.114   0.645   5.618 -0.7553 -0.6972 -0.4481
13485SOL    HW141527   3.097   0.617   5.528  0.3000 -1.8955 -0.2993
13485SOL    HW241528   3.190   0.702   5.611  0.1270 -1.7971 -0.2075
13486SOL     OW41529   4.503   6.635   0.914 -0.3889  0.1226 -0.1315
13486SOL    HW141530   4.541   6.697   0.851  0.5232  0.3463  0.6148
13486SOL    HW241531   4.557   6.645   0.992 -0.6400 -1.1617  0.2206
13487SOL     OW41532   6.603   1.508   0.876  0.1481  0.2127 -0.2424
13487SOL    HW141533   6.514   1.488   0.846  1.1959 -1.0191 -2.8560
13487SOL    HW241534   6.634   1.426   0.915  0.6295  0.1444 -0.7477
13488SOL     OW41535   5.215   2.598   6.247  0.0803  0.1976 -0.8501
13488SOL    HW141536   5.265   2.551   6.313 -2.0725 -1.2453 -0.1136
13488SOL    HW241537   5.226   2.690   6.269  3.0886  0.0527 -1.3295
13489SOL     OW41538   3.466   1.807   4.515  0.3282  0.1373 -0.1912
13489SOL    HW141539   3.387   1.782   4.468 -0.6412  0.5699  1.1324
13489SOL    HW241540   3.436   1.825   4.604  2.1283 -1.0253  0.7160
13490SOL     OW41541   7.941   1.589   5.962 -0.0651  0.7677 -0.1381
13490SOL    HW141542   7.928   1.495   5.963  0.6259  0.6667  0.5484
13490SOL    HW241543   8.022   1.601   5.911 -0.1127  0.9819 -0.1646
13491SOL     OW41544   0.393   2.119   7.071  0.7436  0.0236  0.8786
13491SOL    HW141545   0.363   2.108   6.980 -2.4332  1.9244  1.5283
13491SOL    HW241546   0.476   2.070   7.075  1.1978  0.1099 -3.0847
13492SOL     OW41547   2.160   8.078   3.243  0.3173 -0.2436 -0.5762
13492SOL    HW141548   2.089   8.044   3.190  0.7766  0.8511 -1.9469
13492SOL    HW241549   2.226   8.009   3.242 -1.9559 -2.8985  3.6826
13493SOL     OW41550   1.095   7.278   2.278 -0.0920 -0.3361 -0.6741
13493SOL    HW141551   1.072   7.362   2.240 -1.5315 -0.5834 -0.3797
13493SOL    HW241552   1.030   7.263   2.346  1.5968 -0.5578  0.9930
13494SOL     OW41553   7.450   8.132   0.068 -0.1478  0.5114 -0.2599
13494SOL    HW141554   7.519   8.198   0.064  0.3360  0.2379  1.9145
13494SOL    HW241555   7.378   8.174   0.115  0.1589 -0.4257  1.1347
13495SOL     OW41556   2.828   3.211   6.130 -0.3686  0.1279  0.4794
13495SOL    HW141557   2.769   3.156   6.079 -1.0537 -1.0953  2.4814
13495SOL    HW241558   2.799   3.300   6.112 -1.0978 -0.3194 -0.6320
13496SOL     OW41559   5.428   7.779   4.797  0.0915  0.0212  0.9170
13496SOL    HW141560   5.437   7.844   4.867  1.6100  0.6033  0.2200
13496SOL    HW241561   5.344   7.736   4.815 -0.1492  1.0214  2.3544
13497SOL     OW41562   0.521   1.168   6.675 -0.4206 -0.3047  0.0045
13497SOL    HW141563   0.446   1.127   6.631  1.0040 -0.9534 -1.9869
13497SOL    HW241564   0.493   1.258   6.690 -2.2163 -0.9671  0.9192
13498SOL     OW41565   1.593   3.048   0.537  0.2588  0.1208  0.5967
13498SOL    HW141566   1.662   3.098   0.493 -1.5958  1.5738 -0.8026
13498SOL    HW241567   1.527   3.113   0.559 -1.1413 -1.3821  1.0195
13499SOL     OW41568   1.193   1.058   0.788 -0.3701 -0.4724  0.0891
13499SOL    HW141569   1.128   0.997   0.753 -0.9000 -0.6695  1.3664
13499SOL    HW241570   1.183   1.051   0.883  0.5884  0.5079  0.2722
13500SOL     OW41571   2.170   2.026   3.638  0.1965  0.1919 -0.4994
13500SOL    HW141572   2.085   2.021   3.595 -0.2515 -0.3590  0.4126
13500SOL    HW241573   2.160   2.097   3.702  0.8838  1.0714 -1.3392
13501SOL     OW41574   3.519   5.624   2.996 -0.4880  0.7269  0.0148
13501SOL    HW141575   3.577   5.684   2.949 -3.1331  2.0840 -1.7511
13501SOL    HW241576   3.432   5.659   2.981 -2.0634 -2.7986  0.1264
13502SOL     OW41577   0.861   1.874   2.514  0.6546  0.4181 -0.1790
13502SOL    HW141578   0.837   1.783   2.534  1.0887  0.2619 -0.3383
13502SOL    HW241579   0.932   1.866   2.449  0.0216  0.8917 -0.9433
13503SOL     OW41580   4.366   6.671   0.435  0.1233 -0.0570 -0.7011
13503SOL    HW141581   4.410   6.751   0.407  0.2268 -0.1155 -0.7073
13503SOL    HW241582   4.296   6.701   0.493  0.9622 -0.0254  0.3374
13504SOL     OW41583   3.408   3.958   1.917 -0.1702 -0.0418 -0.1945
13504SOL    HW141584   3.458   3.925   1.991  2.2811 -0.1557 -1.7613
13504SOL    HW241585   3.391   3.881   1.863 -2.6621 -0.1014  0.5549
13505SOL     OW41586   4.614   2.850   0.310  0.2122 -0.0104  0.5391
13505SOL    HW141587   4.585   2.895   0.230 -0.1136 -0.8433  0.1806
13505SOL    HW241588   4.696   2.807   0.286 -0.2628 -0.8776  0.4235
13506SOL     OW41589   4.343   1.472   4.637  0.0681  0.7408 -1.0282
13506SOL    HW141590   4.298   1.513   4.710  0.7041  1.3899 -0.9879
13506SOL    HW241591   4.434   1.502   4.644  0.2067  0.5663 -1.8992
13507SOL     OW41592   4.659   6.941   4.550  0.3730  0.2125  0.6886
13507SOL    HW141593   4.722   6.883   4.506 -0.2464  0.4821 -0.5922
13507SOL    HW241594   4.703   7.026   4.551 -0.0365  0.4567 -0.4235
13508SOL     OW41595   3.291   0.250   2.636  0.2445 -0.1959 -0.5479
13508SOL    HW141596   3.248   0.328   2.670  1.5451 -0.3723  1.7684
13508SOL    HW241597   3.290   0.261   2.541 -2.2454  1.1459 -0.4489
13509SOL     OW41598   7.796   5.859   7.953  0.6873  0.1939  0.3900
13509SOL    HW141599   7.777   5.928   7.889  2.1366  0.0499 -0.2217
13509SOL    HW241600   7.883   5.881   7.988  0.6780 -0.7049  1.0187
13510SOL     OW41601   0.996   6.849   4.258 -0.3786 -0.1752  0.4127
13510SOL    HW141602   1.024   6.773   4.207  0.4687  0.4852 -0.1295
13510SOL    HW241603   1.075   6.901   4.270 -0.5558 -0.3132  2.4426
13511SOL     OW41604   0.304   0.344   3.638  0.2716  0.2601 -0.3299
13511SOL    HW141605   0.312   0.341   3.543 -0.6265 -0.9085 -0.3827
13511SOL    HW241606   0.353   0.423   3.663  1.0313  0.2559 -1.6896
13512SOL     OW41607   0.526   5.979   3.809  0.3051  0.0130 -0.6978
13512SOL    HW141608   0.522   5.891   3.773  1.2070 -0.9437  1.3316
13512SOL    HW241609   0.593   5.973   3.878 -0.6711  1.8807  0.5098
13513SOL     OW41610   4.123   5.044   2.360  0.5070 -0.0460  0.6547
13513SOL    HW141611   4.101   4.971   2.303 -0.3906  0.7807 -0.0734
13513SOL    HW241612   4.213   5.067   2.336  0.2555  0.0730 -0.1724
13514SOL     OW41613   2.684   4.940   3.180 -0.1050 -0.3057 -0.5763
13514SOL    HW141614   2.718   4.989   3.255 -1.4073 -0.0632 -0.1141
13514SOL    HW241615   2.755   4.882   3.155  0.6435  0.1906  0.3393
13515SOL     OW41616   0.329   2.334   1.294  0.4563 -0.5883 -0.1934
13515SOL    HW141617   0.279   2.289   1.363  1.6664  0.2246  1.2520
13515SOL    HW241618   0.401   2.274   1.273  1.3586  0.1021  0.8531
13516SOL     OW41619   5.550   7.443   0.855 -0.0762  0.5575 -0.1601
13516SOL    HW141620   5.566   7.405   0.769  2.9141 -1.7847  1.2598
13516SOL    HW241621   5.470   7.399   0.886  1.6441 -2.6487  0.2038
13517SOL     OW41622   4.570   1.030   6.388 -0.4990  0.6582 -0.1169
13517SOL    HW141623   4.599   1.043   6.298 -0.5673 -0.2987 -0.2842
13517SOL    HW241624   4.646   0.991   6.432 -0.9689 -0.3437 -0.1605
13518SOL     OW41625   6.815   0.252   6.118 -0.3512 -0.3925 -0.5793
13518SOL    HW141626   6.837   0.199   6.195 -1.0020  0.1586  0.0042
13518SOL    HW241627   6.780   0.333   6.155  2.8862  1.5290 -1.3925
13519SOL     OW41628   6.161   6.855   1.038 -0.4745  0.3355  0.0389
13519SOL    HW141629   6.185   6.805   1.116  1.4390  0.3719 -0.4831
13519SOL    HW241630   6.116   6.933   1.073 -1.1489 -0.4574  0.9927
13520SOL     OW41631   5.021   2.779   3.084 -0.4581 -0.4361  0.2301
13520SOL    HW141632   4.992   2.869   3.069  2.4944  0.5786  0.1114
13520SOL    HW241633   5.043   2.747   2.996  0.4578 -0.5222  0.4830
13521SOL     OW41634   4.578   4.441   3.387 -0.2232 -0.2281  0.8923
13521SOL    HW141635   4.615   4.384   3.454  0.4707 -0.6920  0.1470
13521SOL    HW241636   4.562   4.524   3.431  1.7210 -0.0054  1.2782
13522SOL     OW41637   4.646   5.297   3.598 -0.0690  0.5052 -0.1406
13522SOL    HW141638   4.636   5.373   3.656  4.7828  0.9860  0.4634
13522SOL    HW241639   4.663   5.224   3.657  2.4280  0.5093 -0.7364
13523SOL     OW41640   0.518   0.501   6.829 -0.2054  0.2074  0.0378
13523SOL    HW141641   0.602   0.538   6.803 -0.1559  0.2055  0.1985
13523SOL    HW241642   0.521   0.498   6.924 -1.5633  3.0240  0.2630
13524SOL     OW41643   6.374   7.466   1.284  0.1407 -0.4128  0.3828
13524SOL    HW141644   6.426   7.541   1.253  1.9340 -2.8744 -3.2578
13524SOL    HW241645   6.290   7.504   1.307  1.1855  2.8260 -0.5390
13525SOL     OW41646   5.012   1.948   0.018  0.0430  0.0558 -0.3416
13525SOL    HW141647   5.084   1.966   0.078 -2.2364  1.7616  2.1747
13525SOL    HW241648   4.972   2.033   0.003 -0.5529 -0.6074 -2.9420
13526SOL     OW41649   7.539   5.450   5.355 -0.0793 -1.0196 -0.0261
13526SOL    HW141650   7.607   5.427   5.418 -0.2577 -0.9429  0.1944
13526SOL    HW241651   7.457   5.442   5.404 -0.0852  1.3552  0.4425
13527SOL     OW41652   2.861   3.020   2.613  0.2671 -0.0447 -0.0060
13527SOL    HW141653   2.855   2.927   2.637 -0.4022  0.2132  0.8930
13527SOL    HW241654   2.939   3.025   2.558 -0.5269 -1.3922 -1.3495
13528SOL     OW41655   2.717   7.216   7.340  0.6128  0.2620 -0.3884
13528SOL    HW141656   2.731   7.261   7.423 -2.3079  2.6997 -0.9961
13528SOL    HW241657   2.645   7.155   7.358 -0.8625  1.6462 -1.2318
13529SOL     OW41658   2.750   6.568   4.609 -0.2993  0.6312  0.2257
13529SOL    HW141659   2.738   6.475   4.591  2.2962  0.2816 -0.0517
13529SOL    HW241660   2.707   6.612   4.536 -0.6452 -0.3734 -0.2001
13530SOL     OW41661   7.316   6.783   1.753  0.1382  0.8971 -0.5522
13530SOL    HW141662   7.340   6.792   1.660  2.6108 -0.5775 -0.1520
13530SOL    HW241663   7.221   6.776   1.753  0.1131  0.2467 -3.0555
13531SOL     OW41664   7.715   6.262   0.262  0.5939  0.3641  0.0077
13531SOL    HW141665   7.723   6.338   0.320  1.8985  0.9000 -0.8220
13531SOL    HW241666   7.641   6.213   0.297  1.1847  0.7856  1.9821
13532SOL     OW41667   4.871   1.053   4.841 -0.2793  0.5043 -0.2542
13532SOL    HW141668   4.876   1.148   4.827 -1.4425  0.5164 -0.7956
13532SOL    HW241669   4.780   1.038   4.866  0.1474 -0.3626  0.8279
13533SOL     OW41670   2.922   0.022   1.696 -0.8613 -0.7179 -0.8342
13533SOL    HW141671   2.839   0.063   1.672 -0.6993 -1.1763 -2.3225
13533SOL    HW241672   2.960  -0.007   1.612 -0.0256 -2.0733 -0.0429
13534SOL     OW41673   6.480   3.622   0.438 -0.5579  0.2428 -0.9347
13534SOL    HW141674   6.557   3.601   0.385 -0.1000 -0.5597 -0.0066
13534SOL    HW241675   6.487   3.716   0.454  2.2692 -0.2789  2.0569
13535SOL     OW41676   6.253   4.429   8.156  0.2316  0.0693 -0.3522
13535SOL    HW141677   6.303   4.412   8.076  1.3546 -1.6484  0.6541
13535SOL    HW241678   6.167   4.390   8.139  1.5379 -3.5034  0.4432
13536SOL     OW41679   6.108   6.054   3.842  0.1987  0.5237 -0.1207
13536SOL    HW141680   6.186   6.039   3.788  0.6855  0.1751  0.6577
13536SOL    HW241681   6.042   5.995   3.805  0.1246  1.1955 -1.1128
13537SOL     OW41682   7.165   5.893   6.373  0.2915 -0.7739  0.0912
13537SOL    HW141683   7.241   5.925   6.325 -0.2422 -0.3856 -0.5106
13537SOL    HW241684   7.202   5.841   6.444  1.1098 -0.9033 -0.4116
13538SOL     OW41685   0.449   2.319   1.643 -0.3978 -0.5150  0.2465
13538SOL    HW141686   0.372   2.267   1.618 -1.4710  1.3988 -0.6679
13538SOL    HW241687   0.505   2.317   1.566 -1.1726  0.9049 -0.3909
13539SOL     OW41688   1.942   1.944   6.292 -0.4866  0.0972  0.0352
13539SOL    HW141689   1.963   1.920   6.382 -0.0651  1.0891  0.2063
13539SOL    HW241690   1.859   1.991   6.297 -0.0869  0.8085 -0.0033
13540SOL     OW41691   1.412   0.378   1.289 -0.5119 -0.0631 -0.4216
13540SOL    HW141692   1.330   0.362   1.244 -0.5543 -0.9337 -0.0555
13540SOL    HW241693   1.387   0.421   1.371 -0.6535 -0.8010 -0.0720
13541SOL     OW41694   6.634   2.722   4.626 -0.2040  0.1232  0.2281
13541SOL    HW141695   6.601   2.754   4.542  0.2307  0.6759  0.2626
13541SOL    HW241696   6.729   2.732   4.621 -0.0608 -0.9816  0.3254
13542SOL     OW41697   5.868   1.006   5.863  0.1764  0.7632 -0.3207
13542SOL    HW141698   5.777   1.008   5.834  1.0113 -0.5880 -3.5497
13542SOL    HW241699   5.907   0.933   5.814  2.4461 -0.4549  2.9419
13543SOL     OW41700   4.866   6.168   2.014  0.2589  0.0805 -0.4054
13543SOL    HW141701   4.851   6.182   2.107  0.1603  2.0822 -0.6804
13543SOL    HW241702   4.854   6.074   2.001 -1.1006 -0.0255  1.3466
13544SOL     OW41703   7.453   2.070   3.967  0.1435 -0.2613  0.4194
13544SOL    HW141704   7.383   2.130   3.991  0.7929  0.4118  0.6626
13544SOL    HW241705   7.408   1.997   3.923 -0.6427  0.4153  0.0766
13545SOL     OW41706   6.643   2.165   3.289  0.0133 -0.1391  0.0000
13545SOL    HW141707   6.737   2.157   3.306 -0.1426 -1.3288  0.3732
13545SOL    HW241708   6.620   2.087   3.240 -1.1272 -0.8521  1.5691
13546SOL     OW41709   1.041   2.120   2.004 -0.3542 -0.0244 -0.5226
13546SOL    HW141710   1.065   2.163   1.923  0.0082 -0.1023 -0.4558
13546SOL    HW241711   0.966   2.171   2.037  0.5047  0.9822 -0.0805
13547SOL     OW41712   4.575   0.996   5.105 -0.5595  0.3442 -0.2673
13547SOL    HW141713   4.519   1.073   5.097 -0.7755  0.1740 -0.4175
13547SOL    HW241714   4.599   0.974   5.015  1.4721  1.6549 -0.1075
13548SOL     OW41715   4.426   2.691   0.870 -0.0101 -0.0100  0.4864
13548SOL    HW141716   4.337   2.676   0.839  0.4073 -2.2037  0.1373
13548SOL    HW241717   4.468   2.741   0.800 -0.4942 -0.4548 -0.1341
13549SOL     OW41718   1.174   6.815   7.730  0.7275 -0.5786  0.0701
13549SOL    HW141719   1.087   6.834   7.695  0.5079  0.4775  1.1323
13549SOL    HW241720   1.197   6.892   7.781  1.7139 -1.4022  0.9226
13550SOL     OW41721   3.742   3.731   3.642  0.5516  0.3861 -0.1479
13550SOL    HW141722   3.671   3.787   3.672  1.1579  1.6361 -0.9630
13550SOL    HW241723   3.791   3.708   3.721 -1.8338 -2.1824  0.7627
13551SOL     OW41724   4.288   4.618   6.270 -0.0845  0.0637  1.1609
13551SOL    HW141725   4.357   4.681   6.251  0.4998 -0.2526  2.1590
13551SOL    HW241726   4.332   4.533   6.268 -0.6568 -0.2295  0.8132
13552SOL     OW41727   1.667   7.023   6.807 -0.5064 -0.4252  0.2626
13552SOL    HW141728   1.615   7.038   6.728  1.2674  1.0330 -0.6943
13552SOL    HW241729   1.731   6.957   6.781  0.1947  0.1869  0.4003
13553SOL     OW41730   0.576   4.934   1.911  0.3453  0.2822 -0.2007
13553SOL    HW141731   0.599   4.883   1.833 -0.0067 -0.4860  0.1885
13553SOL    HW241732   0.537   4.870   1.970  0.5411  0.8764  0.5793
13554SOL     OW41733   7.721   7.360   7.668  0.1715  0.2925  0.4629
13554SOL    HW141734   7.730   7.272   7.631  1.8184 -0.1463  1.7839
13554SOL    HW241735   7.810   7.391   7.678 -0.3878  2.5163 -0.7651
13555SOL     OW41736   3.579   1.612   5.953  0.2547 -0.1284 -0.3433
13555SOL    HW141737   3.581   1.695   6.002  0.3324  0.3078 -1.0695
13555SOL    HW241738   3.487   1.588   5.950  0.0984  0.5235 -1.0916
13556SOL     OW41739   5.301   7.003   4.847  0.1391  0.1424 -0.3115
13556SOL    HW141740   5.332   6.997   4.756 -0.5093  1.9724 -0.7104
13556SOL    HW241741   5.273   6.915   4.869 -0.3654 -0.2111 -2.1571
13557SOL     OW41742   3.884   7.637   5.803 -0.7602 -0.4582  0.0061
13557SOL    HW141743   3.850   7.724   5.780 -2.8076 -1.1217  0.2734
13557SOL    HW241744   3.974   7.637   5.770 -1.1488  1.2651 -1.2289
13558SOL     OW41745   4.433   2.927   5.230 -0.4852  0.4605 -0.2273
13558SOL    HW141746   4.486   3.004   5.252 -0.0967 -0.3896  2.0605
13558SOL    HW241747   4.487   2.877   5.169  0.2520  0.8814  0.0690
13559SOL     OW41748   7.205   1.542   7.416  0.3739  0.2190  0.0002
13559SOL    HW141749   7.201   1.616   7.477  1.0046 -0.7329  1.2382
13559SOL    HW241750   7.298   1.519   7.412  0.0333 -1.5000  0.8947
13560SOL     OW41751   4.172   2.158   6.457 -0.1078  0.4426  0.2788
13560SOL    HW141752   4.192   2.215   6.382  0.0292  0.3726  0.2619
13560SOL    HW241753   4.093   2.112   6.432 -0.3470  0.7911  0.3828
13561SOL     OW41754   3.368   7.462   0.925  0.0654 -0.6232  0.1356
13561SOL    HW141755   3.283   7.497   0.951 -1.4618 -1.2961 -3.3506
13561SOL    HW241756   3.370   7.374   0.964 -0.9867 -0.7037  0.0449
13562SOL     OW41757   2.220   2.471   4.467 -0.3400 -0.2622  0.1770
13562SOL    HW141758   2.167   2.444   4.542 -0.1625 -0.2167  0.3203
13562SOL    HW241759   2.158   2.513   4.407 -0.1317  1.7139  1.2640
13563SOL     OW41760   6.834   4.777   2.418 -0.0939 -0.1400 -0.1266
13563SOL    HW141761   6.907   4.783   2.481 -1.5552  0.8032  1.5699
13563SOL    HW241762   6.792   4.694   2.438 -1.4312  0.8124  1.2125
13564SOL     OW41763   7.515   3.655   5.444  0.0890  0.0996 -0.5360
13564SOL    HW141764   7.517   3.751   5.451  1.3918  0.1228 -0.9199
13564SOL    HW241765   7.557   3.625   5.525  1.6806 -0.0525 -1.3687
13565SOL     OW41766   8.008   7.613   6.540  0.4301  0.0749  0.5291
13565SOL    HW141767   8.040   7.655   6.619  0.4475 -0.2163  0.6792
13565SOL    HW241768   8.084   7.564   6.506  0.1108 -0.7524  0.9769
13566SOL     OW41769   6.794   2.692   3.409  0.1266 -0.1513 -0.3097
13566SOL    HW141770   6.814   2.777   3.447 -0.6881 -0.5562  1.0723
13566SOL    HW241771   6.817   2.701   3.316  0.9447  1.2559  0.0117
13567SOL     OW41772   7.132   4.775   1.681 -0.3185 -0.4228 -0.2361
13567SOL    HW141773   7.168   4.791   1.768 -1.2194 -0.9232  0.2427
13567SOL    HW241774   7.204   4.796   1.621  0.2947 -0.0248  0.6186
13568SOL     OW41775   4.908   6.748   3.129 -0.3158 -0.0530  0.2119
13568SOL    HW141776   4.956   6.672   3.097  0.8318  1.1767 -1.1816
13568SOL    HW241777   4.816   6.724   3.123  0.0181 -1.2059 -0.5184
13569SOL     OW41778   2.977   3.376   5.577  0.4670 -0.3679  0.0436
13569SOL    HW141779   2.891   3.364   5.617  0.3302  0.7948  0.1532
13569SOL    HW241780   3.034   3.403   5.649  0.6757 -0.1245 -0.2092
13570SOL     OW41781   7.754   6.013   3.316 -0.2980  0.5451 -0.2332
13570SOL    HW141782   7.699   5.949   3.270  2.3639 -2.6061  0.5840
13570SOL    HW241783   7.707   6.031   3.397 -1.0014 -0.5509 -0.3765
13571SOL     OW41784   4.984   4.405   6.466  0.5456 -0.1894 -0.1465
13571SOL    HW141785   5.072   4.394   6.430  0.7408 -0.9101  0.5248
13571SOL    HW241786   4.974   4.500   6.476  0.9575 -0.0600 -0.9185
13572SOL     OW41787   3.036   6.591   6.065  0.2347 -0.0402 -0.1991
13572SOL    HW141788   2.989   6.529   6.121  0.1404 -0.2200 -0.4704
13572SOL    HW241789   2.967   6.643   6.023  0.2022 -0.9603 -1.3533
13573SOL     OW41790   0.609   1.427   3.279  0.0158 -0.1801  0.3402
13573SOL    HW141791   0.703   1.411   3.267 -0.1774  0.3941 -2.6656
13573SOL    HW241792   0.583   1.366   3.348  2.5235 -0.5541  1.0534
13574SOL     OW41793   0.710   4.996   2.247 -0.7543  0.1888  0.5632
13574SOL    HW141794   0.691   5.073   2.302 -2.5249 -0.3668  0.7919
13574SOL    HW241795   0.795   4.965   2.278 -0.8665  0.9814  1.7240
13575SOL     OW41796   0.209   5.136   7.547 -0.4167  0.2241 -0.2165
13575SOL    HW141797   0.196   5.151   7.454 -0.0572  0.5139 -0.2225
13575SOL    HW241798   0.221   5.223   7.584  0.5097  0.0444 -0.0659
13576SOL     OW41799   4.643   0.258   3.966 -0.1646 -0.4185  0.2414
13576SOL    HW141800   4.606   0.173   3.990  0.1776 -0.4743  0.5657
13576SOL    HW241801   4.717   0.270   4.025  0.5875 -0.4842 -0.6742
13577SOL     OW41802   3.978   2.250   5.990  0.0102 -0.0963 -0.0644
13577SOL    HW141803   3.976   2.212   5.902  0.7060 -0.0375 -0.1141
13577SOL    HW241804   3.889   2.281   6.005 -1.0999 -3.2243  0.6403
13578SOL     OW41805   5.472   1.374   3.305 -0.0943  0.0142 -0.1311
13578SOL    HW141806   5.538   1.433   3.271  0.1528 -1.0740 -1.6074
13578SOL    HW241807   5.402   1.432   3.336  0.2625  1.0834 -1.2545
13579SOL     OW41808   6.763   5.608   1.340 -0.1304  0.1467  0.5824
13579SOL    HW141809   6.703   5.608   1.415 -0.8087  0.4797  0.0547
13579SOL    HW241810   6.776   5.701   1.321  0.2899  0.0649  0.4838
13580SOL     OW41811   0.306   1.109   7.334  0.8839 -0.3158  0.3897
13580SOL    HW141812   0.340   1.167   7.266 -0.8414 -0.7259 -0.9048
13580SOL    HW241813   0.269   1.035   7.286 -1.1781 -0.2030  1.6786
13581SOL     OW41814   2.825   0.086   4.327 -0.2293  0.0349 -0.0643
13581SOL    HW141815   2.800   0.032   4.403  1.1799 -3.4138 -1.8087
13581SOL    HW241816   2.742   0.104   4.282 -0.8021 -0.1596  0.8907
13582SOL     OW41817   3.228   6.374   7.084  0.2662 -0.4839  0.4099
13582SOL    HW141818   3.314   6.400   7.051 -0.7980  2.2355 -0.5068
13582SOL    HW241819   3.202   6.301   7.029  0.9826  0.2341 -0.9142
13583SOL     OW41820   6.017   1.310   1.014  0.4190  0.1456 -0.6187
13583SOL    HW141821   6.113   1.311   1.007  0.3818 -0.0839 -1.1965
13583SOL    HW241822   6.000   1.272   1.100  0.8857  2.3255  0.5057
13584SOL     OW41823   5.507   5.064   0.416  0.3539  0.3673  0.7072
13584SOL    HW141824   5.599   5.079   0.433  0.7640  0.0235 -1.0219
13584SOL    HW241825   5.463   5.086   0.498  1.8943  1.1459  1.3532
13585SOL     OW41826   5.643   2.481   1.714 -0.1546  0.8371  1.0678
13585SOL    HW141827   5.630   2.463   1.807  0.3001  1.1846  1.1994
13585SOL    HW241828   5.680   2.569   1.711 -0.3009  0.8867  0.5489
13586SOL     OW41829   1.598   6.309   5.919  0.5375 -0.2146  0.7102
13586SOL    HW141830   1.582   6.218   5.944 -1.2706  0.0968  0.8505
13586SOL    HW241831   1.552   6.320   5.836 -1.0900  1.0843  1.7145
13587SOL     OW41832   4.276   1.657   7.935  0.7110 -0.7025 -0.2857
13587SOL    HW141833   4.319   1.718   7.876  0.5815 -0.0561  0.2692
13587SOL    HW241834   4.306   1.682   8.022 -1.4759  0.4167  0.2287
13588SOL     OW41835   1.619   3.972   6.777 -0.2463 -0.1592  0.5712
13588SOL    HW141836   1.528   3.962   6.805 -0.3708 -1.3977 -0.1957
13588SOL    HW241837   1.648   3.884   6.756  0.9068  0.3070  0.0950
13589SOL     OW41838   0.314   0.146   5.119 -0.3973  0.3983  0.3733
13589SOL    HW141839   0.267   0.089   5.180 -0.4684  0.3398  0.2637
13589SOL    HW241840   0.402   0.154   5.156  0.1654 -1.2250 -0.5420
13590SOL     OW41841   6.467   3.412   4.748  0.4601 -0.0304  0.2751
13590SOL    HW141842   6.451   3.479   4.815  0.8483  0.0842  0.2540
13590SOL    HW241843   6.381   3.397   4.708  0.5541  1.2206 -0.4437
13591SOL     OW41844   4.558   0.954   3.486  0.0417  0.5822  0.2973
13591SOL    HW141845   4.548   1.018   3.416  1.0829 -0.3567 -0.7591
13591SOL    HW241846   4.562   1.006   3.566 -1.6469  1.6560 -0.2632
13592SOL     OW41847   6.331   6.490   5.729 -0.4648  0.3386 -0.4536
13592SOL    HW141848   6.300   6.553   5.794 -0.5642  0.2195 -0.3840
13592SOL    HW241849   6.253   6.468   5.678 -0.3016  0.7537 -0.8901
13593SOL     OW41850   4.526   7.724   3.514 -0.3619  0.0948 -0.2352
13593SOL    HW141851   4.459   7.753   3.453  0.2749  1.9102 -0.1519
13593SOL    HW241852   4.504   7.768   3.596  1.1282  1.0790 -0.3244
13594SOL     OW41853   1.400   6.091   2.070  0.0848 -0.2762  0.0561
13594SOL    HW141854   1.480   6.039   2.060  0.3986  0.3706 -1.0978
13594SOL    HW241855   1.335   6.047   2.016  0.3608  0.5030 -0.9499
13595SOL     OW41856   7.128   6.248   0.876 -0.0931  0.2558  0.4560
13595SOL    HW141857   7.156   6.297   0.953  1.0608  0.3112  0.0253
13595SOL    HW241858   7.210   6.219   0.835 -0.6877  0.0414 -0.6281
13596SOL     OW41859   6.672   4.583   6.645 -0.0177  0.1696 -0.1505
13596SOL    HW141860   6.719   4.506   6.614  1.7773  0.3772  1.8255
13596SOL    HW241861   6.741   4.647   6.663 -0.7274 -0.0079  4.3071
13597SOL     OW41862   3.413   8.126   4.999  0.0632 -0.1513  0.4759
13597SOL    HW141863   3.374   8.061   4.941 -0.5364  0.5916  0.0374
13597SOL    HW241864   3.451   8.074   5.070  0.6259 -1.0610 -0.4569
13598SOL     OW41865   3.818   6.399   3.153  0.3405  0.6131  0.1552
13598SOL    HW141866   3.749   6.373   3.216 -1.5685  0.3513 -1.9135
13598SOL    HW241867   3.887   6.334   3.165 -1.3711 -1.3701 -0.1491
13599SOL     OW41868   0.080   2.388   4.865  0.2370  0.1811 -0.3046
13599SOL    HW141869   0.009   2.392   4.801 -0.4037 -1.2201  0.2595
13599SOL    HW241870   0.159   2.372   4.813 -0.0044  0.7618 -0.8623
13600SOL     OW41871   8.121   1.379   8.091  0.5413  0.5155  0.5759
13600SOL    HW141872   8.172   1.362   8.171  0.3155 -1.8382  0.2709
13600SOL    HW241873   8.040   1.330   8.103  0.3104  0.5056 -0.9093
13601SOL     OW41874   7.481   6.528   4.423 -0.3189  0.4531  0.3045
13601SOL    HW141875   7.556   6.476   4.391 -1.2237  0.3464 -1.7932
13601SOL    HW241876   7.515   6.573   4.501  2.2537  1.1371 -1.0823
13602SOL     OW41877   3.802   7.754   1.529 -0.2902 -0.1353  0.5015
13602SOL    HW141878   3.745   7.694   1.578 -0.4011 -0.4510 -0.0037
13602SOL    HW241879   3.766   7.754   1.440  0.4668 -0.3035  0.1838
13603SOL     OW41880   0.486   5.175   3.094 -0.3598  0.1801 -0.3566
13603SOL    HW141881   0.484   5.149   3.002 -1.1401  0.6798 -0.4874
13603SOL    HW241882   0.449   5.100   3.141  1.2614 -0.6251 -0.2939
13604SOL     OW41883   1.286   8.006   2.770  0.4317  0.0693  0.0426
13604SOL    HW141884   1.328   8.072   2.716 -1.1814  2.2218  1.2831
13604SOL    HW241885   1.212   8.050   2.810 -0.8025 -2.5389  0.8813
13605SOL     OW41886   8.098   5.977   1.243 -0.8367 -0.2144 -0.0237
13605SOL    HW141887   8.025   5.968   1.305 -0.3636 -1.8329  0.3595
13605SOL    HW241888   8.076   5.918   1.172  0.0471 -0.6517  0.0548
13606SOL     OW41889   7.334   4.040   0.675  0.0827  0.2278 -0.2737
13606SOL    HW141890   7.310   3.997   0.758  0.5684  0.3239 -0.0790
13606SOL    HW241891   7.344   4.132   0.698  1.6082  0.0506 -0.1249
13607SOL     OW41892   1.401   7.755   0.678  0.1869  0.1600  0.5055
13607SOL    HW141893   1.417   7.661   0.688  0.1144  0.1952  0.9737
13607SOL    HW241894   1.317   7.760   0.631 -0.2129 -0.0107  1.1860
13608SOL     OW41895   5.010   4.633   1.117 -0.0745 -0.1583  0.0214
13608SOL    HW141896   5.043   4.547   1.093  0.3380  0.0358 -0.1270
13608SOL    HW241897   4.922   4.617   1.152  0.3728 -0.7564  0.9127
13609SOL     OW41898   0.116   6.254   7.952 -0.0180 -0.5185  0.3060
13609SOL    HW141899   0.100   6.172   7.905 -1.1524  0.3124 -0.8330
13609SOL    HW241900   0.031   6.298   7.953  0.9608  1.5537 -0.9439
13610SOL     OW41901   5.013   7.444   5.856  0.2410 -0.7876  0.2392
13610SOL    HW141902   4.944   7.423   5.793  0.7663 -0.7553 -0.3494
13610SOL    HW241903   5.086   7.476   5.803  0.3849  0.0780  0.9181
13611SOL     OW41904   0.762   3.500   2.518  0.0661  0.0141 -0.2652
13611SOL    HW141905   0.757   3.494   2.614  0.8846 -1.0411 -0.2662
13611SOL    HW241906   0.839   3.554   2.502  0.6215 -0.7755 -0.3185
13612SOL     OW41907   7.834   7.501   0.423 -0.3023 -0.1601  0.0715
13612SOL    HW141908   7.882   7.583   0.416  0.2507 -0.4516  0.3326
13612SOL    HW241909   7.869   7.460   0.503 -2.2571  0.4439  1.3180
13613SOL     OW41910   5.424   3.053   1.411 -0.1609  0.8210 -0.2721
13613SOL    HW141911   5.475   3.132   1.431  0.4906  0.4090 -0.2694
13613SOL    HW241912   5.388   3.070   1.324  3.4187 -0.4935 -2.2507
13614SOL     OW41913   3.096   1.980   8.104  0.1514  0.1468  0.7425
13614SOL    HW141914   3.066   2.010   8.190  1.1617  1.0384  0.8058
13614SOL    HW241915   3.143   2.054   8.068  0.5622 -0.5446 -0.1821
13615SOL     OW41916   4.656   7.125   2.433  0.1937 -0.1798  0.3888
13615SOL    HW141917   4.625   7.078   2.355 -0.6537 -2.5219  2.0232
13615SOL    HW241918   4.577   7.145   2.482  0.7558  0.8184  0.9187
13616SOL     OW41919   0.902   2.544   6.558 -0.2455  0.9197  0.1717
13616SOL    HW141920   0.991   2.511   6.571 -0.7661 -0.2345  0.9569
13616SOL    HW241921   0.880   2.519   6.468  0.8341  2.7819 -0.6751
13617SOL     OW41922   5.912   4.090   3.632  0.0759  0.1700  0.5306
13617SOL    HW141923   5.921   4.012   3.686 -1.5743 -0.5078 -0.1231
13617SOL    HW241924   5.877   4.058   3.549  0.4645  1.4737 -0.1662
13618SOL     OW41925   3.078   2.398   3.931  0.3045  0.3502  0.2694
13618SOL    HW141926   3.080   2.491   3.912 -1.1018  0.4616  0.5838
13618SOL    HW241927   2.994   2.384   3.975  0.0664 -1.2022 -0.5903
13619SOL     OW41928   2.404   1.640   2.697  0.6599  0.2315 -0.0062
13619SOL    HW141929   2.455   1.574   2.649 -1.3170 -1.4039  0.0163
13619SOL    HW241930   2.365   1.695   2.629  0.6531  0.0825 -0.1239
13620SOL     OW41931   3.793   2.934   6.404 -0.1983 -0.4788 -0.3856
13620SOL    HW141932   3.745   2.870   6.352  0.3440  0.8417 -2.6525
13620SOL    HW241933   3.736   3.011   6.405  0.0594 -0.2941  0.5151
13621SOL     OW41934   1.387   1.496   2.977 -0.4458  0.3024 -0.4041
13621SOL    HW141935   1.451   1.442   2.931 -1.4944 -0.1325 -1.3848
13621SOL    HW241936   1.330   1.530   2.909 -0.6024  1.5956  0.3411
13622SOL     OW41937   5.384   6.058   0.680 -0.5891  0.3447  0.5140
13622SOL    HW141938   5.442   5.991   0.716  0.3450  0.6344 -0.3764
13622SOL    HW241939   5.298   6.017   0.677  0.0421 -0.9974 -0.4033
13623SOL     OW41940   2.055   2.132   1.583 -0.2340 -0.2171  0.7145
13623SOL    HW141941   2.114   2.127   1.508 -0.9398 -1.0663  0.1869
13623SOL    HW241942   2.091   2.070   1.646 -1.0676 -1.4893 -0.0083
13624SOL     OW41943   7.654   0.509   4.868 -0.0974  0.8746 -0.0728
13624SOL    HW141944   7.627   0.431   4.915  0.6404  0.3101 -0.5501
13624SOL    HW241945   7.600   0.510   4.789 -2.0496  2.3704  1.1996
13625SOL     OW41946   1.780   2.336   4.131 -0.1709  0.2094 -1.1789
13625SOL    HW141947   1.776   2.320   4.036  0.3695 -0.7726 -1.0427
13625SOL    HW241948   1.870   2.364   4.146 -0.7529  2.2700 -1.2168
13626SOL     OW41949   6.022   1.084   7.243  0.0845 -0.5764 -0.2288
13626SOL    HW141950   5.937   1.094   7.286  0.4238 -0.5142  0.4446
13626SOL    HW241951   6.033   0.990   7.233  0.1273 -0.6026  0.0721
13627SOL     OW41952   5.159   6.140   7.553  0.4179  0.2314  0.0433
13627SOL    HW141953   5.074   6.103   7.577  0.2624  1.0678  0.8304
13627SOL    HW241954   5.220   6.067   7.563 -0.0193 -0.0596  0.6757
13628SOL     OW41955   3.496   1.254   6.070  0.2458  0.1137 -0.4767
13628SOL    HW141956   3.526   1.274   5.982  0.5818  0.3237 -0.3176
13628SOL    HW241957   3.565   1.288   6.127 -0.3000  0.6007 -0.1004
13629SOL     OW41958   0.105   2.158   8.041  0.3016  0.0449 -0.1573
13629SOL    HW141959   0.105   2.159   8.137  0.4852  0.5388 -0.1607
13629SOL    HW241960   0.194   2.132   8.017  0.5521  0.9413 -0.2006
13630SOL     OW41961   6.945   5.184   3.917  0.2911 -0.3154 -0.4979
13630SOL    HW141962   6.892   5.105   3.926  0.2466 -0.3944 -1.3071
13630SOL    HW241963   7.002   5.184   3.994 -1.1644  0.0061  0.6089
13631SOL     OW41964   7.973   3.060   2.544  0.0147  0.0060 -0.2587
13631SOL    HW141965   7.987   3.137   2.488  0.3076  0.6681  0.6999
13631SOL    HW241966   7.968   3.096   2.633 -0.8441 -0.9793  0.1101
13632SOL     OW41967   4.891   1.792   3.527 -0.1269 -0.2510 -0.1232
13632SOL    HW141968   4.929   1.863   3.580 -0.3561  0.4704 -0.8976
13632SOL    HW241969   4.799   1.791   3.553 -0.3853  0.5458 -0.9560
13633SOL     OW41970   3.839   2.002   4.099  0.0927 -0.2808 -0.0707
13633SOL    HW141971   3.914   1.981   4.155 -0.3819 -1.3986  0.1673
13633SOL    HW241972   3.795   2.074   4.143  1.4023  0.8700 -0.5660
13634SOL     OW41973   6.604   2.010   5.900 -0.2171  0.0292 -0.6941
13634SOL    HW141974   6.522   1.978   5.862  0.2269 -1.1827 -0.6808
13634SOL    HW241975   6.669   1.998   5.831  0.0968  0.2348 -0.4356
13635SOL     OW41976   5.088   7.620   1.653  0.2244  0.2771 -0.4375
13635SOL    HW141977   5.113   7.617   1.561 -0.5259 -0.4454 -0.6341
13635SOL    HW241978   5.018   7.685   1.657 -0.4394 -0.4091 -0.5745
13636SOL     OW41979   1.132   0.934   4.883  0.0583  0.0976  0.6451
13636SOL    HW141980   1.220   0.917   4.915  0.0269 -0.8311  0.2770
13636SOL    HW241981   1.102   0.850   4.849 -0.8626  0.4664  0.5033
13637SOL     OW41982   3.634   2.332   1.873 -0.1160 -0.7275 -0.4239
13637SOL    HW141983   3.550   2.307   1.836 -0.9046 -1.3764  1.6711
13637SOL    HW241984   3.621   2.327   1.968  2.3211 -0.9752 -0.0441
13638SOL     OW41985   3.697   3.361   6.607  0.3094  0.3537 -0.0316
13638SOL    HW141986   3.777   3.345   6.658  0.5824 -3.2908 -1.2573
13638SOL    HW241987   3.728   3.390   6.521  0.3317 -0.5116 -0.3282
13639SOL     OW41988   3.158   4.582   7.224  0.7164 -0.1108 -0.0561
13639SOL    HW141989   3.071   4.617   7.207  0.2588 -0.4589  1.3711
13639SOL    HW241990   3.218   4.652   7.199  0.0033  0.3613 -0.4897
13640SOL     OW41991   3.220   0.640   6.960  0.0834  0.1551 -1.0679
13640SOL    HW141992   3.250   0.728   6.936 -0.4324  0.8956  0.8524
13640SOL    HW241993   3.297   0.599   6.999 -0.4104  0.8636  0.7696
13641SOL     OW41994   4.829   2.664   4.266  0.0536  0.7533 -0.0297
13641SOL    HW141995   4.787   2.579   4.285 -0.2578  0.3006 -2.4621
13641SOL    HW241996   4.758   2.718   4.231  0.5424  1.5682  0.2342
13642SOL     OW41997   1.283   5.823   0.618 -0.2050 -0.4169  0.0677
13642SOL    HW141998   1.251   5.741   0.654 -1.5476  0.6148  1.3558
13642SOL    HW241999   1.375   5.827   0.645 -0.2781 -1.2348  0.4685
13643SOL     OW42000   2.173   7.608   7.344 -0.4351 -0.0552 -0.1274
13643SOL    HW142001   2.213   7.526   7.374  1.1258  1.5014  2.4971
13643SOL    HW242002   2.082   7.585   7.325  0.1675 -2.5418 -0.3494
13644SOL     OW42003   4.654   5.018   4.103  0.6673  0.0106 -0.3682
13644SOL    HW142004   4.695   4.937   4.073  1.3371  0.5648 -0.9786
13644SOL    HW242005   4.711   5.087   4.071  0.5794  0.7039  0.8883
13645SOL     OW42006   0.200   7.039   3.138 -0.2159  0.4871  0.2451
13645SOL    HW142007   0.166   7.128   3.128  0.8805  0.9943  0.8336
13645SOL    HW242008   0.273   7.034   3.076 -0.4882 -0.1248 -0.0342
13646SOL     OW42009   6.197   3.102   6.919  0.2199  0.1731  0.0999
13646SOL    HW142010   6.184   3.099   7.014 -0.8503 -0.3344 -0.0476
13646SOL    HW242011   6.171   3.191   6.894  0.5793  0.3323  0.2842
13647SOL     OW42012   0.358   8.067   3.473 -0.0610  0.2162 -0.1773
13647SOL    HW142013   0.333   7.979   3.445  0.2773  0.2728 -0.6577
13647SOL    HW242014   0.453   8.064   3.480 -0.1371  0.1697  1.0843
13648SOL     OW42015   3.450   2.382   5.686 -0.4214 -0.2630 -0.3569
13648SOL    HW142016   3.536   2.342   5.672  0.2629  0.0804  2.2556
13648SOL    HW242017   3.443   2.449   5.618  1.9313  0.5144  0.0745
13649SOL     OW42018   6.293   3.825   7.028  0.2009  0.6550 -0.1524
13649SOL    HW142019   6.306   3.862   7.115 -1.1636 -1.0743  0.8552
13649SOL    HW242020   6.379   3.795   7.001  0.3138 -0.7885  1.6119
13650SOL     OW42021   6.633   7.794   3.677  0.2843 -0.2204 -0.3051
13650SOL    HW142022   6.646   7.861   3.609 -0.1570  0.4734  0.2882
13650SOL    HW242023   6.565   7.737   3.641 -0.8160  0.8362  0.0484
13651SOL     OW42024   0.590   7.993   7.665 -0.7334 -0.3046 -0.0202
13651SOL    HW142025   0.642   7.919   7.633 -0.8112  0.1829 -1.3649
13651SOL    HW242026   0.648   8.037   7.727  0.3228 -0.0354 -1.1385
13652SOL     OW42027   5.833   3.610   3.418  0.3990 -0.3291 -0.4560
13652SOL    HW142028   5.834   3.540   3.352  0.2764 -0.1260 -0.6754
13652SOL    HW242029   5.849   3.565   3.501 -0.9114 -0.7908 -0.4277
13653SOL     OW42030   1.707   2.795   0.920  0.3356  0.6212 -0.4216
13653SOL    HW142031   1.707   2.878   0.873  3.3612  1.8647  1.4435
13653SOL    HW242032   1.760   2.737   0.865 -0.1997  0.5026 -0.8217
13654SOL     OW42033   6.261   5.531   1.799 -0.6537 -0.1343 -0.4556
13654SOL    HW142034   6.274   5.610   1.747  0.5983 -0.1646 -0.2172
13654SOL    HW242035   6.315   5.545   1.877 -0.4969 -1.1824 -0.3704
13655SOL     OW42036   7.219   6.626   3.142  0.0300 -0.2061 -0.0849
13655SOL    HW142037   7.270   6.564   3.195  0.2493  0.1538  0.1358
13655SOL    HW242038   7.285   6.683   3.103 -0.2143  0.4302  0.4138
13656SOL     OW42039   0.914   5.355   6.008  0.2816 -0.5808  0.0929
13656SOL    HW142040   0.866   5.307   6.076  0.1617  2.1408  2.0704
13656SOL    HW242041   0.996   5.380   6.051  0.3912  0.8313 -0.8845
13657SOL     OW42042   1.400   5.410   6.409  0.6409 -0.3583 -0.3765
13657SOL    HW142043   1.473   5.349   6.417 -0.0566 -1.4566 -1.8456
13657SOL    HW242044   1.352   5.402   6.491  1.2657 -0.8430 -0.0543
13658SOL     OW42045   0.008   4.317   3.475  0.0059  0.5954 -1.1033
13658SOL    HW142046  -0.085   4.301   3.459 -0.0810  0.1695 -0.2299
13658SOL    HW242047   0.012   4.351   3.564  0.7926 -0.6610 -0.6307
13659SOL     OW42048   3.035   4.204   1.649  0.2322 -0.4957  0.4308
13659SOL    HW142049   2.991   4.177   1.730 -1.6252  1.0326  0.0080
13659SOL    HW242050   3.107   4.260   1.679 -1.4957  1.5160  1.0670
13660SOL     OW42051   3.664   7.252   3.741  0.1491 -0.3705  0.3507
13660SOL    HW142052   3.573   7.262   3.711 -0.0488  1.1457  1.2998
13660SOL    HW242053   3.716   7.251   3.661 -0.4911  1.9427 -0.1715
13661SOL     OW42054   1.740   0.620   5.853  0.0095 -0.0560 -0.7056
13661SOL    HW142055   1.747   0.714   5.869 -1.2604 -0.1038  0.2917
13661SOL    HW242056   1.684   0.587   5.924 -0.4535 -1.3835 -1.6329
13662SOL     OW42057   0.487   2.352   7.973 -0.0547  0.1552  0.7433
13662SOL    HW142058   0.400   2.343   7.932 -0.8419  0.1120  2.3499
13662SOL    HW242059   0.471   2.340   8.066  1.3744  2.2825  1.3277
13663SOL     OW42060   2.373   4.052   6.769  0.2577  0.3638 -0.1476
13663SOL    HW142061   2.465   4.026   6.761  0.4681  0.5750  1.3024
13663SOL    HW242062   2.375   4.148   6.763  0.4281  0.5381  1.9648
13664SOL     OW42063   2.141   5.659   6.857  0.2993 -0.4715  0.2866
13664SOL    HW142064   2.129   5.607   6.778 -0.5631 -2.3497  1.5829
13664SOL    HW242065   2.109   5.603   6.928  0.7216  1.2724  1.9405
13665SOL     OW42066   3.017   5.495   5.435  0.3177 -0.4481  0.3596
13665SOL    HW142067   3.022   5.590   5.427 -0.1740 -0.5220 -1.1717
13665SOL    HW242068   3.076   5.462   5.367  0.0643 -1.2356  0.5041
13666SOL     OW42069   1.647   1.829   6.564 -0.1959  0.1725  0.1534
13666SOL    HW142070   1.688   1.800   6.646 -1.1472  0.5409  0.7711
13666SOL    HW242071   1.670   1.921   6.557  1.3569 -0.2543 -0.9176
13667SOL     OW42072   1.621   0.718   1.322 -0.3185  0.1966  0.1856
13667SOL    HW142073   1.559   0.653   1.289 -0.0604  0.3788 -0.6733
13667SOL    HW242074   1.615   0.790   1.260 -0.0396  0.6733  0.7088
13668SOL     OW42075   0.131   7.720   4.491 -0.0294 -0.5406 -0.4173
13668SOL    HW142076   0.173   7.783   4.432 -0.3791  0.8647  0.7835
13668SOL    HW242077   0.135   7.761   4.577 -2.5965 -0.9873 -0.0072
13669SOL     OW42078   1.761   4.615   2.969 -0.1450 -1.3743 -0.0801
13669SOL    HW142079   1.782   4.575   2.885 -0.7150 -2.8992  0.4738
13669SOL    HW242080   1.673   4.583   2.990 -1.2294  1.2734 -0.2208
13670SOL     OW42081   7.882   4.186   7.156  0.4370  0.4800 -0.2616
13670SOL    HW142082   7.801   4.153   7.117  1.4999 -0.0502 -2.1543
13670SOL    HW242083   7.885   4.278   7.132  0.7112  0.3350 -0.8094
13671SOL     OW42084   2.862   2.605   3.488  0.9071 -0.0781  0.4102
13671SOL    HW142085   2.883   2.607   3.395  0.1643  2.6339  0.1999
13671SOL    HW242086   2.912   2.678   3.526  1.3286 -1.2327  2.1877
13672SOL     OW42087   3.312   2.363   6.843  0.0869 -0.4138 -0.3009
13672SOL    HW142088   3.289   2.349   6.751 -1.4246  0.3943 -0.0731
13672SOL    HW242089   3.367   2.441   6.843 -2.6807  1.7075 -0.2730
13673SOL     OW42090   0.057   7.511   6.340 -0.2296  0.5253  0.3818
13673SOL    HW142091   0.125   7.568   6.303 -0.3107  1.5929  1.8011
13673SOL    HW242092   0.012   7.476   6.263  1.5797  0.1913 -0.5721
13674SOL     OW42093   6.771   2.607   4.270  0.1653  0.4729 -0.0026
13674SOL    HW142094   6.810   2.623   4.356  0.5891 -1.0077  0.1106
13674SOL    HW242095   6.777   2.512   4.258 -0.3904  0.5882 -1.4343
13675SOL     OW42096   5.318   7.553   6.914 -0.8288 -1.1431 -0.4520
13675SOL    HW142097   5.262   7.595   6.848 -0.2195 -1.4770 -1.1961
13675SOL    HW242098   5.327   7.618   6.983 -0.2026 -0.1779 -1.4167
13676SOL     OW42099   2.272   4.542   7.897  0.5423 -0.3051 -0.3909
13676SOL    HW142100   2.309   4.622   7.932 -2.0021  0.3488  1.0763
13676SOL    HW242101   2.343   4.502   7.847  2.5119  1.7766  0.5796
13677SOL     OW42102   7.712   4.632   7.328  0.0087 -0.5824  0.2395
13677SOL    HW142103   7.783   4.695   7.340 -0.6221 -0.0756  1.3550
13677SOL    HW242104   7.717   4.575   7.404  0.2590 -1.6016 -0.5139
13678SOL     OW42105   2.592   1.982   3.385 -0.4497 -0.2404 -0.2135
13678SOL    HW142106   2.599   1.960   3.292 -0.0593  0.3462 -0.3220
13678SOL    HW242107   2.556   2.071   3.387  2.1167  0.8736  0.1127
13679SOL     OW42108   8.052   5.855   0.997  0.0905 -0.2075 -0.1020
13679SOL    HW142109   8.032   5.808   0.916  0.6486  0.1316 -0.4422
13679SOL    HW242110   8.114   5.923   0.971 -0.4250  0.4914  0.4467
13680SOL     OW42111   7.130   3.711   7.507  0.5632 -0.6668  0.3269
13680SOL    HW142112   7.215   3.714   7.463  0.8121 -0.4210  0.8211
13680SOL    HW242113   7.147   3.743   7.596 -0.8157  3.9583 -0.7854
13681SOL     OW42114   3.342   7.950   0.887  0.6177 -0.0047 -0.2640
13681SOL    HW142115   3.412   7.996   0.933 -0.2625  1.5817 -0.4533
13681SOL    HW242116   3.383   7.870   0.854  2.5115  1.1761 -0.9095
13682SOL     OW42117   1.307   3.455   4.490 -0.4161  0.5349  0.3326
13682SOL    HW142118   1.333   3.394   4.559  0.1556 -0.2040 -0.4997
13682SOL    HW242119   1.230   3.499   4.525 -0.7291 -0.5229  1.0538
13683SOL     OW42120   1.697   6.078   7.489  0.8110 -0.3727 -0.3317
13683SOL    HW142121   1.767   6.021   7.457  2.2408  0.5772  0.9402
13683SOL    HW242122   1.700   6.068   7.584 -0.4299  0.1313 -0.2191
13684SOL     OW42123   7.787   2.071   7.342 -0.2127 -0.1282  0.3742
13684SOL    HW142124   7.733   2.012   7.395 -0.9338  0.6109  0.4718
13684SOL    HW242125   7.798   2.025   7.259 -3.3038  0.8310 -0.7074
13685SOL     OW42126   6.912   0.298   5.110  0.9374 -0.3867  0.0487
13685SOL    HW142127   6.903   0.287   5.015  1.0292 -2.8124  0.2504
13685SOL    HW242128   6.912   0.393   5.123 -0.4797  0.0070 -2.2214
13686SOL     OW42129   8.138   7.097   2.202 -0.2928  0.4539 -0.1058
13686SOL    HW142130   8.226   7.059   2.197 -0.7658 -1.1553  2.1842
13686SOL    HW242131   8.079   7.024   2.182 -1.1489  0.7106  1.3343
13687SOL     OW42132   2.144   1.813   8.000 -0.0744 -0.1746 -0.4604
13687SOL    HW142133   2.087   1.836   8.073 -0.3527  0.7464 -0.9466
13687SOL    HW242134   2.204   1.747   8.036  1.2668  1.8582  1.2913
13688SOL     OW42135   4.501   7.433   5.899  0.7016  0.0585  0.1773
13688SOL    HW142136   4.559   7.507   5.914  0.7077  0.1546 -0.2812
13688SOL    HW242137   4.548   7.357   5.932  0.3566  0.3632  1.3950
13689SOL     OW42138   5.746   1.076   7.278  0.2187 -0.0740  0.3661
13689SOL    HW142139   5.710   1.045   7.195  1.2892 -1.9320  0.5251
13689SOL    HW242140   5.684   1.045   7.344 -0.1315  0.5583  0.3395
13690SOL     OW42141   1.401   8.052   5.165  0.0046 -0.1086  0.1742
13690SOL    HW142142   1.382   7.963   5.195 -0.0675  0.1796  1.0250
13690SOL    HW242143   1.430   8.098   5.244  1.9726  0.1115 -0.6142
13691SOL     OW42144   1.734   5.287   5.490  0.1694 -0.5198  0.1781
13691SOL    HW142145   1.660   5.325   5.443  1.4109 -0.5135 -1.8787
13691SOL    HW242146   1.771   5.222   5.429  2.8604  0.6723  0.4036
13692SOL     OW42147   5.055   2.165   2.625 -0.2056 -0.1726  0.1780
13692SOL    HW142148   5.042   2.253   2.592 -0.0959 -0.0750  0.3906
13692SOL    HW242149   5.146   2.143   2.603 -0.1097 -0.0801  0.4705
13693SOL     OW42150   5.046   3.361   6.950  0.3475 -0.3796  0.2381
13693SOL    HW142151   5.122   3.347   6.894  1.1795  0.1571  1.2047
13693SOL    HW242152   5.079   3.347   7.039 -0.3792  1.1187  0.7684
13694SOL     OW42153   7.361   3.683   0.386  0.3190  0.0333 -0.5745
13694SOL    HW142154   7.322   3.709   0.469  0.6234  0.1256 -0.4589
13694SOL    HW242155   7.404   3.763   0.354 -0.2343  0.1354 -1.0674
13695SOL     OW42156   2.188   8.088   6.306 -0.3169  0.0998 -0.0316
13695SOL    HW142157   2.282   8.086   6.289 -0.3073  0.2958 -0.0038
13695SOL    HW242158   2.168   8.181   6.322 -0.4025 -0.0235  0.5825
13696SOL     OW42159   1.045   5.070   6.109  0.3491 -0.5643  0.1434
13696SOL    HW142160   1.139   5.061   6.126  0.0044 -1.7658  1.6990
13696SOL    HW242161   1.007   5.087   6.196 -0.7793  1.0574 -0.6094
13697SOL     OW42162   1.292   0.598   5.940 -0.4385  0.1479 -0.1389
13697SOL    HW142163   1.354   0.539   5.897 -0.3974  0.2553 -0.2276
13697SOL    HW242164   1.232   0.540   5.987  0.1513  0.0586  0.5234
13698SOL     OW42165   1.304   2.954   5.916  0.3955  0.5895 -0.1073
13698SOL    HW142166   1.273   2.873   5.957 -1.4015  0.7196 -1.0804
13698SOL    HW242167   1.364   2.925   5.847  0.2248  0.1200 -0.0608
13699SOL     OW42168   7.917   3.722   3.736 -0.2399 -0.0491 -0.2045
13699SOL    HW142169   7.994   3.695   3.785 -0.2651  0.6768  0.2469
13699SOL    HW242170   7.882   3.796   3.785 -0.5062  0.4285 -1.0880
13700SOL     OW42171   0.806   3.914   6.284 -0.5860  0.5979  0.2567
13700SOL    HW142172   0.733   3.868   6.243  0.1772 -1.1147  0.7000
13700SOL    HW242173   0.857   3.948   6.211  0.3878 -1.8261 -0.2925
13701SOL     OW42174   0.131   1.839   1.099 -0.0431  0.2001  0.4780
13701SOL    HW142175   0.217   1.872   1.072  0.3393 -0.0384  1.3650
13701SOL    HW242176   0.087   1.819   1.017  0.1388  1.8203 -0.0524
13702SOL     OW42177   6.212   5.737   3.444  0.0200 -0.0161  0.5848
13702SOL    HW142178   6.194   5.649   3.412  0.8076  0.3467 -0.9086
13702SOL    HW242179   6.132   5.786   3.423  0.0757 -0.0659  0.2519
13703SOL     OW42180   0.970   5.940   0.964 -0.2461 -0.4052  0.1647
13703SOL    HW142181   1.063   5.920   0.981 -0.6287 -1.8720  0.7111
13703SOL    HW242182   0.969   6.033   0.941  0.9360  0.6460  3.7492
13704SOL     OW42183   4.418   2.856   1.463 -0.5945 -0.2458  0.4026
13704SOL    HW142184   4.385   2.846   1.373 -1.9470 -2.1218  1.0514
13704SOL    HW242185   4.471   2.778   1.477 -0.4442  0.0110  1.2673
13705SOL     OW42186   8.072   8.068   6.763 -0.2803 -0.4759 -0.6231
13705SOL    HW142187   8.132   8.140   6.784 -1.1229  0.0068  0.2255
13705SOL    HW242188   7.985   8.108   6.767 -0.6435 -0.7035 -3.5972
13706SOL     OW42189   3.587   6.008   3.890 -0.0872  0.2826  0.2566
13706SOL    HW142190   3.586   5.937   3.954  1.9338  0.0313  0.0607
13706SOL    HW242191   3.564   5.965   3.807 -0.5892  0.2026  0.4332
13707SOL     OW42192   6.725   1.860   4.238 -0.1109 -0.2560 -0.0649
13707SOL    HW142193   6.659   1.929   4.239  0.2453  0.0910 -0.3448
13707SOL    HW242194   6.733   1.833   4.329  1.1205  1.4006  0.3614
13708SOL     OW42195   6.610   5.101   4.384 -0.0013  0.0763  0.2540
13708SOL    HW142196   6.669   5.138   4.318  1.1428 -1.3485  0.4333
13708SOL    HW242197   6.525   5.097   4.340  0.0228  2.0562 -0.0468
13709SOL     OW42198   3.330   5.018   1.710 -0.4338 -0.1013  0.4247
13709SOL    HW142199   3.358   5.095   1.759 -2.2651  0.3686  0.8025
13709SOL    HW242200   3.331   4.947   1.775 -0.6523  0.0316  0.5743
13710SOL     OW42201   3.642   0.804   3.233  0.7932 -0.2197 -0.7873
13710SOL    HW142202   3.624   0.804   3.139  1.0525  1.7872 -0.8903
13710SOL    HW242203   3.736   0.790   3.239  0.7140 -0.7652 -0.8008
13711SOL     OW42204   2.838   3.026   6.994  0.6038  0.0168 -0.1493
13711SOL    HW142205   2.826   3.000   6.903  0.8932  1.8341 -0.7391
13711SOL    HW242206   2.926   2.995   7.016  0.4907 -0.5226 -0.4381
13712SOL     OW42207   1.248   2.392   5.521  0.0719 -0.1348  0.4261
13712SOL    HW142208   1.186   2.458   5.552 -2.0403 -0.3270 -2.8929
13712SOL    HW242209   1.297   2.436   5.451  0.5909 -1.2571  0.0594
13713SOL     OW42210   7.150   0.261   1.010 -0.0676 -0.4473 -0.0798
13713SOL    HW142211   7.057   0.242   1.002 -0.3202 -0.0381  1.5385
13713SOL    HW242212   7.171   0.243   1.101  1.1139  0.8127 -0.0635
13714SOL     OW42213   1.894   6.483   1.271  0.0718 -0.5485 -0.9083
13714SOL    HW142214   1.856   6.402   1.238  1.1902 -1.6829  0.4950
13714SOL    HW242215   1.890   6.476   1.366  4.0176 -0.9525 -0.5843
13715SOL     OW42216   4.559   0.444   6.482  0.3534  0.1716 -0.3419
13715SOL    HW142217   4.641   0.489   6.461  0.2723  0.3273 -0.3312
13715SOL    HW242218   4.525   0.414   6.398  0.1866  0.5191 -0.4041
13716SOL     OW42219   3.026   0.324   5.133  0.3993 -0.3849  0.0584
13716SOL    HW142220   3.028   0.418   5.119 -5.2415  0.1253  0.4147
13716SOL    HW242221   3.082   0.288   5.064  1.7769  3.0886 -0.8587
13717SOL     OW42222   1.517   5.479   1.253 -0.0787 -0.0327  0.4331
13717SOL    HW142223   1.570   5.458   1.330 -1.6026  0.0555  1.5530
13717SOL    HW242224   1.430   5.495   1.288 -0.6239  0.8721 -1.2309
13718SOL     OW42225   1.196   3.524   3.107  0.4463 -0.5913 -0.1149
13718SOL    HW142226   1.267   3.488   3.160  0.2302 -0.7754  0.0572
13718SOL    HW242227   1.116   3.490   3.149  0.2482 -0.1578 -0.1348
13719SOL     OW42228   6.328   0.773   1.098 -0.2932  0.4386  0.1222
13719SOL    HW142229   6.267   0.843   1.076 -1.0611  0.4390  2.0432
13719SOL    HW242230   6.340   0.780   1.193  1.9021 -0.2314 -0.0345
13720SOL     OW42231   7.656   1.434   1.554 -0.1124 -0.1618 -0.1701
13720SOL    HW142232   7.637   1.345   1.583 -2.0125  0.2476 -0.0254
13720SOL    HW242233   7.721   1.466   1.617  0.9236 -1.5543 -0.4804
13721SOL     OW42234   1.721   2.535   3.656 -0.4871  0.6805  0.4199
13721SOL    HW142235   1.809   2.564   3.631 -0.9626  2.5368  0.7368
13721SOL    HW242236   1.671   2.537   3.574 -0.3392 -0.0446  0.3025
13722SOL     OW42237   4.293   3.683   3.238  0.1793 -0.1030 -0.1068
13722SOL    HW142238   4.359   3.741   3.277 -0.4499  1.4518 -1.2452
13722SOL    HW242239   4.245   3.648   3.313  2.0596 -1.0521  0.7338
13723SOL     OW42240   7.103   1.607   3.981  1.0171 -0.0904  0.4481
13723SOL    HW142241   7.013   1.576   3.993  1.0713 -0.4185  0.0199
13723SOL    HW242242   7.107   1.690   4.030  0.7833 -0.6003  1.3604
13724SOL     OW42243   6.026   1.880   6.252  0.2630 -0.1148 -0.0182
13724SOL    HW142244   6.034   1.913   6.342 -0.8215 -0.7531  0.3332
13724SOL    HW242245   5.991   1.791   6.263 -3.6478  1.0741 -1.1368
13725SOL     OW42246   5.439   7.949   2.598  0.5916  0.4140 -0.3353
13725SOL    HW142247   5.441   7.853   2.602  2.4703  0.4258  0.4469
13725SOL    HW242248   5.521   7.973   2.554  1.8639  1.6969  2.4728
13726SOL     OW42249   0.401   0.399   0.097 -0.2311 -0.5387 -0.3133
13726SOL    HW142250   0.446   0.388   0.180  0.1805 -1.8117 -0.6814
13726SOL    HW242251   0.444   0.337   0.038  0.6825  1.5747 -1.9898
13727SOL     OW42252   4.092   6.388   2.207 -0.0502 -0.3586  0.1616
13727SOL    HW142253   4.081   6.395   2.302 -0.8880  0.8247  0.0002
13727SOL    HW242254   4.045   6.464   2.172 -0.2220 -1.0856 -1.2402
13728SOL     OW42255   3.256   1.216   4.500  0.8581  0.8627 -0.2885
13728SOL    HW142256   3.339   1.243   4.461  0.8486 -0.1393 -1.0468
13728SOL    HW242257   3.246   1.124   4.474 -0.0751  0.7216  0.5088
13729SOL     OW42258   4.775   4.674   2.456  0.5697 -0.6153  0.1846
13729SOL    HW142259   4.870   4.662   2.454  0.3199 -2.8606 -0.2835
13729SOL    HW242260   4.743   4.626   2.380 -0.8729  1.2304 -0.4610
13730SOL     OW42261   1.996   5.234   7.055  0.0746  0.4775 -0.5364
13730SOL    HW142262   1.940   5.164   7.088  0.4576  0.5595  0.3107
13730SOL    HW242263   2.002   5.297   7.127 -0.6035  1.6154 -1.4237
13731SOL     OW42264   5.947   5.659   1.045 -0.0290 -0.0969 -0.3488
13731SOL    HW142265   5.874   5.678   1.104 -0.0724 -0.2195 -0.3619
13731SOL    HW242266   5.920   5.580   0.999 -0.1725  0.2271 -0.8272
13732SOL     OW42267   2.957   4.702   7.595  0.5809  0.0378 -0.5669
13732SOL    HW142268   2.915   4.695   7.510  0.0726 -2.9145 -0.1752
13732SOL    HW242269   2.899   4.758   7.647 -0.9806 -1.0454 -1.1149
13733SOL     OW42270   4.702   6.664   4.627 -0.2709 -0.0620  0.1242
13733SOL    HW142271   4.680   6.594   4.566 -0.2808 -0.3710  0.4768
13733SOL    HW242272   4.752   6.727   4.575  0.1403 -0.5547 -0.0873
13734SOL     OW42273   4.114   7.178   5.621 -0.2211 -0.5480 -0.0813
13734SOL    HW142274   4.051   7.117   5.660 -1.1396 -0.5486 -1.4676
13734SOL    HW242275   4.198   7.133   5.628 -0.3670 -0.6276  1.6488
13735SOL     OW42276   5.431   7.199   5.334 -0.2088  0.2614  0.0015
13735SOL    HW142277   5.489   7.162   5.268 -2.2508 -3.0434 -0.1316
13735SOL    HW242278   5.467   7.170   5.418 -0.2212  0.4955  0.0911
13736SOL     OW42279   5.982   4.911   7.783  0.6360 -0.0980 -0.2829
13736SOL    HW142280   6.056   4.953   7.740 -0.2971 -0.3115 -2.2081
13736SOL    HW242281   5.965   4.833   7.730 -0.5372 -0.4203  0.5353
13737SOL     OW42282   2.539   6.520   1.086  0.4433 -0.8337  0.2127
13737SOL    HW142283   2.522   6.607   1.050 -0.3298 -0.1861  2.0684
13737SOL    HW242284   2.590   6.535   1.165 -1.0195 -1.9357  1.4221
13738SOL     OW42285   1.810   3.435   5.047  0.3989 -0.2874  0.2321
13738SOL    HW142286   1.761   3.465   5.123  1.0468 -1.5306  1.1755
13738SOL    HW242287   1.752   3.373   5.003 -0.1425  0.7500 -0.5590
13739SOL     OW42288   2.896   7.543   1.802 -0.4275 -0.2873 -0.2409
13739SOL    HW142289   2.871   7.609   1.737  0.4187  1.7665  1.4094
13739SOL    HW242290   2.917   7.465   1.750 -0.7176  0.9597 -2.3391
13740SOL     OW42291   0.242   4.831   6.026  0.6393 -0.1143  0.5131
13740SOL    HW142292   0.192   4.754   6.053 -0.4642 -0.4205 -2.1175
13740SOL    HW242293   0.333   4.806   6.039  0.2839 -1.7246  0.1236
13741SOL     OW42294   1.219   1.481   0.890 -0.0202 -0.4358  0.1909
13741SOL    HW142295   1.155   1.421   0.851 -0.9350  0.8562 -0.3620
13741SOL    HW242296   1.233   1.548   0.823  1.9671 -0.6867  0.2905
13742SOL     OW42297   5.205   4.855   4.426 -0.1357  0.2633  0.5744
13742SOL    HW142298   5.240   4.943   4.413  0.8563 -0.0220  1.1557
13742SOL    HW242299   5.276   4.797   4.399 -1.8618 -0.4798 -2.9394
13743SOL     OW42300   1.435   3.963   0.089 -0.4123 -0.0539 -0.1346
13743SOL    HW142301   1.399   3.995   0.006 -1.1391  1.0326  0.5795
13743SOL    HW242302   1.358   3.942   0.142 -0.0753  2.5330  1.5188
13744SOL     OW42303   5.726   0.506   6.213  0.0418 -0.0973  0.1886
13744SOL    HW142304   5.696   0.559   6.287  2.1547  0.5444  0.6506
13744SOL    HW242305   5.821   0.507   6.220  0.2396 -1.2843 -1.6909
13745SOL     OW42306   7.567   2.014   3.168  0.4873 -0.0727  0.4479
13745SOL    HW142307   7.632   2.078   3.197  0.4240 -0.7757  2.2167
13745SOL    HW242308   7.503   2.066   3.119  0.9110  1.0674  1.0581
13746SOL     OW42309   3.956   7.952   2.975 -0.0794 -0.5910 -0.1983
13746SOL    HW142310   3.990   8.040   2.991 -1.9032 -0.1629  1.7814
13746SOL    HW242311   3.909   7.960   2.891 -0.7618  0.5350  0.2588
13747SOL     OW42312   1.794   1.657   7.242  0.1955  0.1203  0.2562
13747SOL    HW142313   1.753   1.646   7.328 -0.0681  1.8494  0.3777
13747SOL    HW242314   1.863   1.723   7.256 -0.7768  1.4943 -1.1213
13748SOL     OW42315   7.927   1.006   6.559  0.0028 -0.4205  0.1367
13748SOL    HW142316   7.984   1.078   6.586 -0.6848 -0.2243  1.1364
13748SOL    HW242317   7.899   1.030   6.471  0.7867 -0.1067 -0.0395
13749SOL     OW42318   3.703   5.660   4.473 -0.0147 -0.2038  0.5001
13749SOL    HW142319   3.781   5.702   4.509  1.9424 -1.6665 -1.7023
13749SOL    HW242320   3.662   5.617   4.548 -0.1776  2.6331  2.1680
13750SOL     OW42321   1.406   2.468   4.037 -0.0584  0.3254 -0.1953
13750SOL    HW142322   1.493   2.443   4.006 -0.6333  1.0550 -2.6639
13750SOL    HW242323   1.347   2.409   3.990 -1.0132  1.4508 -0.4408
13751SOL     OW42324   2.590   4.303   3.381  0.2144  0.5103  0.5482
13751SOL    HW142325   2.543   4.220   3.374  1.3261 -0.3624  2.6686
13751SOL    HW242326   2.523   4.365   3.411  0.1877 -0.5815  2.9514
13752SOL     OW42327   7.306   1.616   0.436  0.1535 -0.0635  0.1494
13752SOL    HW142328   7.243   1.662   0.491 -1.4771 -2.3778  0.3911
13752SOL    HW242329   7.254   1.583   0.363  1.5605 -0.1415 -0.8547
13753SOL     OW42330   7.319   6.409   5.501 -0.1104  0.1504 -0.7415
13753SOL    HW142331   7.414   6.423   5.501 -0.1550  0.7681  1.2034
13753SOL    HW242332   7.299   6.376   5.589 -1.7084  0.0713 -1.0968
13754SOL     OW42333   4.146   0.932   5.658 -0.0243  0.2847 -0.5963
13754SOL    HW142334   4.208   0.860   5.650 -1.0286 -0.6626 -0.0477
13754SOL    HW242335   4.087   0.922   5.584 -0.4329  0.2844 -0.2721
13755SOL     OW42336   2.491   6.711   5.951 -0.6900 -1.5269  0.6046
13755SOL    HW142337   2.404   6.671   5.953 -1.3678 -0.1978 -0.2889
13755SOL    HW242338   2.503   6.737   5.860 -0.3105  0.2630  1.1159
13756SOL     OW42339   4.768   3.824   3.248 -0.2174  0.1752  0.3113
13756SOL    HW142340   4.762   3.909   3.205 -0.5302  0.3740  0.7414
13756SOL    HW242341   4.782   3.845   3.340 -2.0837 -0.1934  0.7329
13757SOL     OW42342   7.433   3.293   7.360 -0.3866  0.1247  0.0581
13757SOL    HW142343   7.424   3.348   7.282 -1.4702  1.0112  0.7628
13757SOL    HW242344   7.344   3.283   7.392  0.0249 -0.3683  1.0927
13758SOL     OW42345   3.787   4.287   6.387  0.2594  0.0164  0.3866
13758SOL    HW142346   3.770   4.380   6.374  1.2544  0.2328  0.5657
13758SOL    HW242347   3.795   4.251   6.298 -0.0297  0.1126  0.3202
13759SOL     OW42348   5.208   0.741   2.182 -0.2382  0.3540 -0.0489
13759SOL    HW142349   5.161   0.777   2.257  0.0391  1.1541 -0.2552
13759SOL    HW242350   5.176   0.791   2.107  0.5407  0.5383 -0.2656
13760SOL     OW42351   7.504   8.006   4.061  0.7059 -0.2454 -0.1687
13760SOL    HW142352   7.561   8.027   3.987  0.3123  0.1779 -0.3599
13760SOL    HW242353   7.559   7.955   4.121  1.6534  1.1881  0.2319
13761SOL     OW42354   7.502   2.142   0.157 -0.0231  0.3761  0.1503
13761SOL    HW142355   7.530   2.120   0.068  1.2251  2.6786 -0.1033
13761SOL    HW242356   7.421   2.093   0.170  1.1390 -2.0848 -1.2396
13762SOL     OW42357   4.475   6.935   1.175 -0.0873  0.3469 -0.0798
13762SOL    HW142358   4.565   6.955   1.147 -0.6370  0.6422 -1.7179
13762SOL    HW242359   4.485   6.861   1.234  1.2530  0.4711 -0.1106
13763SOL     OW42360   1.267   3.935   1.667  0.2858  0.0839  0.3321
13763SOL    HW142361   1.333   3.868   1.681  1.3599  1.2395  1.0440
13763SOL    HW242362   1.315   4.007   1.625 -0.2882  1.2738  1.6171
13764SOL     OW42363   6.944   4.617   6.237  0.0833 -0.5442 -0.0742
13764SOL    HW142364   6.908   4.573   6.160  3.0566 -0.6867 -1.5173
13764SOL    HW242365   6.985   4.547   6.288  2.5309  0.1180 -1.0262
13765SOL     OW42366   4.441   5.249   5.999 -0.2223 -0.2786  0.3451
13765SOL    HW142367   4.355   5.222   5.969 -0.2208 -0.0747  0.1551
13765SOL    HW242368   4.429   5.266   6.092 -0.2980 -0.6122  0.3990
13766SOL     OW42369   7.283   7.078   0.593  0.0136 -0.2409 -0.9295
13766SOL    HW142370   7.335   7.125   0.658 -1.1019 -0.1433 -0.0807
13766SOL    HW242371   7.312   7.114   0.509 -0.9765  2.1734 -0.3105
13767SOL     OW42372   6.639   1.238   2.108 -0.1289 -0.2932 -0.4047
13767SOL    HW142373   6.700   1.200   2.172  0.2906 -0.1592 -0.7178
13767SOL    HW242374   6.644   1.332   2.123  1.6316 -0.0499 -2.0362
13768SOL     OW42375   0.875   7.114   1.627 -0.1052 -0.3470 -0.4098
13768SOL    HW142376   0.966   7.141   1.612 -0.6111  1.3801 -0.6049
13768SOL    HW242377   0.856   7.143   1.716 -0.7438  0.2178 -0.7134
13769SOL     OW42378   4.335   6.120   1.459 -0.1904  0.2528  0.1007
13769SOL    HW142379   4.268   6.065   1.418 -0.1006  1.4961 -1.8816
13769SOL    HW242380   4.357   6.076   1.541 -0.4815 -2.3461 -1.1353
13770SOL     OW42381   1.363   4.382   1.687 -0.2309  0.4440  0.1540
13770SOL    HW142382   1.432   4.440   1.719 -0.2803  0.5138  0.1321
13770SOL    HW242383   1.339   4.328   1.762  0.2623  0.0173  0.0156
13771SOL     OW42384   4.121   3.644   6.235  0.1747  0.2026  0.2905
13771SOL    HW142385   4.158   3.664   6.321  0.2545 -0.3757  0.3922
13771SOL    HW242386   4.148   3.554   6.217 -0.0924  0.2176 -0.2090
13772SOL     OW42387   6.241   5.642   3.753  0.0084 -0.0642 -0.0605
13772SOL    HW142388   6.299   5.696   3.807 -1.4131  0.8564  0.5993
13772SOL    HW242389   6.176   5.703   3.719  0.5731 -0.6883 -2.5081
13773SOL     OW42390   4.133   4.891   4.702  0.1452  0.3143 -0.6258
13773SOL    HW142391   4.191   4.909   4.628  0.1459 -0.4622 -0.8230
13773SOL    HW242392   4.182   4.831   4.757  0.3240  1.2446  0.2514
13774SOL     OW42393   4.039   6.810   0.193  0.1853  0.6848  0.1045
13774SOL    HW142394   4.099   6.737   0.206  0.2782  0.6109 -0.6599
13774SOL    HW242395   4.018   6.841   0.281 -0.6247 -0.8911  0.5119
13775SOL     OW42396   1.644   8.112   0.842  0.8327 -0.0728 -0.0694
13775SOL    HW142397   1.736   8.110   0.869  0.6443 -1.8175  0.5639
13775SOL    HW242398   1.617   8.203   0.854  2.9903  0.9282 -2.1595
13776SOL     OW42399   6.090   6.993   2.882 -0.4252 -0.0316 -0.5182
13776SOL    HW142400   6.122   6.903   2.884 -0.7753 -0.1458  0.4986
13776SOL    HW242401   6.068   7.013   2.973  0.4259  1.3770 -0.5939
13777SOL     OW42402   2.151   3.175   1.133 -0.5376  0.3292 -0.4696
13777SOL    HW142403   2.085   3.221   1.186 -0.3720 -0.0033  0.0345
13777SOL    HW242404   2.119   3.085   1.129  0.8062 -0.2947  1.3659
13778SOL     OW42405   0.087   5.119   7.912 -0.3716  0.0850  0.6298
13778SOL    HW142406   0.113   5.133   7.822 -0.4560  0.4384  0.6598
13778SOL    HW242407   0.169   5.100   7.958 -0.2629  0.4128  0.5759
13779SOL     OW42408   2.524   7.649   3.889 -0.4177 -0.8328  0.1759
13779SOL    HW142409   2.612   7.611   3.895 -0.3384 -0.8539 -0.9445
13779SOL    HW242410   2.467   7.574   3.869 -0.2939 -0.4572 -1.8177
13780SOL     OW42411   4.369   4.084   7.501 -0.3955  0.2514 -0.2557
13780SOL    HW142412   4.373   4.045   7.589 -1.3329 -0.4201 -0.4981
13780SOL    HW242413   4.290   4.047   7.462 -1.2121  2.2403 -0.5823
13781SOL     OW42414   8.125   3.366   3.989  0.6235 -0.0599 -0.2323
13781SOL    HW142415   8.173   3.309   3.929  3.2234 -0.3913  1.9384
13781SOL    HW242416   8.184   3.376   4.064 -2.0684  0.9756  1.9193
13782SOL     OW42417   1.902   0.707   6.796  0.5969  0.1048 -0.0550
13782SOL    HW142418   1.936   0.755   6.720  0.9425  1.1111  0.6977
13782SOL    HW242419   1.971   0.717   6.862  0.6027 -1.3283  0.1797
13783SOL     OW42420   7.070   3.862   7.183  0.2911 -0.0050  0.3179
13783SOL    HW142421   7.162   3.858   7.211  0.5645  0.7661 -0.3990
13783SOL    HW242422   7.023   3.809   7.247  1.4510 -1.8604 -0.2723
13784SOL     OW42423   5.346   6.406   2.943 -0.1128  0.2411  0.4552
13784SOL    HW142424   5.393   6.413   3.025 -1.7362  1.1584  1.3574
13784SOL    HW242425   5.364   6.488   2.898 -0.7134  0.5307  0.7361
13785SOL     OW42426   0.815   3.161   3.244 -0.3776 -0.1926  0.0544
13785SOL    HW142427   0.772   3.120   3.169 -0.1929  1.1385 -0.8165
13785SOL    HW242428   0.884   3.215   3.206  0.1152  0.0443  1.2314
13786SOL     OW42429   7.315   3.248   6.606 -0.1960 -0.1976 -0.4776
13786SOL    HW142430   7.262   3.182   6.651  0.9141 -0.7142  0.1168
13786SOL    HW242431   7.295   3.236   6.513 -1.4476 -0.0721 -0.2483
13787SOL     OW42432   0.754   7.717   0.027 -0.1560 -0.4235 -0.0798
13787SOL    HW142433   0.663   7.730   0.000  0.2068 -0.1089 -1.2139
13787SOL    HW242434   0.751   7.639   0.082 -1.0508 -0.6611 -0.4359
13788SOL     OW42435   0.988   3.742   7.830 -0.1898  0.0665  1.4065
13788SOL    HW142436   0.987   3.678   7.759 -0.7619  0.9325  0.6127
13788SOL    HW242437   1.050   3.706   7.894 -2.1438 -2.4017  2.0525
13789SOL     OW42438   5.925   3.860   6.820  0.7497 -0.1049 -0.1036
13789SOL    HW142439   5.968   3.836   6.738  0.4842 -0.2435 -0.1997
13789SOL    HW242440   5.911   3.777   6.865 -0.0126 -0.1233 -0.3599
13790SOL     OW42441   0.618   1.985   7.069  0.2277 -0.0840  0.1658
13790SOL    HW142442   0.601   1.892   7.053 -0.1351  0.2731 -1.7129
13790SOL    HW242443   0.713   1.989   7.084  0.0568 -0.9062  1.6897
13791SOL     OW42444   5.762   4.550   1.441 -0.7271  0.3882  0.3546
13791SOL    HW142445   5.720   4.528   1.358  0.5666 -2.7178  0.3784
13791SOL    HW242446   5.746   4.475   1.497  2.3323  0.2788  1.2949
13792SOL     OW42447   5.372   2.490   6.465 -0.3433 -0.0468  0.0073
13792SOL    HW142448   5.448   2.441   6.498 -0.2522 -0.2036 -0.4233
13792SOL    HW242449   5.306   2.481   6.534 -0.1601 -0.3773  0.1438
13793SOL     OW42450   0.686   5.851   6.973  0.1233  0.1618  0.0288
13793SOL    HW142451   0.728   5.886   6.895 -0.4128  1.5263  0.3327
13793SOL    HW242452   0.678   5.757   6.956  2.1412  0.0484 -0.5550
13794SOL     OW42453   5.196   7.732   2.677 -0.4796 -0.0109 -0.0758
13794SOL    HW142454   5.196   7.773   2.764  0.6205  0.8870 -0.4708
13794SOL    HW242455   5.173   7.804   2.618  0.7166 -0.1369 -0.7103
13795SOL     OW42456   5.395   2.243   6.838  0.4245 -0.1033 -0.3579
13795SOL    HW142457   5.363   2.155   6.859  1.8717 -0.6765 -0.4702
13795SOL    HW242458   5.324   2.282   6.787 -0.7775 -0.7308  0.7710
13796SOL     OW42459   6.427   4.380   7.734  0.3675  0.1777  0.0365
13796SOL    HW142460   6.335   4.398   7.754  0.3683  0.6345 -0.3467
13796SOL    HW242461   6.435   4.397   7.640  1.2085  1.8207  0.3606
13797SOL     OW42462   5.062   0.654   3.098 -0.2488  0.1240  0.0332
13797SOL    HW142463   4.972   0.635   3.069 -0.9998  2.3559  0.6149
13797SOL    HW242464   5.115   0.644   3.020 -1.3659  0.7442 -0.8409
13798SOL     OW42465   7.878   0.363   1.317 -0.1291 -0.0412  0.3537
13798SOL    HW142466   7.957   0.379   1.266 -2.2732  1.1463 -2.9830
13798SOL    HW242467   7.875   0.436   1.380  0.3363  1.2262 -1.0299
13799SOL     OW42468   0.088   5.238   4.157 -0.1069  0.1140  0.0037
13799SOL    HW142469   0.129   5.159   4.122 -0.3093  0.1253 -0.2637
13799SOL    HW242470   0.032   5.269   4.086 -0.0186  0.5041  0.1052
13800SOL     OW42471   4.458   4.774   0.928 -0.2212 -0.5446  0.1360
13800SOL    HW142472   4.373   4.764   0.972  0.0177 -2.5200  0.1971
13800SOL    HW242473   4.444   4.738   0.840 -0.1149  1.4727 -0.7635
13801SOL     OW42474   1.678   4.588   8.076  0.1607 -0.4315 -0.0501
13801SOL    HW142475   1.728   4.509   8.055  1.6711  0.4612  0.0649
13801SOL    HW242476   1.658   4.581   8.169  1.7356  0.0701  0.3530
13802SOL     OW42477   7.817   0.854   1.156  0.1099 -0.2262  0.0732
13802SOL    HW142478   7.751   0.827   1.093 -2.3409  0.2775  2.2573
13802SOL    HW242479   7.864   0.926   1.113 -2.2775  0.9043 -0.7870
13803SOL     OW42480   1.253   4.253   7.262 -0.1358  0.5243 -0.7174
13803SOL    HW142481   1.253   4.318   7.332  0.2106 -2.0968  1.9040
13803SOL    HW242482   1.168   4.209   7.269  0.0842 -0.0801 -1.6385
13804SOL     OW42483   3.414   0.538   5.364  0.8044 -0.3304  0.2237
13804SOL    HW142484   3.328   0.544   5.321 -0.1781 -0.6380  2.0499
13804SOL    HW242485   3.423   0.445   5.386  1.2884 -0.1773  0.6834
13805SOL     OW42486   5.436   4.043   3.846  0.2063  0.4381 -0.2427
13805SOL    HW142487   5.444   4.053   3.941  1.5543  1.3024 -0.4275
13805SOL    HW242488   5.461   4.128   3.811  1.3305 -0.3632 -1.4490
13806SOL     OW42489   4.377   3.005   4.673  0.2270  0.0683  0.2932
13806SOL    HW142490   4.287   2.976   4.656 -0.3422  2.1804 -0.6380
13806SOL    HW242491   4.377   3.025   4.767 -0.5804  0.9581  0.1212
13807SOL     OW42492   3.557   3.795   7.668  0.1389  0.9239 -0.2374
13807SOL    HW142493   3.525   3.781   7.579 -1.3284  0.5125  0.3325
13807SOL    HW242494   3.492   3.853   7.708  0.2140  0.2630  0.8810
13808SOL     OW42495   3.439   1.326   7.968  0.3860  0.2038 -0.1305
13808SOL    HW142496   3.403   1.265   8.032  0.9502  0.1441  0.1353
13808SOL    HW242497   3.365   1.349   7.913 -0.2974  0.9508  1.0764
13809SOL     OW42498   5.201   5.310   2.048  0.1254 -0.5929  0.2901
13809SOL    HW142499   5.205   5.379   2.114 -3.1136  1.3084 -1.2372
13809SOL    HW242500   5.156   5.237   2.091 -1.8969  0.5970  0.3245
13810SOL     OW42501   1.231   0.391   5.293  0.5318 -0.4309  0.5296
13810SOL    HW142502   1.179   0.315   5.321  1.2149 -1.7006 -1.4738
13810SOL    HW242503   1.303   0.395   5.356  0.2966 -1.2323  0.8688
13811SOL     OW42504   0.477   4.829   6.801 -0.0119 -0.7014 -0.7445
13811SOL    HW142505   0.497   4.778   6.723 -0.3598 -0.4718 -0.9822
13811SOL    HW242506   0.510   4.776   6.873  2.1467 -0.0260 -1.1554
13812SOL     OW42507   1.705   5.548   6.471 -0.1074  0.6162 -0.1239
13812SOL    HW142508   1.618   5.581   6.449 -0.1328  0.5421 -0.1356
13812SOL    HW242509   1.733   5.498   6.394  0.1229  0.9886 -0.2864
13813SOL     OW42510   5.156   1.622   6.573  0.4264  0.0092  0.3935
13813SOL    HW142511   5.230   1.619   6.512 -0.7402  0.3481 -1.1131
13813SOL    HW242512   5.097   1.689   6.536 -1.5470 -1.6089  0.4355
13814SOL     OW42513   2.127   6.724   4.065  0.3435 -0.0283  0.0322
13814SOL    HW142514   2.217   6.734   4.036  0.4992  1.2757  0.9048
13814SOL    HW242515   2.085   6.807   4.043 -0.1705  0.0523  1.2132
13815SOL     OW42516   1.103   5.715   7.752  0.3560 -0.1251  0.4078
13815SOL    HW142517   1.057   5.799   7.749 -0.4176 -0.5427  0.1868
13815SOL    HW242518   1.104   5.692   7.845 -1.0680 -0.7276  0.3024
13816SOL     OW42519   7.084   5.196   4.174  1.0950 -0.0953  0.6277
13816SOL    HW142520   7.082   5.119   4.231 -1.6239  0.3861  1.3306
13816SOL    HW242521   7.096   5.269   4.234  1.1451  0.2144  0.2415
13817SOL     OW42522   4.674   5.099   5.202  0.3718 -0.2792  0.3583
13817SOL    HW142523   4.718   5.059   5.128 -3.1519 -0.9633 -1.5638
13817SOL    HW242524   4.609   5.035   5.230 -2.9497  2.4138 -0.4509
13818SOL     OW42525   7.721   0.358   6.325 -0.2943  0.1457  0.3019
13818SOL    HW142526   7.700   0.267   6.305 -3.9917  1.1456 -1.2285
13818SOL    HW242527   7.780   0.385   6.255 -1.1647 -0.4175 -0.6630
13819SOL     OW42528   3.297   1.413   6.793 -0.5580  0.8845  0.3516
13819SOL    HW142529   3.228   1.361   6.752  1.0935  0.9712 -2.8577
13819SOL    HW242530   3.350   1.349   6.842 -0.9215  0.2284 -0.1002
13820SOL     OW42531   4.158   7.111   6.036 -0.1340 -0.2425  0.8765
13820SOL    HW142532   4.062   7.104   6.026 -0.2627  1.9257  0.1537
13820SOL    HW242533   4.192   7.089   5.949  0.0084 -0.4502  0.9827
13821SOL     OW42534   5.960   2.675   1.898  0.0247 -0.7142  0.5799
13821SOL    HW142535   5.953   2.767   1.876 -2.4060 -1.2401 -1.2201
13821SOL    HW242536   6.051   2.652   1.877 -0.3603  0.4013 -3.0068
13822SOL     OW42537   0.922   4.146   2.462 -0.2694 -0.3406 -0.3303
13822SOL    HW142538   0.857   4.216   2.456  0.5777  0.3526 -2.0308
13822SOL    HW242539   0.983   4.175   2.529 -0.3602  0.1593 -0.4659
13823SOL     OW42540   7.810   2.915   2.145 -0.6397 -0.2865 -0.2897
13823SOL    HW142541   7.812   2.819   2.149 -1.2588 -0.3600 -1.4450
13823SOL    HW242542   7.875   2.937   2.078 -0.7780  0.0819 -0.3016
13824SOL     OW42543   4.453   2.007   0.349 -0.3930 -0.1066 -0.1239
13824SOL    HW142544   4.394   1.998   0.425  0.6174  0.5705  0.7693
13824SOL    HW242545   4.537   1.973   0.380 -0.2005 -0.7097 -1.2647
13825SOL     OW42546   6.498   6.834   2.784  0.1103 -0.4667  0.3112
13825SOL    HW142547   6.485   6.773   2.711  1.3795 -2.6516  1.7657
13825SOL    HW242548   6.568   6.892   2.754 -1.1541  0.3635 -1.1338
13826SOL     OW42549   3.840   4.883   4.692 -0.1203 -0.0047  0.2541
13826SOL    HW142550   3.927   4.866   4.656  0.0161  0.7467  0.2289
13826SOL    HW242551   3.824   4.809   4.751 -0.9671 -2.0899 -2.3879
13827SOL     OW42552   6.191   7.881   3.195  0.8968  0.0334  0.4960
13827SOL    HW142553   6.277   7.841   3.181  1.1181  0.0504  1.7289
13827SOL    HW242554   6.211   7.974   3.211  0.8371 -0.2904  2.6478
13828SOL     OW42555   1.316   5.779   5.671  0.1286 -0.5985 -0.6083
13828SOL    HW142556   1.399   5.784   5.718 -0.9151  0.6491  1.2172
13828SOL    HW242557   1.260   5.725   5.726 -0.9112  0.2862 -0.7720
13829SOL     OW42558   4.052   7.811   1.507 -0.7948  0.4326 -0.1628
13829SOL    HW142559   3.960   7.786   1.518 -1.0340  0.9546 -0.9129
13829SOL    HW242560   4.049   7.902   1.477  0.0398  1.0823  1.6078
13830SOL     OW42561   4.501   1.486   6.716  0.0634 -0.7382 -0.3191
13830SOL    HW142562   4.461   1.526   6.793 -0.6373  0.1858 -1.1393
13830SOL    HW242563   4.537   1.559   6.667  0.0291 -1.2548 -1.1382
13831SOL     OW42564   8.016   0.236   7.738  0.1914  0.3275 -0.1073
13831SOL    HW142565   8.024   0.163   7.676  0.8013  0.5171 -0.2550
13831SOL    HW242566   7.929   0.225   7.776  0.7668 -1.2700  0.8566
13832SOL     OW42567   6.927   0.685   8.056 -0.2006  0.2783  0.3034
13832SOL    HW142568   6.878   0.618   8.105 -0.0971 -1.0948 -1.3864
13832SOL    HW242569   7.015   0.649   8.046  0.0417  0.9566 -0.0983
13833SOL     OW42570   3.398   8.150   3.452 -0.7759 -0.2533 -0.5759
13833SOL    HW142571   3.421   8.065   3.490  0.2583  0.4234  0.3533
13833SOL    HW242572   3.312   8.136   3.413 -0.9275 -1.5446  0.1764
13834SOL     OW42573   4.931   7.838   6.658 -0.1057  0.1619 -0.0806
13834SOL    HW142574   4.936   7.910   6.596  0.3231 -2.1198 -2.8998
13834SOL    HW242575   4.845   7.847   6.699 -1.1009  0.8850 -2.1989
13835SOL     OW42576   1.603   6.775   5.714 -0.3229 -0.0810 -0.2799
13835SOL    HW142577   1.509   6.787   5.722 -0.2873 -0.8409  1.7003
13835SOL    HW242578   1.623   6.697   5.765  1.3185 -0.2641 -1.1192
13836SOL     OW42579   5.440   1.235   5.587 -0.0161  0.1170  0.2824
13836SOL    HW142580   5.403   1.246   5.499  2.7095 -0.8817 -1.1131
13836SOL    HW242581   5.447   1.324   5.622 -2.0001  0.4538 -0.0967
13837SOL     OW42582   5.389   0.589   5.694  0.6054  0.1418  0.1162
13837SOL    HW142583   5.371   0.522   5.761 -3.5419 -0.1302 -1.0031
13837SOL    HW242584   5.359   0.670   5.733 -1.8554 -0.0175 -1.2927
13838SOL     OW42585   6.819   0.387   3.781  0.1421 -0.2819 -0.7426
13838SOL    HW142586   6.749   0.395   3.846  1.3037 -0.9445  0.6303
13838SOL    HW242587   6.860   0.473   3.780 -0.6248  0.0906 -1.5066
13839SOL     OW42588   6.294   5.490   0.447  0.0674  0.5867  0.7567
13839SOL    HW142589   6.319   5.514   0.536 -0.6687  2.0568  0.6069
13839SOL    HW242590   6.340   5.553   0.391 -1.7280  1.6149  0.3270
13840SOL     OW42591   5.736   5.216   5.424  0.7602  0.3851  0.0863
13840SOL    HW142592   5.658   5.227   5.479  0.6684 -1.6340  0.4087
13840SOL    HW242593   5.758   5.305   5.396 -1.1405  1.0893  0.7022
13841SOL     OW42594   6.592   0.425   6.735  0.0421 -0.3312 -0.1694
13841SOL    HW142595   6.655   0.363   6.699 -1.4650 -2.3393  0.4288
13841SOL    HW242596   6.607   0.423   6.829  0.2080  0.5127 -0.1685
13842SOL     OW42597   0.804   7.566   6.237  0.0490  0.0423  0.0279
13842SOL    HW142598   0.799   7.571   6.141  0.5382  0.3327  0.0122
13842SOL    HW242599   0.895   7.587   6.257  0.0552 -0.4409  0.5352
13843SOL     OW42600   4.793   2.154   5.610  0.2829  0.2551 -0.4663
13843SOL    HW142601   4.820   2.068   5.641  0.6508  0.4930 -0.1331
13843SOL    HW242602   4.697   2.151   5.611  0.2779 -0.4770 -1.3565
13844SOL     OW42603   6.768   3.528   5.507 -0.1392  0.3426  0.2681
13844SOL    HW142604   6.688   3.507   5.459  0.4825 -0.0496 -0.6156
13844SOL    HW242605   6.836   3.477   5.464  0.5860  0.6344  1.0418
13845SOL     OW42606   5.897   2.009   4.223  0.1698  0.3423  0.2678
13845SOL    HW142607   5.992   2.017   4.220  0.3255  0.1191  2.4700
13845SOL    HW242608   5.881   1.918   4.247 -0.7720 -0.4511 -2.9595
13846SOL     OW42609   4.300   2.924   6.134 -0.0673 -0.0022  0.0277
13846SOL    HW142610   4.342   2.858   6.190 -1.3401  0.5610  1.7259
13846SOL    HW242611   4.229   2.959   6.187 -1.4258  0.5069 -2.0044
13847SOL     OW42612   1.293   1.584   0.223  0.3372  0.1747 -0.7535
13847SOL    HW142613   1.201   1.564   0.205  0.7070 -2.4793 -0.1304
13847SOL    HW242614   1.299   1.580   0.319  1.0025  0.8316 -0.7665
13848SOL     OW42615   1.616   0.686   7.602 -0.3676  0.4015  0.8377
13848SOL    HW142616   1.711   0.702   7.601 -0.1469  0.1521  4.5344
13848SOL    HW242617   1.608   0.595   7.628 -1.6639  0.4180  0.5356
13849SOL     OW42618   4.128   5.775   2.081  0.3581  0.1125  0.3575
13849SOL    HW142619   4.109   5.695   2.130 -1.3182 -0.7413 -1.5568
13849SOL    HW242620   4.152   5.839   2.148 -2.3342 -0.8095  2.3887
13850SOL     OW42621   7.058   0.811   3.206  0.0079 -0.0452 -0.2861
13850SOL    HW142622   6.974   0.856   3.211  0.0747 -0.1019  2.3550
13850SOL    HW242623   7.123   0.880   3.220  0.1997 -0.5801  1.6579
13851SOL     OW42624   1.420   4.216   4.053  0.2640 -0.0184 -0.0425
13851SOL    HW142625   1.425   4.138   4.107 -0.0837  0.4871  0.7450
13851SOL    HW242626   1.409   4.288   4.116  2.1450  0.8511 -0.6378
13852SOL     OW42627   0.380   0.468   7.647 -0.1901 -0.4761  0.2279
13852SOL    HW142628   0.339   0.554   7.657  1.0469  0.3450 -1.2036
13852SOL    HW242629   0.454   0.470   7.708  0.9629  0.2805 -1.1194
13853SOL     OW42630   5.693   1.724   1.066  0.2264 -0.0921 -0.6027
13853SOL    HW142631   5.725   1.654   1.010 -0.5497 -0.6092 -0.4245
13853SOL    HW242632   5.772   1.763   1.104  0.7201 -0.1843 -1.5087
13854SOL     OW42633   5.568   7.435   6.241 -0.0519  0.2283  0.4111
13854SOL    HW142634   5.475   7.427   6.259  0.2159  0.3815  2.1139
13854SOL    HW242635   5.595   7.513   6.290  0.6507  1.2501 -1.5207
13855SOL     OW42636   7.558   6.980   7.917 -0.0127 -0.3446  0.4317
13855SOL    HW142637   7.493   6.940   7.974  0.1945 -2.0460 -0.4727
13855SOL    HW242638   7.510   7.002   7.837 -0.0637  1.0201  0.8119
13856SOL     OW42639   2.171   4.412   7.393 -0.1361  0.0728 -0.4623
13856SOL    HW142640   2.254   4.374   7.421 -1.0947 -1.2243  0.7404
13856SOL    HW242641   2.147   4.360   7.315  0.6636  1.1544 -1.4656
13857SOL     OW42642   7.438   0.046   0.810  0.0454 -0.6340 -0.1979
13857SOL    HW142643   7.533   0.036   0.815 -0.0513 -1.1600  1.0103
13857SOL    HW242644   7.417   0.033   0.718  1.1423 -0.4965 -0.4830
13858SOL     OW42645   0.078   0.810   6.504 -0.8424 -0.0126  0.2881
13858SOL    HW142646   0.116   0.889   6.543  0.6235 -1.1399  1.2472
13858SOL    HW242647  -0.013   0.810   6.534 -0.5398  0.6910  1.2682
13859SOL     OW42648   4.550   1.155   4.631 -0.2642  0.6100 -0.9093
13859SOL    HW142649   4.474   1.118   4.586 -0.9158  2.0621 -1.0736
13859SOL    HW242650   4.607   1.186   4.560  0.0907  0.2670 -0.7750
13860SOL     OW42651   6.710   6.173   4.499  0.4244  0.4353 -0.5500
13860SOL    HW142652   6.624   6.139   4.473  0.7487 -0.1406 -0.8874
13860SOL    HW242653   6.745   6.212   4.419 -0.0591  1.8266 -0.0993
13861SOL     OW42654   4.341   5.162   2.226 -0.2451  0.0759 -0.6263
13861SOL    HW142655   4.398   5.086   2.237  1.2509  1.3693  1.0879
13861SOL    HW242656   4.398   5.237   2.237 -2.0592  1.4504 -0.0958
13862SOL     OW42657   1.089   6.807   6.838 -0.2832  0.5068  0.6262
13862SOL    HW142658   1.012   6.829   6.786  0.4046 -0.0165 -0.6706
13862SOL    HW242659   1.149   6.765   6.775  0.6503  0.0052  1.8125
13863SOL     OW42660   5.500   0.949   4.935  0.0540  0.1388 -0.3606
13863SOL    HW142661   5.532   0.921   4.849 -0.9000  0.3484 -0.8075
13863SOL    HW242662   5.574   0.938   4.994  1.0668  1.0159 -1.4288
13864SOL     OW42663   2.857   2.197   3.545  0.1496 -0.1828 -0.1681
13864SOL    HW142664   2.896   2.110   3.538 -0.3172 -0.2918 -2.4507
13864SOL    HW242665   2.831   2.218   3.455 -1.5580  1.4883  0.6433
13865SOL     OW42666   3.505   5.914   0.442  0.4479 -0.2125  0.9617
13865SOL    HW142667   3.488   5.873   0.357 -1.4520  1.4114  0.4833
13865SOL    HW242668   3.598   5.935   0.439  0.4893 -0.4427 -0.5963
13866SOL     OW42669   4.237   5.619   1.862  0.6153 -0.3254  0.7263
13866SOL    HW142670   4.155   5.579   1.834 -0.3797  1.0080  1.5640
13866SOL    HW242671   4.213   5.672   1.939  1.5276  2.7722 -0.9320
13867SOL     OW42672   0.289   2.275   0.925 -0.6669 -0.0521 -0.4961
13867SOL    HW142673   0.361   2.315   0.877 -1.5564  2.6350  0.1838
13867SOL    HW242674   0.214   2.284   0.866 -0.7051 -1.7379 -0.7317
13868SOL     OW42675   5.909   1.085   6.918  0.0761  0.0805  0.0011
13868SOL    HW142676   5.915   1.003   6.868 -1.7902 -1.7069  2.4734
13868SOL    HW242677   5.997   1.098   6.954  0.3293 -0.9927 -0.2105
13869SOL     OW42678   5.179   2.393   1.709 -0.7049  0.0804 -0.4985
13869SOL    HW142679   5.119   2.409   1.636 -1.4411  1.8147  0.4235
13869SOL    HW242680   5.212   2.480   1.732  0.2346 -0.5487  0.6316
13870SOL     OW42681   4.080   4.165   8.160  0.1086 -0.2592  0.1365
13870SOL    HW142682   4.109   4.151   8.250  0.7971 -2.2588 -0.3478
13870SOL    HW242683   4.153   4.211   8.118 -0.5747  1.4767  0.7861
13871SOL     OW42684   5.953   4.664   0.734 -0.2140 -0.0750 -0.5321
13871SOL    HW142685   6.027   4.684   0.675  0.5312 -2.0772 -0.3418
13871SOL    HW242686   5.879   4.650   0.675 -0.8192  2.9792 -0.6883
13872SOL     OW42687   1.315   6.912   2.199 -0.0956  0.4702 -0.4315
13872SOL    HW142688   1.358   6.932   2.282 -0.3330 -0.9503  0.0696
13872SOL    HW242689   1.387   6.896   2.138  0.0791  1.2975 -0.4540
13873SOL     OW42690   7.341   1.510   0.089  0.0081 -0.0816 -0.4364
13873SOL    HW142691   7.394   1.582   0.120  0.8915 -0.7406 -0.3815
13873SOL    HW242692   7.398   1.433   0.095 -1.3541 -1.0600  0.9468
13874SOL     OW42693   5.666   6.439   7.574  0.0853 -0.2629  0.3583
13874SOL    HW142694   5.654   6.351   7.540  0.9112 -1.0320  1.9309
13874SOL    HW242695   5.671   6.495   7.497 -1.2798 -1.4682 -0.6474
13875SOL     OW42696   7.891   7.862   6.036  0.1573  0.2043 -0.1835
13875SOL    HW142697   7.924   7.950   6.053  0.5211  0.1367 -0.5192
13875SOL    HW242698   7.881   7.823   6.122 -2.1849  1.3395  0.1301
13876SOL     OW42699   6.016   4.637   2.544 -0.3233 -0.2017  0.1047
13876SOL    HW142700   6.084   4.690   2.502  0.0175  0.0385  0.9466
13876SOL    HW242701   6.025   4.656   2.637 -0.8134 -1.0332  0.3265
13877SOL     OW42702   2.104   1.487   2.054  0.0380 -0.2292 -0.2189
13877SOL    HW142703   2.052   1.423   2.006 -1.0523 -0.5804  1.3560
13877SOL    HW242704   2.176   1.437   2.091 -0.1124 -0.3042 -0.0268
13878SOL     OW42705   5.237   4.232   5.709  0.0224  0.0123 -0.2354
13878SOL    HW142706   5.234   4.327   5.710  0.1517  0.0241  0.8141
13878SOL    HW242707   5.181   4.206   5.636 -0.2420  0.8830 -0.3522
13879SOL     OW42708   2.894   0.540   4.044  0.4637  0.4923 -0.3340
13879SOL    HW142709   2.811   0.507   4.009 -0.2076  1.9238 -0.1619
13879SOL    HW242710   2.871   0.582   4.126  1.5732 -0.2002  0.3510
13880SOL     OW42711   3.254   6.572   2.101 -0.2421  0.3925  0.4457
13880SOL    HW142712   3.220   6.487   2.127  0.1297 -0.1405 -0.7378
13880SOL    HW242713   3.183   6.613   2.052 -0.0797  0.3463  0.1676
13881SOL     OW42714   2.465   4.960   5.061 -0.5367  0.1892  0.2455
13881SOL    HW142715   2.483   4.940   4.969 -1.4487 -2.8220  0.6103
13881SOL    HW242716   2.469   5.056   5.066  1.0785  0.3798 -2.5619
13882SOL     OW42717   1.638   2.562   3.411 -0.4234 -0.1696  0.2013
13882SOL    HW142718   1.721   2.574   3.366 -0.8597 -0.4472 -0.7056
13882SOL    HW242719   1.600   2.483   3.371 -1.7396  0.7208 -0.3759
13883SOL     OW42720   3.358   0.696   2.680 -0.0294  0.3637 -0.3183
13883SOL    HW142721   3.383   0.787   2.663 -0.3358  0.4689 -0.2163
13883SOL    HW242722   3.441   0.651   2.698  0.1643  0.5319 -0.7714
13884SOL     OW42723   0.307   5.951   5.016  0.0704  0.1761  0.6330
13884SOL    HW142724   0.214   5.972   5.027  0.4389  1.3495  1.7428
13884SOL    HW242725   0.342   5.951   5.105  1.5247  1.6757  0.1060
13885SOL     OW42726   2.804   4.754   6.772 -0.1196  0.0142 -0.1310
13885SOL    HW142727   2.848   4.830   6.732  0.4683  1.2851  2.6849
13885SOL    HW242728   2.714   4.784   6.788  0.0947  0.1300  0.9288
13886SOL     OW42729   0.082   7.503   3.069  0.1645 -0.1943 -0.2320
13886SOL    HW142730   0.040   7.424   3.103  1.3072 -0.5749  0.3292
13886SOL    HW242731   0.053   7.573   3.128 -0.3704 -0.2800 -0.3811
13887SOL     OW42732   6.752   2.832   2.839  0.3453  0.2379 -0.1271
13887SOL    HW142733   6.839   2.849   2.874  0.3227 -1.7218  1.0380
13887SOL    HW242734   6.737   2.739   2.855 -1.7002  0.3705 -0.9084
13888SOL     OW42735   0.239   2.401   4.170 -0.0404 -0.6594 -0.0431
13888SOL    HW142736   0.174   2.459   4.131 -1.3784 -1.1228  1.3764
13888SOL    HW242737   0.201   2.375   4.254  1.1024 -2.5354 -0.0376
13889SOL     OW42738   4.762   3.788   1.932  0.3426 -0.5659  0.2660
13889SOL    HW142739   4.784   3.867   1.883 -2.6543  0.2150 -0.0183
13889SOL    HW242740   4.710   3.736   1.872  1.5953 -2.4430  0.7263
13890SOL     OW42741   0.958   2.690   0.465 -0.3812  0.3911 -0.2108
13890SOL    HW142742   0.989   2.649   0.546  0.0500  0.9438 -0.0858
13890SOL    HW242743   0.984   2.631   0.395 -0.1412  0.2495  0.0000
13891SOL     OW42744   1.450   7.386   0.144 -0.0055 -0.6597 -0.3942
13891SOL    HW142745   1.448   7.378   0.239 -2.4675  0.9519 -0.2132
13891SOL    HW242746   1.413   7.472   0.127  3.8978  0.8080 -2.7372
13892SOL     OW42747   5.696   5.973   6.312  0.8313 -0.0700 -0.4418
13892SOL    HW142748   5.733   6.061   6.302  0.1863  0.3099  0.3729
13892SOL    HW242749   5.624   5.970   6.250  1.5260 -0.4286 -1.2559
13893SOL     OW42750   0.818   6.823   4.504 -0.1076 -0.3718 -0.4918
13893SOL    HW142751   0.829   6.864   4.590  0.4207  0.2737 -0.8617
13893SOL    HW242752   0.890   6.857   4.451 -0.4200 -0.7738 -1.1931
13894SOL     OW42753   3.530   0.958   1.929  0.1849  0.0639  0.3080
13894SOL    HW142754   3.601   0.931   1.871 -0.0038  1.9920 -0.9294
13894SOL    HW242755   3.549   0.916   2.012  1.9845 -0.6080 -0.3983
13895SOL     OW42756   2.440   0.784   1.439 -0.0530 -0.1261  0.1447
13895SOL    HW142757   2.357   0.753   1.402  0.6836 -0.1104 -1.6018
13895SOL    HW242758   2.420   0.800   1.531 -2.0989  0.2965 -0.3229
13896SOL     OW42759   6.433   1.550   3.410 -0.2696 -0.1198 -0.1980
13896SOL    HW142760   6.387   1.579   3.489 -1.3891 -0.4114 -0.7341
13896SOL    HW242761   6.525   1.549   3.436 -0.6175 -0.2229  1.1074
13897SOL     OW42762   3.017   4.300   3.567 -0.0529  0.1580  0.4710
13897SOL    HW142763   2.960   4.300   3.644 -0.3440  0.0272  0.2587
13897SOL    HW242764   2.966   4.255   3.500  0.4727 -0.3539  0.4036
13898SOL     OW42765   7.990   7.755   4.081 -0.5438  0.5059  0.8279
13898SOL    HW142766   7.987   7.665   4.111  0.8059 -0.0944 -0.6744
13898SOL    HW242767   8.021   7.805   4.156  0.6720 -0.6056  1.0964
13899SOL     OW42768   7.856   5.498   3.618 -0.3257  0.4589  0.0586
13899SOL    HW142769   7.875   5.418   3.569 -0.6397 -0.6587  1.6992
13899SOL    HW242770   7.929   5.507   3.679 -0.4545  1.2617  0.1040
13900SOL     OW42771   0.578   2.615   5.651  0.2037 -0.9377 -0.4367
13900SOL    HW142772   0.573   2.711   5.653 -3.6253 -0.9544 -1.5876
13900SOL    HW242773   0.556   2.588   5.740 -1.7695 -0.6782 -0.7966
13901SOL     OW42774   2.266   6.685   7.657  0.7911  0.0908 -0.0739
13901SOL    HW142775   2.204   6.704   7.587  0.0843 -1.1956  0.1825
13901SOL    HW242776   2.301   6.599   7.635 -0.4277 -0.9609  1.8222
13902SOL     OW42777   2.115   7.762   5.939  0.3914 -0.1266 -0.2894
13902SOL    HW142778   2.090   7.847   5.976  0.6547 -1.0977  2.3527
13902SOL    HW242779   2.209   7.756   5.954  0.7041 -0.1832 -2.0911
13903SOL     OW42780   1.237   6.498   0.890 -0.3516  0.0319  0.2810
13903SOL    HW142781   1.295   6.423   0.877 -0.2010 -0.0291  1.2951
13903SOL    HW242782   1.220   6.500   0.984 -1.9952  0.0559  0.0214
13904SOL     OW42783   0.055   3.279   8.014 -0.6183 -0.1691  0.1980
13904SOL    HW142784  -0.008   3.269   7.942 -2.2503  0.6676  1.4609
13904SOL    HW242785   0.008   3.329   8.080  1.2351  0.0509  1.4052
13905SOL     OW42786   0.564   2.336   2.333  0.2383 -0.1908 -0.5282
13905SOL    HW142787   0.590   2.257   2.286 -0.3107 -0.4441 -0.4099
13905SOL    HW242788   0.596   2.408   2.278  0.0728 -0.4866 -1.0210
13906SOL     OW42789   6.890   1.915   3.021 -0.0848  0.1656  0.3813
13906SOL    HW142790   6.946   1.986   2.991  0.0960 -0.5334 -1.0143
13906SOL    HW242791   6.945   1.837   3.014 -0.7924 -0.3377  0.3620
13907SOL     OW42792   2.397   3.524   5.589  0.1804 -0.2232  0.3408
13907SOL    HW142793   2.378   3.606   5.633 -0.1277 -0.0155 -0.1689
13907SOL    HW242794   2.320   3.470   5.604  0.4817 -0.5067  0.8758
13908SOL     OW42795   5.425   3.311   4.499 -0.4316  0.0088 -0.2498
13908SOL    HW142796   5.354   3.300   4.562 -0.7047  0.5537 -0.4550
13908SOL    HW242797   5.497   3.347   4.551  0.1005 -1.5935  0.1967
13909SOL     OW42798   2.151   1.600   4.110  0.4129  0.0021  0.1033
13909SOL    HW142799   2.091   1.623   4.181 -0.2670 -0.3771 -0.3406
13909SOL    HW242800   2.095   1.593   4.032  0.3603 -3.9425  0.3066
13910SOL     OW42801   1.658   5.892   6.903 -0.1302  0.0969  0.5318
13910SOL    HW142802   1.743   5.916   6.866  0.8458 -0.1618  2.4711
13910SOL    HW242803   1.629   5.818   6.851  0.5339  0.5624 -0.5384
13911SOL     OW42804   6.570   6.041   2.158  0.9076 -0.3507 -0.2801
13911SOL    HW142805   6.474   6.046   2.149  1.1259  0.5032 -3.5678
13911SOL    HW242806   6.591   5.950   2.138  0.7678 -0.8288  1.5854
13912SOL     OW42807   4.087   1.986   0.842 -0.2859  0.6501  0.2347
13912SOL    HW142808   4.005   1.938   0.835 -0.4923  1.0406 -0.0284
13912SOL    HW242809   4.090   2.040   0.764  1.2328 -0.9169 -0.8761
13913SOL     OW42810   6.555   2.311   4.641  0.2492  0.2949  0.0314
13913SOL    HW142811   6.478   2.329   4.586 -0.7896 -0.1470  1.2876
13913SOL    HW242812   6.537   2.225   4.679  1.7020 -0.1181 -0.1627
13914SOL     OW42813   7.143   6.287   3.179 -0.4228 -0.2130 -0.2602
13914SOL    HW142814   7.229   6.248   3.196  0.6664  2.0193 -0.3458
13914SOL    HW242815   7.113   6.319   3.263 -1.4495 -1.4016 -0.1380
13915SOL     OW42816   7.872   2.558   5.238 -0.1409 -0.0719 -0.0151
13915SOL    HW142817   7.777   2.553   5.245 -0.1385  0.0850  0.1486
13915SOL    HW242818   7.899   2.471   5.211 -0.3396 -0.0886 -0.1646
13916SOL     OW42819   5.283   2.640   1.799  0.1671  0.7003  0.1660
13916SOL    HW142820   5.321   2.710   1.746  2.4312 -0.5754 -0.0214
13916SOL    HW242821   5.317   2.656   1.887 -0.9751  0.9732  0.5733
13917SOL     OW42822   7.520   0.786   3.976  0.0866  0.3407 -0.1669
13917SOL    HW142823   7.542   0.856   4.037 -1.5853  0.7308  0.0554
13917SOL    HW242824   7.469   0.829   3.908 -0.3976 -0.5364 -0.3718
13918SOL     OW42825   3.444   1.720   6.219 -0.3738 -0.0363  0.1111
13918SOL    HW142826   3.518   1.774   6.188  0.5276  0.1083  2.3352
13918SOL    HW242827   3.392   1.780   6.272 -1.8577 -0.2849 -0.9929
13919SOL     OW42828   0.055   0.496   0.591 -0.0429 -0.7622 -0.5456
13919SOL    HW142829   0.115   0.481   0.518  0.3902  1.5406 -0.7254
13919SOL    HW242830  -0.008   0.560   0.558 -1.0792 -1.2089  0.4762
13920SOL     OW42831   7.691   4.428   4.741  0.4165 -0.3114  0.5856
13920SOL    HW142832   7.763   4.398   4.686 -1.0950 -0.4320 -1.4242
13920SOL    HW242833   7.717   4.517   4.767  0.7838  0.1132 -1.0956
13921SOL     OW42834   2.271   4.680   5.031 -0.3435  0.1147 -0.3411
13921SOL    HW142835   2.318   4.719   4.956 -0.7451 -0.2973 -0.8148
13921SOL    HW242836   2.181   4.670   5.000 -0.6358  0.4107  0.3856
13922SOL     OW42837   2.775   0.941   7.642  0.4790 -0.0381  0.8231
13922SOL    HW142838   2.772   0.987   7.558 -2.5001 -0.2921  0.6507
13922SOL    HW242839   2.861   0.899   7.644  0.4469 -0.5302 -2.3976
13923SOL     OW42840   2.370   1.031   8.100  0.2998  0.2578  0.1287
13923SOL    HW142841   2.325   0.951   8.125 -1.3209  0.5184 -1.6483
13923SOL    HW242842   2.412   1.010   8.016 -0.8159  1.4194 -0.7692
13924SOL     OW42843   0.758   3.938   6.550  0.3358 -0.2765 -0.8802
13924SOL    HW142844   0.757   3.950   6.455  1.4208  1.2280 -0.7347
13924SOL    HW242845   0.846   3.965   6.577 -0.3466  0.5339  0.6795
13925SOL     OW42846   0.694   5.048   5.115  0.0907  0.8229  0.2436
13925SOL    HW142847   0.602   5.033   5.092  0.6609  0.6228 -2.2565
13925SOL    HW242848   0.695   5.047   5.211 -2.4540  0.5842  0.3574
13926SOL     OW42849   0.189   2.863   2.917 -0.3408 -0.0170 -0.3149
13926SOL    HW142850   0.168   2.781   2.961  0.3991  0.9463  1.9911
13926SOL    HW242851   0.179   2.930   2.985  1.7235  1.4734 -1.3612
13927SOL     OW42852   5.152   7.711   6.736 -0.2922 -0.0662  0.0650
13927SOL    HW142853   5.061   7.723   6.711 -0.4825  1.3085  1.2344
13927SOL    HW242854   5.172   7.789   6.788  1.2246 -0.8684  0.7357
13928SOL     OW42855   0.818   7.749   1.683  0.8635 -0.3233 -0.4045
13928SOL    HW142856   0.809   7.654   1.683  0.2551 -0.2721 -0.9698
13928SOL    HW242857   0.913   7.763   1.691  0.7872 -0.8944  3.0347
13929SOL     OW42858   4.758   3.313   2.953 -0.6003 -0.6927 -0.7989
13929SOL    HW142859   4.716   3.239   2.909 -0.0511 -0.9256 -0.9344
13929SOL    HW242860   4.822   3.346   2.890  0.7289 -1.4991  0.0860
13930SOL     OW42861   4.074   7.694   1.966 -0.1289  0.0949 -0.1416
13930SOL    HW142862   4.067   7.606   1.930 -0.2849 -1.0549  2.4916
13930SOL    HW242863   3.989   7.734   1.948 -0.0398 -0.2404 -1.4011
13931SOL     OW42864   5.765   0.250   2.702 -0.6252 -0.5617  0.3765
13931SOL    HW142865   5.764   0.155   2.708 -0.3693 -0.5776  0.1653
13931SOL    HW242866   5.743   0.280   2.791 -0.0781 -0.8154  0.5973
13932SOL     OW42867   4.883   2.379   7.987 -0.1135 -0.0053  0.4372
13932SOL    HW142868   4.819   2.365   7.918 -0.6161  1.6258  0.5224
13932SOL    HW242869   4.950   2.434   7.947 -0.3729  0.8931  1.1908
13933SOL     OW42870   6.794   6.924   2.819  0.1796  0.2445 -0.3121
13933SOL    HW142871   6.813   6.960   2.906 -0.2760  0.1277 -0.1605
13933SOL    HW242872   6.759   6.998   2.770 -0.3798  0.1084 -0.1245
13934SOL     OW42873   0.012   4.598   4.859  0.1507  0.1486  0.5725
13934SOL    HW142874   0.071   4.528   4.831 -0.4901 -0.3814  0.5115
13934SOL    HW242875  -0.031   4.563   4.937 -1.8223 -0.4789 -0.7146
13935SOL     OW42876   1.976   4.783   7.063  0.3789  0.1420 -0.1879
13935SOL    HW142877   1.941   4.826   7.142  1.3636  0.1249  0.2700
13935SOL    HW242878   1.939   4.832   6.990  1.4947  1.8034  0.3252
13936SOL     OW42879   1.909   5.107   4.287  0.5423 -0.9989 -0.1476
13936SOL    HW142880   1.864   5.112   4.203 -0.3588  0.4902  0.3791
13936SOL    HW242881   1.861   5.168   4.343  2.2082 -0.6152  0.9249
13937SOL     OW42882   6.072   0.756   7.667 -0.0285 -0.4521 -0.8183
13937SOL    HW142883   6.005   0.699   7.631  0.9866  0.0886 -3.8338
13937SOL    HW242884   6.112   0.705   7.738 -2.1040 -1.6201 -0.4185
13938SOL     OW42885   5.504   2.120   3.087 -0.7761  0.0944 -0.3070
13938SOL    HW142886   5.597   2.121   3.107 -0.9766  2.0228  0.6883
13938SOL    HW242887   5.469   2.200   3.126 -2.6718 -0.0459 -1.5547
13939SOL     OW42888   7.059   3.434   3.438 -0.7366  0.5951 -0.8509
13939SOL    HW142889   7.077   3.345   3.466 -0.2158  1.0945  0.5017
13939SOL    HW242890   6.987   3.426   3.375 -0.7548 -0.7493 -0.6855
13940SOL     OW42891   7.973   6.372   6.279  0.2691 -0.1927  0.0444
13940SOL    HW142892   7.976   6.419   6.196  0.4084  1.8128  1.1337
13940SOL    HW242893   8.044   6.409   6.331 -0.5573 -0.5596  1.4902
13941SOL     OW42894   3.839   6.000   0.996 -0.0149  0.1341 -0.2068
13941SOL    HW142895   3.896   6.076   0.993 -0.7977  0.7027 -1.0494
13941SOL    HW242896   3.828   5.982   1.089  0.8413  0.5406 -0.0218
13942SOL     OW42897   0.948   5.096   3.077  0.4940 -0.1102  0.0030
13942SOL    HW142898   0.915   5.185   3.073  0.5770 -0.1256 -1.5697
13942SOL    HW242899   1.032   5.099   3.032  1.2741 -0.6682  1.3711
13943SOL     OW42900   3.699   2.604   7.282  0.0748  0.5333 -0.4572
13943SOL    HW142901   3.743   2.659   7.346  0.0404 -0.9235  0.8819
13943SOL    HW242902   3.733   2.633   7.197  0.7246  1.9659  0.2677
13944SOL     OW42903   5.147   3.182   3.964  0.4940  0.5456 -0.0617
13944SOL    HW142904   5.093   3.108   3.937 -0.3221  0.0772  2.5862
13944SOL    HW242905   5.109   3.257   3.919 -1.3940 -0.0358  0.4394
13945SOL     OW42906   4.787   7.169   7.219  0.2695 -0.0486 -0.2375
13945SOL    HW142907   4.793   7.217   7.136 -0.6163  0.5128  0.0073
13945SOL    HW242908   4.825   7.229   7.284 -2.5163  1.1886  0.3866
13946SOL     OW42909   0.583   2.053   5.929  0.1535  0.1623 -0.3296
13946SOL    HW142910   0.559   2.145   5.919 -0.8508 -0.0430  0.1422
13946SOL    HW242911   0.560   2.031   6.019  2.7586  0.1237  0.4320
13947SOL     OW42912   7.195   2.843   1.694 -0.8992  0.0318  0.2673
13947SOL    HW142913   7.100   2.848   1.712 -0.6589 -2.0302  2.7127
13947SOL    HW242914   7.235   2.877   1.774  0.3635 -2.6131  0.8575
13948SOL     OW42915   1.852   2.282   3.235  0.3859  0.0599 -0.9082
13948SOL    HW142916   1.852   2.257   3.142  0.8896  0.7774 -1.1147
13948SOL    HW242917   1.945   2.289   3.258  0.3031  1.9789 -0.9558
13949SOL     OW42918   7.210   7.818   1.856 -0.1872 -0.0244  0.5623
13949SOL    HW142919   7.176   7.729   1.852 -0.2630  0.0002  0.6516
13949SOL    HW242920   7.150   7.864   1.915 -1.0552  0.4905 -0.6725
13950SOL     OW42921   6.112   5.288   6.099 -0.2007  0.2881  0.1646
13950SOL    HW142922   6.099   5.382   6.102 -0.1465  0.3650 -1.4274
13950SOL    HW242923   6.070   5.260   6.017 -0.0500 -1.0387  0.5101
13951SOL     OW42924   6.925   2.327   5.886 -0.1877  0.2363  0.0904
13951SOL    HW142925   6.854   2.265   5.904  1.5210 -1.7757  0.2587
13951SOL    HW242926   6.982   2.320   5.962  2.6495 -1.8849 -2.0099
13952SOL     OW42927   6.047   6.023   7.168 -0.1285 -0.4139  0.3998
13952SOL    HW142928   6.052   5.935   7.130  0.0072  0.1207 -0.8923
13952SOL    HW242929   6.093   6.079   7.105 -1.6057  0.8360  0.3772
13953SOL     OW42930   3.807   4.604   4.876  0.2214 -0.1028 -0.0075
13953SOL    HW142931   3.718   4.580   4.849  0.6810 -1.9276 -0.0838
13953SOL    HW242932   3.861   4.531   4.845  1.6309  0.6017  0.7116
13954SOL     OW42933   5.073   3.699   5.732  0.4973 -0.4862 -0.6495
13954SOL    HW142934   5.151   3.752   5.714  1.9199 -1.9101  0.9575
13954SOL    HW242935   5.021   3.706   5.652  1.5302  1.7269 -1.2069
13955SOL     OW42936   7.156   4.855   3.995  0.4587  0.3663  0.0786
13955SOL    HW142937   7.182   4.778   3.944 -0.1209  0.4131 -0.2971
13955SOL    HW242938   7.222   4.861   4.064  1.6271  0.6670 -1.0239
13956SOL     OW42939   3.053   1.728   3.735  0.1184 -0.2375  0.8408
13956SOL    HW142940   2.996   1.800   3.761  2.0566  1.0407  1.7688
13956SOL    HW242941   3.141   1.767   3.729  1.0405 -2.2655  0.2021
13957SOL     OW42942   4.459   5.616   1.369  0.2731  0.3469  0.0198
13957SOL    HW142943   4.373   5.604   1.409 -0.1630  0.0524 -0.9769
13957SOL    HW242944   4.504   5.678   1.427  0.1862 -1.1109  1.7106
13958SOL     OW42945   3.059   3.805   1.528 -0.0779  0.3702 -0.1515
13958SOL    HW142946   3.008   3.724   1.532  0.9273 -0.2553  0.4118
13958SOL    HW242947   3.129   3.793   1.592  0.2145  1.6046 -0.2079
13959SOL     OW42948   1.699   1.208   0.862 -0.0731 -0.3758 -0.4066
13959SOL    HW142949   1.791   1.228   0.849  0.1571 -1.8853 -1.4220
13959SOL    HW242950   1.665   1.280   0.915  1.0443  1.6416 -2.2924
13960SOL     OW42951   1.023   4.639   6.703 -0.2172  0.0009 -0.1150
13960SOL    HW142952   1.109   4.597   6.710 -0.6141 -0.7176  0.5976
13960SOL    HW242953   0.987   4.635   6.792 -1.2101 -0.1770 -0.5136
13961SOL     OW42954   4.018   0.614   0.696 -0.4240 -0.2658  0.1511
13961SOL    HW142955   3.965   0.684   0.657  0.7773  0.4394 -0.2753
13961SOL    HW242956   4.072   0.582   0.624  1.3432  0.5886  1.0247
13962SOL     OW42957   3.257   6.266   1.239 -0.0137 -0.4017 -0.0117
13962SOL    HW142958   3.214   6.181   1.250  1.1796 -0.8892  1.0405
13962SOL    HW242959   3.302   6.259   1.155 -0.7740 -0.4187 -0.4250
13963SOL     OW42960   4.968   7.684   2.417 -0.0910  0.3581 -0.4276
13963SOL    HW142961   4.983   7.592   2.397  0.6968  0.2981  0.4002
13963SOL    HW242962   5.017   7.731   2.350 -1.3239  0.2011 -1.4750
13964SOL     OW42963   8.143   0.531   6.679 -0.0778 -0.4355  0.4903
13964SOL    HW142964   8.227   0.509   6.721  0.1392 -1.2337 -0.3174
13964SOL    HW242965   8.134   0.625   6.692  1.4068 -0.1603 -0.1875
13965SOL     OW42966   6.127   4.752   1.519  0.1427  0.2885  0.2537
13965SOL    HW142967   6.059   4.811   1.488  0.0205 -0.6625 -1.3817
13965SOL    HW242968   6.126   4.679   1.457  2.0658 -0.1669  0.6907
13966SOL     OW42969   6.185   5.651   0.837  0.3304 -0.0796 -0.3335
13966SOL    HW142970   6.151   5.563   0.853  0.4070 -0.3599 -1.5719
13966SOL    HW242971   6.270   5.653   0.881  0.7032 -0.9306 -0.9732
13967SOL     OW42972   2.672   2.636   7.814  0.0763 -0.3277  0.1125
13967SOL    HW142973   2.659   2.609   7.905 -1.4732 -0.0972 -0.0183
13967SOL    HW242974   2.643   2.561   7.762 -0.6151  0.1517 -0.2046
13968SOL     OW42975   6.166   2.092   1.893  0.5251 -0.2532  0.7160
13968SOL    HW142976   6.151   2.067   1.802 -0.7186 -0.2053  0.8908
13968SOL    HW242977   6.237   2.157   1.889 -0.0247  0.3058 -0.2915
13969SOL     OW42978   5.904   2.899   1.562  0.6377  0.0074  0.2712
13969SOL    HW142979   5.896   2.859   1.476 -0.8820 -0.8979  0.7904
13969SOL    HW242980   5.844   2.848   1.617  0.4135  1.5462  1.5031
13970SOL     OW42981   5.682   2.681   4.904 -0.1288  0.4028  0.4164
13970SOL    HW142982   5.615   2.687   4.972  0.3323 -0.2409  0.9396
13970SOL    HW242983   5.744   2.751   4.925  0.4716 -0.3396  1.1839
13971SOL     OW42984   2.904   7.303   0.130  0.0984 -0.4011 -0.0330
13971SOL    HW142985   2.880   7.364   0.060  1.2449 -0.0682 -0.1671
13971SOL    HW242986   2.842   7.321   0.200 -0.7447 -0.3770 -0.7577
13972SOL     OW42987   2.440   0.376   2.141  0.1058 -0.1666 -0.0313
13972SOL    HW142988   2.517   0.352   2.192 -0.8378 -0.4037  1.3117
13972SOL    HW242989   2.403   0.452   2.186 -0.9208 -0.5714 -0.1676
13973SOL     OW42990   5.042   0.941   2.838  0.3743 -0.3667 -0.4870
13973SOL    HW142991   5.068   1.015   2.783 -0.2067  0.6961  0.6220
13973SOL    HW242992   5.124   0.908   2.875  0.6183 -0.1333 -0.8189
13974SOL     OW42993   7.382   2.494   3.248 -0.1288  0.3371 -0.4558
13974SOL    HW142994   7.430   2.420   3.286 -1.2708  0.4745  1.4145
13974SOL    HW242995   7.449   2.558   3.226  0.8437 -1.0388 -1.6767
13975SOL     OW42996   1.170   4.317   6.268  0.3433 -0.3275  0.4235
13975SOL    HW142997   1.089   4.367   6.284 -0.4542 -0.4952 -2.5382
13975SOL    HW242998   1.237   4.366   6.316 -0.9085  1.9023  0.0653
13976SOL     OW42999   6.121   2.111   3.455 -0.3709  0.0534  0.0459
13976SOL    HW143000   6.191   2.170   3.484  0.7924 -0.8907 -0.7972
13976SOL    HW243001   6.088   2.151   3.375  0.1787 -0.2517 -0.3340
13977SOL     OW43002   1.473   2.254   6.556  0.0434  0.4510  0.6128
13977SOL    HW143003   1.414   2.250   6.481 -0.2443  1.3736  0.7737
13977SOL    HW243004   1.476   2.347   6.579 -0.6477  0.0879  2.3404
13978SOL     OW43005   1.603   5.659   5.550 -0.3168  0.2426  0.0402
13978SOL    HW143006   1.577   5.703   5.631 -1.5932  2.9373 -1.6737
13978SOL    HW243007   1.647   5.580   5.579  2.4768  2.7322  3.4726
13979SOL     OW43008   4.216   0.445   3.164  0.0261  0.3699  0.0829
13979SOL    HW143009   4.168   0.507   3.219  1.7458  2.6520 -0.8600
13979SOL    HW243010   4.262   0.389   3.226 -0.7228  0.6829  0.9582
13980SOL     OW43011   0.174   2.865   1.673  0.3492 -0.0686 -0.6953
13980SOL    HW143012   0.194   2.955   1.696 -0.7115 -0.4698  2.3190
13980SOL    HW243013   0.249   2.835   1.622  2.4871  1.4314  1.3775
13981SOL     OW43014   0.162   2.202   3.941  0.7223  0.1459  0.1329
13981SOL    HW143015   0.215   2.124   3.954  2.3865  1.3551  0.9537
13981SOL    HW243016   0.106   2.207   4.018  1.6280  0.4947  0.7899
13982SOL     OW43017   5.347   4.194   6.499 -0.0122  0.2190 -0.5079
13982SOL    HW143018   5.404   4.179   6.424  0.8819 -0.9290  0.3678
13982SOL    HW243019   5.285   4.121   6.498  0.6424 -0.3687  0.4296
13983SOL     OW43020   3.173   6.916   4.430  0.0088 -0.0070  0.1316
13983SOL    HW143021   3.193   6.830   4.394  0.0947 -0.2978  0.8569
13983SOL    HW243022   3.229   6.923   4.507  0.1153  0.7626 -0.0069
13984SOL     OW43023   7.405   4.945   3.614 -0.0452 -0.0764 -0.2375
13984SOL    HW143024   7.455   5.005   3.559 -0.5185  0.7519  0.2077
13984SOL    HW243025   7.467   4.918   3.682  0.3524 -0.6051 -0.7953
13985SOL     OW43026   7.981   7.935   1.035 -0.4624 -0.5940 -0.4255
13985SOL    HW143027   7.954   8.027   1.034  0.1399 -0.4101 -0.4708
13985SOL    HW243028   8.062   7.933   0.985  0.1703 -0.9368  0.5651
13986SOL     OW43029   3.104   6.549   4.157 -0.1729 -0.7801  0.7793
13986SOL    HW143030   3.036   6.534   4.223  0.8180 -1.8897  1.6044
13986SOL    HW243031   3.168   6.479   4.173  1.0262  0.0657 -0.1469
13987SOL     OW43032   2.098   6.096   7.945  0.2207 -0.4753  0.2918
13987SOL    HW143033   2.106   6.026   7.881  3.8882  1.8044 -2.1822
13987SOL    HW243034   2.043   6.162   7.902  3.1903  1.3293 -1.0621
13988SOL     OW43035   6.092   4.494   1.674 -0.4424  0.3297  0.6340
13988SOL    HW143036   6.086   4.580   1.632 -0.3543 -0.5848 -1.3296
13988SOL    HW243037   6.004   4.479   1.709 -0.2678  1.5056  1.6799
13989SOL     OW43038   0.693   1.111   6.878 -0.0973 -0.0012 -0.5694
13989SOL    HW143039   0.755   1.174   6.840  0.3477 -0.6307 -0.9062
13989SOL    HW243040   0.617   1.114   6.820 -0.1446  0.3370 -0.4943
13990SOL     OW43041   7.608   5.922   0.786 -0.1120  0.7589 -0.2089
13990SOL    HW143042   7.618   6.011   0.754 -0.0791  0.5642 -0.7415
13990SOL    HW243043   7.640   5.926   0.877 -0.6895  1.4136 -0.0269
13991SOL     OW43044   4.422   0.373   5.050 -0.1723 -0.1571  0.1002
13991SOL    HW143045   4.376   0.440   4.999  0.0599 -0.6308 -0.7596
13991SOL    HW243046   4.510   0.370   5.012 -0.6869 -2.1753 -1.1020
13992SOL     OW43047   1.494   3.752   5.312  0.6144 -0.0309  0.5241
13992SOL    HW143048   1.580   3.766   5.350  0.6035  1.8291 -0.0520
13992SOL    HW243049   1.433   3.789   5.376  0.4258  0.8455 -0.1476
13993SOL     OW43050   0.832   0.250   0.204 -0.0446 -0.3167  0.6978
13993SOL    HW143051   0.802   0.250   0.113 -0.6807 -0.4458  0.9064
13993SOL    HW243052   0.922   0.282   0.199 -0.8512  2.0577  0.2801
13994SOL     OW43053   1.066   6.034   0.271  0.2845  0.1153 -0.0782
13994SOL    HW143054   1.034   6.124   0.265  1.0233  0.3136 -2.2807
13994SOL    HW243055   0.987   5.981   0.283 -0.2341  1.0069  0.5166
13995SOL     OW43056   0.865   4.093   0.132  0.3453 -0.3159 -0.1176
13995SOL    HW143057   0.949   4.110   0.174  0.1962  0.8186 -0.2661
13995SOL    HW243058   0.882   4.102   0.039 -0.0222  0.3135 -0.1274
13996SOL     OW43059   0.903   6.646   3.888  0.2397 -0.6373  0.0110
13996SOL    HW143060   0.893   6.696   3.808 -1.1341 -0.7534  0.0928
13996SOL    HW243061   0.821   6.657   3.935  1.1856 -0.1609  1.6614
13997SOL     OW43062   7.362   2.147   6.012  0.2245 -1.2672  0.1890
13997SOL    HW143063   7.374   2.067   6.063 -1.6796 -0.9912  1.1583
13997SOL    HW243064   7.298   2.198   6.062  1.7515  1.1110 -0.1256
13998SOL     OW43065   5.065   2.972   0.237  0.4418  0.3707 -0.5417
13998SOL    HW143066   5.048   2.924   0.318  2.1340  0.8360  0.1130
13998SOL    HW243067   5.046   3.063   0.259  0.0052  0.3884 -0.9618
13999SOL     OW43068   3.791   5.069   0.924  0.0752 -0.7821 -0.4107
13999SOL    HW143069   3.880   5.085   0.956  0.2258  0.7032 -1.4617
13999SOL    HW243070   3.796   4.982   0.884  1.5154 -0.0764 -1.8730
14000SOL     OW43071   0.486   3.923   7.883 -0.7374  0.1187  0.0227
14000SOL    HW143072   0.491   3.992   7.948  0.7872  0.7072 -0.6811
14000SOL    HW243073   0.561   3.867   7.901 -0.2916  0.2948 -1.1974
14001SOL     OW43074   7.572   7.902   3.087  0.0306  0.1656  0.2937
14001SOL    HW143075   7.512   7.971   3.059  0.8303  1.4795  1.6438
14001SOL    HW243076   7.519   7.842   3.138 -0.6986 -0.2985 -0.9708
14002SOL     OW43077   2.659   1.077   0.333 -0.0795  0.2261  0.1677
14002SOL    HW143078   2.589   1.134   0.301  0.0174  0.3064  0.0970
14002SOL    HW243079   2.637   1.060   0.425 -0.8988 -0.8143 -0.1972
14003SOL     OW43080   3.154   7.584   1.019 -0.4148 -0.0582 -0.0163
14003SOL    HW143081   3.205   7.632   1.085  0.5480 -0.3915 -0.5089
14003SOL    HW243082   3.112   7.653   0.968  0.6127  0.2668 -0.4436
14004SOL     OW43083   7.442   7.171   0.810  0.4445  0.4021 -0.1104
14004SOL    HW143084   7.523   7.132   0.843  0.1397 -0.6848 -0.6047
14004SOL    HW243085   7.373   7.137   0.868 -0.2814 -2.5738 -2.4807
14005SOL     OW43086   5.108   1.115   0.426 -0.4926 -0.4135 -0.6680
14005SOL    HW143087   5.202   1.105   0.411 -0.7468 -0.3185 -2.5647
14005SOL    HW243088   5.096   1.208   0.446 -0.1332 -0.5452  0.2189
14006SOL     OW43089   1.683   1.576   5.485 -0.4075  0.3525  0.4649
14006SOL    HW143090   1.590   1.556   5.471 -0.1197 -1.0204  0.4100
14006SOL    HW243091   1.704   1.535   5.569 -0.1893  1.8870  1.1850
14007SOL     OW43092   2.312   2.138   4.609 -0.4723 -0.1639 -0.0196
14007SOL    HW143093   2.405   2.130   4.630 -0.8319 -2.8318  0.9572
14007SOL    HW243094   2.310   2.173   4.520  1.5522 -1.8759 -0.8266
14008SOL     OW43095   4.300   0.921   0.788 -0.3445  0.3200 -0.4182
14008SOL    HW143096   4.247   0.993   0.821 -0.4191  0.5706 -1.0793
14008SOL    HW243097   4.287   0.923   0.693  0.3279 -0.0291 -0.5219
14009SOL     OW43098   1.655   2.073   1.257 -0.4084  0.1782  0.0583
14009SOL    HW143099   1.625   2.161   1.233  0.1300  0.6023  0.8707
14009SOL    HW243100   1.744   2.087   1.291  0.0557 -0.8093 -0.6997
14010SOL     OW43101   0.655   1.339   1.270 -0.2516  0.1464 -0.1439
14010SOL    HW143102   0.650   1.383   1.356 -0.4296  0.3155 -0.2379
14010SOL    HW243103   0.593   1.388   1.216 -0.1829  0.0005 -0.3523
14011SOL     OW43104   0.519   7.655   4.538  0.1682 -0.0137  0.6833
14011SOL    HW143105   0.483   7.739   4.568 -0.2002  0.2137 -0.3462
14011SOL    HW243106   0.450   7.617   4.483 -0.0738 -1.4860  1.9522
14012SOL     OW43107   6.704   3.836   5.664  0.5284  0.6824  1.0943
14012SOL    HW143108   6.630   3.834   5.603 -0.4123  1.2942  2.1631
14012SOL    HW243109   6.687   3.912   5.720  0.4059 -0.8402  3.2477
14013SOL     OW43110   2.582   1.354   2.136 -0.2875 -0.6790  0.9577
14013SOL    HW143111   2.626   1.390   2.059 -1.1046  1.2016  1.2937
14013SOL    HW243112   2.633   1.277   2.160  0.6902 -0.5992 -0.7322
14014SOL     OW43113   7.837   7.083   2.761 -0.1728  0.1869 -0.3975
14014SOL    HW143114   7.766   7.125   2.712 -0.0050 -0.5756 -1.2992
14014SOL    HW243115   7.829   6.990   2.741  0.1028 -0.1143  0.7713
14015SOL     OW43116   3.951   2.038   6.356 -0.4283 -0.1898 -0.4974
14015SOL    HW143117   3.906   2.050   6.273 -1.2282  0.6329  0.0475
14015SOL    HW243118   3.900   1.971   6.402 -0.8719  0.4526 -0.0457
14016SOL     OW43119   5.090   7.280   2.625 -0.1083 -0.2043  0.2498
14016SOL    HW143120   5.142   7.275   2.545  2.2541 -3.2219  1.7767
14016SOL    HW243121   5.019   7.217   2.612 -0.6889  0.4983 -0.0484
14017SOL     OW43122   5.788   2.164   7.327  0.0019 -0.1105  0.3886
14017SOL    HW143123   5.763   2.072   7.336  1.4563 -0.5451  0.3136
14017SOL    HW243124   5.833   2.168   7.243  0.1720  0.6062  0.5114
14018SOL     OW43125   2.802   2.326   7.998  0.9416 -0.6802  0.4312
14018SOL    HW143126   2.811   2.394   7.931  1.9585  0.0619  1.2708
14018SOL    HW243127   2.783   2.246   7.950 -0.6329  0.2615 -0.5654
14019SOL     OW43128   3.608   7.771   2.336  0.2785  0.0792  0.4206
14019SOL    HW143129   3.549   7.723   2.278  1.0687 -0.9415  0.4184
14019SOL    HW243130   3.616   7.858   2.297 -1.7344  0.4734  0.8024
14020SOL     OW43131   0.627   5.733   2.198 -0.0084  0.4741 -0.1236
14020SOL    HW143132   0.628   5.645   2.234 -1.4123 -0.6403 -2.5705
14020SOL    HW243133   0.535   5.760   2.203  0.5045  2.1292  1.2251
14021SOL     OW43134   2.813   0.567   8.136 -0.3961  0.0397  0.1781
14021SOL    HW143135   2.843   0.657   8.147  0.1112 -0.1209  0.1428
14021SOL    HW243136   2.782   0.562   8.046  0.9238 -0.1922 -0.2899
14022SOL     OW43137   2.438   7.857   3.157  0.1703  0.1971 -0.0041
14022SOL    HW143138   2.370   7.789   3.152 -1.1914  1.5376 -0.4207
14022SOL    HW243139   2.473   7.849   3.246  1.1978 -2.0748 -0.5250
14023SOL     OW43140   7.401   7.384   0.521  0.0583 -0.2623  0.2572
14023SOL    HW143141   7.410   7.327   0.444  0.1011 -0.5330  0.4621
14023SOL    HW243142   7.453   7.461   0.499 -0.5983  0.0187 -0.3249
14024SOL     OW43143   1.776   3.224   5.340  0.0425 -0.1410  0.3152
14024SOL    HW143144   1.774   3.308   5.295  1.5309 -0.6493 -0.7675
14024SOL    HW243145   1.690   3.217   5.381 -0.2251  1.7398  0.1413
14025SOL     OW43146   1.393   3.693   2.976 -0.3027  0.1480 -0.6332
14025SOL    HW143147   1.462   3.629   2.961 -1.7366 -1.4427 -0.8357
14025SOL    HW243148   1.324   3.643   3.021 -0.3696  2.2356  1.7788
14026SOL     OW43149   0.366   7.519   4.353 -0.7868  0.1062 -0.0720
14026SOL    HW143150   0.401   7.431   4.343  1.7783  1.0042  0.3380
14026SOL    HW243151   0.357   7.551   4.263  0.2519  0.1369 -0.1708
14027SOL     OW43152   0.332   5.767   3.090 -0.0556 -0.5111 -0.1591
14027SOL    HW143153   0.358   5.849   3.132 -1.6521 -0.0221 -0.0601
14027SOL    HW243154   0.287   5.719   3.159 -0.4863 -0.7944 -0.6369
14028SOL     OW43155   5.558   1.980   1.481 -0.6657 -0.0579  0.2112
14028SOL    HW143156   5.532   2.052   1.423  1.2796  0.3076 -0.3024
14028SOL    HW243157   5.512   1.997   1.563 -0.0896  1.9588  0.1791
14029SOL     OW43158   5.819   6.007   5.390  0.0742 -0.0055 -0.2616
14029SOL    HW143159   5.872   5.991   5.468  0.6279 -0.1062 -0.6559
14029SOL    HW243160   5.844   6.095   5.361 -2.1898  1.2701  1.2845
14030SOL     OW43161   4.577   0.723   1.630 -0.0526  0.0590  0.3423
14030SOL    HW143162   4.638   0.789   1.663 -0.2658  0.1064  0.6439
14030SOL    HW243163   4.491   0.764   1.638 -0.1937 -0.2836  0.6021
14031SOL     OW43164   5.680   1.347   1.328  1.1738 -0.5662 -0.0916
14031SOL    HW143165   5.633   1.323   1.248  2.3464 -1.3065 -0.5800
14031SOL    HW243166   5.710   1.436   1.312  1.2978 -0.6665 -0.4305
14032SOL     OW43167   5.030   4.754   0.114  0.2022  0.6377  0.4648
14032SOL    HW143168   5.054   4.732   0.204  0.9250 -1.8698 -0.2656
14032SOL    HW243169   5.044   4.673   0.065 -0.0895  1.9539 -1.9383
14033SOL     OW43170   5.416   5.740   7.143  0.0151  0.2938 -0.4554
14033SOL    HW143171   5.442   5.649   7.136 -0.2651  0.0838  0.8311
14033SOL    HW243172   5.361   5.756   7.067 -2.2614 -1.4649  0.6874
14034SOL     OW43173   0.939   0.034   4.300 -0.1958 -0.2511 -0.0993
14034SOL    HW143174   0.943  -0.053   4.261  0.5433  0.0179 -0.6464
14034SOL    HW243175   0.855   0.070   4.270 -1.9573 -1.8378  2.4969
14035SOL     OW43176   0.688   6.246   1.372 -1.2629 -0.0716 -0.0227
14035SOL    HW143177   0.619   6.181   1.380 -0.8684 -0.4110  0.7025
14035SOL    HW243178   0.710   6.270   1.462 -1.3968  1.0645 -0.2808
14036SOL     OW43179   5.001   2.465   5.138 -0.3005  0.1920 -0.0877
14036SOL    HW143180   5.014   2.457   5.043  1.0252  0.6133  0.0406
14036SOL    HW243181   5.057   2.397   5.176 -1.7445 -0.7825  0.3688
14037SOL     OW43182   0.007   5.694   1.473  0.0139 -0.1667  0.1865
14037SOL    HW143183  -0.014   5.777   1.517  0.7943  0.7214 -1.0796
14037SOL    HW243184   0.056   5.645   1.539  0.3323  0.7404  0.6528
14038SOL     OW43185   6.026   2.819   3.675  0.1976 -0.1496  0.3486
14038SOL    HW143186   6.056   2.744   3.625  1.4089  0.0448  0.7501
14038SOL    HW243187   5.996   2.783   3.758  1.9330 -0.0996  1.0309
14039SOL     OW43188   6.984   4.032   1.693  0.7183  0.0379 -0.1165
14039SOL    HW143189   7.047   4.084   1.742 -0.0421  1.6680 -0.7833
14039SOL    HW243190   6.902   4.041   1.741  0.6646 -0.9386 -0.0025
14040SOL     OW43191   6.937   3.355   2.096 -0.4838 -0.9818  0.0366
14040SOL    HW143192   6.924   3.355   2.001 -2.4022 -0.8930  0.2502
14040SOL    HW243193   6.947   3.447   2.119  0.4833 -1.0421 -0.1296
14041SOL     OW43194   1.543   6.908   4.057 -0.0396  0.1606 -0.5864
14041SOL    HW143195   1.482   6.973   4.025  1.1290  2.5408  1.6727
14041SOL    HW243196   1.629   6.949   4.048  0.6173 -0.3929  2.2211
14042SOL     OW43197   6.536   6.842   3.424  0.3175  0.2704 -0.6478
14042SOL    HW143198   6.609   6.781   3.427 -0.7870 -1.0662  1.6055
14042SOL    HW243199   6.505   6.839   3.333  2.5585  0.3426 -1.4639
14043SOL     OW43200   7.947   7.342   4.857  0.0858 -0.1724 -0.0854
14043SOL    HW143201   7.938   7.356   4.763  1.1268 -0.3328 -0.2207
14043SOL    HW243202   7.975   7.427   4.891 -0.0339 -0.1834  0.0404
14044SOL     OW43203   3.260   1.854   3.078 -0.3077  0.4392 -0.0928
14044SOL    HW143204   3.283   1.765   3.105 -1.9135  0.5730  1.8789
14044SOL    HW243205   3.340   1.905   3.093  0.2687 -0.4198 -0.1548
14045SOL     OW43206   6.560   3.909   7.922 -0.2880  0.7134 -0.0131
14045SOL    HW143207   6.480   3.887   7.970 -0.0522  1.0562  0.5492
14045SOL    HW243208   6.537   3.900   7.830 -0.2586 -1.8133  0.1547
14046SOL     OW43209   2.764   1.982   0.374  0.3142 -0.0615  0.0840
14046SOL    HW143210   2.817   2.008   0.450 -0.0401 -1.4579  0.8374
14046SOL    HW243211   2.823   1.993   0.299  1.1043  0.0624  0.7037
14047SOL     OW43212   7.576   3.374   4.077  0.5247  0.7756  0.3141
14047SOL    HW143213   7.607   3.343   4.162  2.1695  0.2172 -0.4311
14047SOL    HW243214   7.643   3.436   4.048  0.6249  0.0733 -1.0684
14048SOL     OW43215   3.904   4.113   7.813  0.6875 -0.2170 -0.6277
14048SOL    HW143216   3.860   4.188   7.854 -0.3506 -0.7135 -0.8064
14048SOL    HW243217   3.998   4.132   7.823  0.4514  0.3428  0.7414
14049SOL     OW43218   1.058   2.615   5.652 -0.3766  0.5524 -0.1983
14049SOL    HW143219   1.022   2.673   5.719 -0.3177  1.2713 -0.7800
14049SOL    HW243220   0.988   2.551   5.636  0.6818 -1.5077  2.6708
14050SOL     OW43221   3.421   0.385   4.869  0.3370  0.1071 -0.7103
14050SOL    HW143222   3.503   0.376   4.919  0.9497  0.0647 -1.6950
14050SOL    HW243223   3.449   0.421   4.785 -0.8642  1.6747 -0.4806
14051SOL     OW43224   5.531   2.734   4.210  0.0602  0.1573 -0.0658
14051SOL    HW143225   5.437   2.743   4.228  0.2199 -0.2314  1.0133
14051SOL    HW243226   5.565   2.823   4.215  0.1133  0.0794  1.8141
14052SOL     OW43227   4.056   4.573   4.550 -0.0469 -0.2715  0.2591
14052SOL    HW143228   4.028   4.488   4.515 -0.8995  0.0507  0.1418
14052SOL    HW243229   4.071   4.627   4.472 -1.6919  0.3667  0.3362
14053SOL     OW43230   2.153   0.452   5.810 -0.1119  0.5370 -0.0488
14053SOL    HW143231   2.188   0.365   5.791 -0.4736 -0.1939  2.3170
14053SOL    HW243232   2.186   0.507   5.739  0.7516 -1.3585 -1.1965
14054SOL     OW43233   3.343   0.964   7.575 -0.5251 -0.0126  0.4438
14054SOL    HW143234   3.413   0.983   7.637 -1.9277  3.3686  1.2482
14054SOL    HW243235   3.266   0.949   7.630 -0.9691 -1.1314 -0.4511
14055SOL     OW43236   0.949   2.755   5.850 -0.2341  0.0239  0.6003
14055SOL    HW143237   0.857   2.766   5.825 -0.3074 -1.7788 -0.0582
14055SOL    HW243238   0.956   2.798   5.935 -1.6315  0.3609  0.5678
14056SOL     OW43239   3.022   6.999   0.527  0.0184  0.1490 -0.3280
14056SOL    HW143240   2.942   6.971   0.571 -0.0437 -1.7284 -1.5313
14056SOL    HW243241   3.034   7.090   0.554 -0.1191 -0.7719  3.3812
14057SOL     OW43242   0.846   1.045   0.976  0.2101 -0.0535 -0.0563
14057SOL    HW143243   0.935   1.016   0.955  0.6997  0.9899  0.4962
14057SOL    HW243244   0.838   1.131   0.934  0.7145  1.4364  2.6984
14058SOL     OW43245   6.511   3.858   0.735 -0.7181  0.3736  0.0478
14058SOL    HW143246   6.477   3.892   0.653  0.9045  0.8070 -0.4827
14058SOL    HW243247   6.476   3.917   0.802 -0.6155  1.0933 -0.5230
14059SOL     OW43248   7.211   3.312   7.528  0.4013 -0.0006  0.0820
14059SOL    HW143249   7.178   3.228   7.561  0.4972 -0.8664 -1.9016
14059SOL    HW243250   7.136   3.372   7.535 -0.1977 -0.7161 -0.0610
14060SOL     OW43251   5.644   2.457   7.186 -0.1606 -0.5076 -0.3933
14060SOL    HW143252   5.704   2.385   7.166  0.9203  0.4773 -0.7953
14060SOL    HW243253   5.565   2.437   7.135  0.3224 -1.1317 -0.9199
14061SOL     OW43254   3.964   5.567   0.705 -0.1981  0.7301 -0.5790
14061SOL    HW143255   3.896   5.587   0.641 -1.1812 -2.3800 -0.6496
14061SOL    HW243256   3.943   5.479   0.736  2.1379  0.8279  1.6083
14062SOL     OW43257   6.267   3.866   4.226  0.7245  0.0965 -0.0112
14062SOL    HW143258   6.247   3.944   4.276 -0.2743  0.6540 -1.2173
14062SOL    HW243259   6.212   3.872   4.148  2.6733 -0.3721 -1.5325
14063SOL     OW43260   7.976   7.730   1.196  0.5802 -0.2705  0.2713
14063SOL    HW143261   8.051   7.756   1.249 -0.7518  1.7444  1.2893
14063SOL    HW243262   7.981   7.784   1.118  0.7922 -0.9556 -0.1988
14064SOL     OW43263   6.919   2.747   6.154  0.0038  0.0784  0.2699
14064SOL    HW143264   6.853   2.695   6.108 -0.1515  0.2782  0.2665
14064SOL    HW243265   7.001   2.701   6.138  0.0496  0.5069 -0.7457
14065SOL     OW43266   1.457   2.170   4.052  0.3305  0.0674  0.4543
14065SOL    HW143267   1.527   2.105   4.040 -0.1460 -0.3276 -0.2520
14065SOL    HW243268   1.424   2.154   4.140  0.7464 -0.1241  0.5767
14066SOL     OW43269   3.803   1.840   6.497  0.5855 -0.3605  0.0056
14066SOL    HW143270   3.872   1.838   6.563  0.7907  0.4282 -0.1698
14066SOL    HW243271   3.744   1.769   6.522  0.7839 -0.2314  0.9015
14067SOL     OW43272   2.157   5.178   2.890 -0.1434  0.3156 -0.0939
14067SOL    HW143273   2.075   5.155   2.846 -0.1632  0.9677 -0.4170
14067SOL    HW243274   2.151   5.136   2.975 -1.1355  0.9224  0.1593
14068SOL     OW43275   3.919   6.267   6.716 -0.3702 -0.2006 -0.1744
14068SOL    HW143276   3.937   6.253   6.809  2.2159  0.5326 -0.4872
14068SOL    HW243277   3.917   6.363   6.706  1.2936 -0.2301 -1.1364
14069SOL     OW43278   0.389   3.227   0.413 -0.2332 -0.4574  0.2477
14069SOL    HW143279   0.463   3.175   0.382 -0.5484 -1.2343  0.7668
14069SOL    HW243280   0.364   3.186   0.496 -1.3367 -0.3011  0.0101
14070SOL     OW43281   4.267   5.886   5.138 -0.0780  0.2340 -0.0826
14070SOL    HW143282   4.234   5.884   5.228  0.5312  0.1297  0.1462
14070SOL    HW243283   4.189   5.899   5.084 -0.3782  0.8981  0.5001
14071SOL     OW43284   2.942   6.704   2.810 -0.0232 -0.6456  0.3641
14071SOL    HW143285   2.945   6.629   2.751 -0.4535 -0.5730  0.2503
14071SOL    HW243286   2.859   6.747   2.791  0.7068  0.5069 -0.3531
14072SOL     OW43287   3.973   7.587   1.214 -0.1652  0.6603  0.0840
14072SOL    HW143288   4.018   7.664   1.247  0.6543  0.1148  0.2697
14072SOL    HW243289   4.043   7.526   1.190 -0.7936 -0.1431  0.2201
14073SOL     OW43290   6.500   5.734   0.520 -0.0220 -0.3903 -0.4987
14073SOL    HW143291   6.442   5.781   0.581 -0.7423 -0.0668 -1.4009
14073SOL    HW243292   6.504   5.791   0.443 -0.3029 -1.4467 -1.3248
14074SOL     OW43293   7.276   0.286   0.751  0.8581 -0.0774  0.2349
14074SOL    HW143294   7.245   0.279   0.841  1.7512 -2.2453  0.4504
14074SOL    HW243295   7.316   0.373   0.746 -2.0102  1.3864  0.9328
14075SOL     OW43296   4.725   1.728   1.009  0.3598  0.2859  0.2862
14075SOL    HW143297   4.670   1.807   1.013 -0.4712 -0.3160  1.3602
14075SOL    HW243298   4.673   1.666   0.958  1.1680  0.5162 -0.8683
14076SOL     OW43299   6.290   7.949   1.518 -0.5169  0.1786  0.2388
14076SOL    HW143300   6.267   7.953   1.425 -1.6647 -0.3229  0.4745
14076SOL    HW243301   6.348   8.023   1.532 -1.8431  1.4095 -0.4847
14077SOL     OW43302   2.817   2.982   0.843  0.4999  0.0556 -0.4549
14077SOL    HW143303   2.780   3.032   0.916 -1.5918 -2.2533  0.2070
14077SOL    HW243304   2.872   2.916   0.885 -0.4372 -1.0638 -0.9228
14078SOL     OW43305   4.516   5.448   1.019  0.4970 -0.0462 -0.1596
14078SOL    HW143306   4.597   5.451   1.070  1.1379 -0.6115 -1.1153
14078SOL    HW243307   4.454   5.501   1.069  1.7225  1.1863  0.1074
14079SOL     OW43308   6.142   2.937   4.259 -0.0261  0.5675 -0.4598
14079SOL    HW143309   6.083   2.959   4.331 -0.5227  0.5483 -0.8619
14079SOL    HW243310   6.173   2.849   4.280  0.7957  1.0322  0.3686
14080SOL     OW43311   5.261   3.442   0.619 -0.5996 -0.3185 -0.6395
14080SOL    HW143312   5.264   3.490   0.536  0.5129 -0.7545 -0.8590
14080SOL    HW243313   5.350   3.411   0.633 -1.2284 -2.0781 -0.3459
14081SOL     OW43314   0.621   6.516   3.070 -0.1432 -0.3794  0.3074
14081SOL    HW143315   0.585   6.463   2.999 -0.3486  0.7130 -0.4360
14081SOL    HW243316   0.701   6.470   3.096  0.6240 -0.1677 -1.5013
14082SOL     OW43317   5.975   7.774   3.308 -0.8800  0.6875  0.0677
14082SOL    HW143318   5.986   7.689   3.266 -0.3110 -0.9787  3.3365
14082SOL    HW243319   6.036   7.832   3.262 -0.9079 -0.7447 -1.8822
14083SOL     OW43320   7.574   1.966   7.496 -0.2315 -0.4223  0.2868
14083SOL    HW143321   7.501   1.949   7.556 -0.9148  0.1282 -0.3725
14083SOL    HW243322   7.584   1.885   7.446  0.9789 -1.2397  1.7721
14084SOL     OW43323   7.055   0.832   6.160  0.1768 -0.4969  0.0929
14084SOL    HW143324   6.982   0.812   6.101 -1.7921  2.3391  1.3325
14084SOL    HW243325   7.100   0.906   6.118  1.3466 -1.1408  0.1774
14085SOL     OW43326   5.138   7.955   6.913 -0.2717  0.3952  0.0614
14085SOL    HW143327   5.162   7.973   6.822  2.4316  2.8146  1.1135
14085SOL    HW243328   5.107   8.039   6.947  0.6612  0.0617  1.8756
14086SOL     OW43329   5.041   6.928   4.277  0.6774 -0.3305  0.1815
14086SOL    HW143330   5.109   6.907   4.213  0.4909  2.4633 -1.0758
14086SOL    HW243331   5.083   6.989   4.338 -0.2997  0.3356  0.2185
14087SOL     OW43332   1.669   0.267   6.624  0.0979  0.0646  0.4755
14087SOL    HW143333   1.637   0.177   6.611 -2.2171  0.9653 -0.6410
14087SOL    HW243334   1.701   0.293   6.538 -0.3740  0.6988  0.4858
14088SOL     OW43335   3.160   1.463   0.373 -0.0669  0.0877 -0.0217
14088SOL    HW143336   3.104   1.511   0.433  0.6516 -0.7667  1.4005
14088SOL    HW243337   3.100   1.414   0.317 -0.8204  2.5958 -1.5579
14089SOL     OW43338   3.911   5.581   3.856  0.0402 -0.0674  0.0879
14089SOL    HW143339   3.933   5.596   3.948 -0.2844 -3.6466  0.9055
14089SOL    HW243340   3.938   5.490   3.839 -1.5808 -0.1452 -2.8255
14090SOL     OW43341   5.222   5.835   0.962  0.0852  0.1569 -0.2333
14090SOL    HW143342   5.226   5.865   0.871  1.0683 -0.6129 -0.4592
14090SOL    HW243343   5.299   5.874   1.003  0.1357 -0.2253  0.0380
14091SOL     OW43344   7.802   0.459   3.054 -0.1189  0.0139  0.5109
14091SOL    HW143345   7.725   0.492   3.101  0.0559  1.5466 -0.1981
14091SOL    HW243346   7.851   0.538   3.032  1.8272 -0.9424  1.2032
14092SOL     OW43347   0.608   5.102   0.598  0.1245  0.2989  0.9652
14092SOL    HW143348   0.538   5.145   0.548  0.2776 -0.7958 -0.2500
14092SOL    HW243349   0.562   5.045   0.659 -0.0729 -0.4680  0.1248
14093SOL     OW43350   3.427   7.375   6.047 -0.0005  0.0311 -0.2299
14093SOL    HW143351   3.513   7.398   6.080 -0.1426 -0.8363  0.7993
14093SOL    HW243352   3.377   7.456   6.050  0.6292  0.4336 -0.3939
14094SOL     OW43353   2.007   1.546   4.614  0.0062 -0.1272 -0.0511
14094SOL    HW143354   2.090   1.537   4.567 -0.5439  0.9799 -1.3101
14094SOL    HW243355   2.016   1.627   4.664  0.0695 -0.5740  0.6745
14095SOL     OW43356   5.710   4.789   1.589  0.2362 -0.3339 -0.0198
14095SOL    HW143357   5.683   4.738   1.513 -0.0838 -1.5493  0.8795
14095SOL    HW243358   5.697   4.880   1.562 -2.0565 -0.7699 -0.6427
14096SOL     OW43359   0.987   3.919   1.330 -0.7200  0.0091 -0.4020
14096SOL    HW143360   0.966   3.924   1.423  1.3193 -1.8377  0.2469
14096SOL    HW243361   1.051   3.988   1.316  0.0075 -0.5842 -0.0785
14097SOL     OW43362   1.037   6.606   3.017 -0.0191 -0.3269  0.2309
14097SOL    HW143363   0.970   6.660   3.059 -1.0814 -0.6242 -1.0374
14097SOL    HW243364   1.052   6.535   3.079  1.0117  1.0853  1.6884
14098SOL     OW43365   2.342   1.110   6.277  0.2701  0.4715 -0.5784
14098SOL    HW143366   2.269   1.096   6.217  0.2723  1.0950 -0.7309
14098SOL    HW243367   2.320   1.190   6.324 -0.8441 -1.1513  1.9017
14099SOL     OW43368   1.722   4.450   6.630  0.4762  0.1234  0.4143
14099SOL    HW143369   1.739   4.360   6.660 -0.0824  0.3934  1.5568
14099SOL    HW243370   1.772   4.457   6.548  0.4687 -1.2516  0.2681
14100SOL     OW43371   8.156   5.281   6.064  0.1539 -0.2805 -0.3853
14100SOL    HW143372   8.202   5.207   6.102  0.7703 -1.1468 -2.6592
14100SOL    HW243373   8.068   5.278   6.102  0.7646 -0.9738  1.0239
14101SOL     OW43374   2.665   0.840   4.227 -0.0610 -0.1534  0.0980
14101SOL    HW143375   2.757   0.830   4.252 -0.3157 -0.4112  0.9762
14101SOL    HW243376   2.636   0.917   4.276  0.3469  1.5504 -2.1560
14102SOL     OW43377   0.937   3.487   1.183 -0.3049 -0.2597 -0.2909
14102SOL    HW143378   0.988   3.419   1.226 -0.0547  0.2551  0.2541
14102SOL    HW243379   0.968   3.487   1.093 -0.4124 -0.9624 -0.3297
14103SOL     OW43380   5.479   6.449   4.887 -0.4159 -0.1587  0.8569
14103SOL    HW143381   5.499   6.356   4.896 -0.5293 -0.1014  1.7934
14103SOL    HW243382   5.440   6.457   4.800  0.2666 -0.8614  0.4786
14104SOL     OW43383   2.180   2.506   0.677 -0.2881  0.4514 -0.3208
14104SOL    HW143384   2.273   2.501   0.655 -0.6140 -0.0431 -1.7044
14104SOL    HW243385   2.143   2.566   0.612 -1.4153 -1.5728 -1.6374
14105SOL     OW43386   4.908   0.379   5.599  0.0253 -0.2631  0.2056
14105SOL    HW143387   4.923   0.346   5.510  3.1454 -0.9724  0.8553
14105SOL    HW243388   4.929   0.472   5.594 -0.8027 -0.0813  0.0137
14106SOL     OW43389   4.566   6.452   3.514 -0.1609 -0.0240  0.0924
14106SOL    HW143390   4.553   6.357   3.511  4.0087 -0.7916 -0.0215
14106SOL    HW243391   4.538   6.482   3.427  0.4093 -1.5246 -0.6599
14107SOL     OW43392   7.733   3.601   8.063 -0.1478 -0.5744 -0.6715
14107SOL    HW143393   7.750   3.666   8.130 -2.2522  0.1898 -0.7975
14107SOL    HW243394   7.779   3.634   7.985  0.4437 -0.3101 -0.2197
14108SOL     OW43395   4.233   3.741   5.020  0.1518 -0.4231  0.0321
14108SOL    HW143396   4.302   3.801   5.051  0.0426  0.6769 -1.6846
14108SOL    HW243397   4.169   3.799   4.979 -0.1378 -1.6967 -1.3691
14109SOL     OW43398   0.193   4.016   5.946  0.4240 -0.4434  0.4126
14109SOL    HW143399   0.135   3.943   5.923 -0.1777  0.4800 -1.1475
14109SOL    HW243400   0.143   4.095   5.926  1.1688  0.4243  1.7964
14110SOL     OW43401   0.682   2.224   1.020  0.4501  0.3834 -0.3239
14110SOL    HW143402   0.734   2.223   0.940 -1.1542 -1.8596 -1.4665
14110SOL    HW243403   0.733   2.172   1.082  0.6934  0.2656 -0.6175
14111SOL     OW43404   5.620   2.969   0.089  0.2907 -0.1576  0.8071
14111SOL    HW143405   5.565   2.922   0.151 -2.2110  0.8727 -0.4457
14111SOL    HW243406   5.601   2.928   0.004 -1.7808  2.6886 -0.2906
14112SOL     OW43407   2.940   0.267   1.332  0.1804  0.2415 -0.2788
14112SOL    HW143408   2.938   0.314   1.248 -1.2858  1.9187  0.6239
14112SOL    HW243409   2.917   0.333   1.397 -1.4036 -1.5894  1.1404
14113SOL     OW43410   4.737   4.483   5.719 -0.0149 -0.0740  0.0851
14113SOL    HW143411   4.764   4.569   5.753 -2.0637  1.1357 -1.1540
14113SOL    HW243412   4.818   4.445   5.685  0.8585  1.6015  0.1488
14114SOL     OW43413   0.153   1.514   4.454  0.5661 -0.1354  0.0329
14114SOL    HW143414   0.104   1.542   4.378 -2.0773 -1.5747  1.0563
14114SOL    HW243415   0.111   1.558   4.528  1.7505 -0.3207  0.8495
14115SOL     OW43416   1.264   2.900   3.368  0.2295  0.0408  0.0469
14115SOL    HW143417   1.172   2.925   3.359  0.0599 -0.2930  0.7701
14115SOL    HW243418   1.266   2.844   3.446  1.3024  1.4126  1.0667
14116SOL     OW43419   1.444   0.198   4.003  0.0763  0.0317 -0.1949
14116SOL    HW143420   1.447   0.105   4.024 -1.4967  0.3012  1.4836
14116SOL    HW243421   1.463   0.242   4.086  0.8675  1.2212 -0.9759
14117SOL     OW43422   2.638   6.545   5.514 -0.6532 -0.2241  0.0328
14117SOL    HW143423   2.625   6.543   5.420  0.8765 -0.1144 -0.2097
14117SOL    HW243424   2.658   6.454   5.538  1.4629  0.1307 -0.1867
14118SOL     OW43425   6.400   2.873   0.863 -0.6835 -0.1996 -0.2710
14118SOL    HW143426   6.392   2.953   0.811  0.0879 -0.3670 -0.6645
14118SOL    HW243427   6.441   2.902   0.944  1.3350 -0.4451 -1.1410
14119SOL     OW43428   7.626   1.595   5.294  0.5827 -0.2836  0.2110
14119SOL    HW143429   7.644   1.585   5.388  0.6550  0.6876  0.3192
14119SOL    HW243430   7.712   1.584   5.253  0.6276 -0.2853  0.3029
14120SOL     OW43431   4.253   7.489   3.547  0.3494  0.1403 -0.3698
14120SOL    HW143432   4.222   7.535   3.625  0.6718 -0.6137  0.2131
14120SOL    HW243433   4.240   7.552   3.475 -3.5176 -0.4360 -0.3978
14121SOL     OW43434   7.637   3.770   4.551 -0.2383 -0.1231 -0.3799
14121SOL    HW143435   7.727   3.737   4.550 -0.4181 -1.0722  2.5440
14121SOL    HW243436   7.585   3.698   4.514 -0.0722 -0.9733  0.9626
14122SOL     OW43437   1.907   4.042   6.459  0.7989 -0.1147  0.3010
14122SOL    HW143438   1.824   4.013   6.421  0.6397  0.8289 -0.1096
14122SOL    HW243439   1.974   4.007   6.400  0.7062 -0.9194  0.6598
14123SOL     OW43440   3.226   5.212   1.387 -0.2853  0.5573 -0.2532
14123SOL    HW143441   3.174   5.239   1.463 -2.0358 -0.8202 -0.8974
14123SOL    HW243442   3.293   5.155   1.423  0.4869  1.8916  0.5237
14124SOL     OW43443   3.961   0.323   2.587 -0.9261  0.0334  0.4988
14124SOL    HW143444   3.931   0.244   2.632  0.0565 -0.9992 -0.5795
14124SOL    HW243445   3.983   0.293   2.499  0.2204  1.3494  0.3102
14125SOL     OW43446   7.850   5.176   3.689 -0.0619  0.0323 -0.0591
14125SOL    HW143447   7.880   5.088   3.665 -1.5289 -0.4484 -0.2257
14125SOL    HW243448   7.870   5.230   3.611  0.3063 -0.2695 -0.1781
14126SOL     OW43449   2.476   4.542   1.589  0.1019 -0.6326 -0.6332
14126SOL    HW143450   2.399   4.554   1.644  0.5380  1.3719 -0.3830
14126SOL    HW243451   2.496   4.449   1.595 -0.8695 -0.7555  1.2501
14127SOL     OW43452   2.487   7.548   0.778 -0.4093  0.1655 -0.3021
14127SOL    HW143453   2.438   7.466   0.764 -0.6909 -0.4877  3.5052
14127SOL    HW243454   2.571   7.520   0.814  0.3322  1.5459 -0.8809
14128SOL     OW43455   1.747   0.889   4.758  0.4450  0.1224 -0.4070
14128SOL    HW143456   1.824   0.893   4.815 -0.9769 -2.3043  1.8987
14128SOL    HW243457   1.760   0.809   4.706 -0.7634 -0.6892  0.4889
14129SOL     OW43458   7.506   7.005   7.338  0.1290 -0.4835  0.5010
14129SOL    HW143459   7.545   7.076   7.288 -0.7635 -0.0304  0.4314
14129SOL    HW243460   7.437   6.970   7.281 -0.5554 -0.2979  1.1992
14130SOL     OW43461   5.959   6.486   2.496 -0.1714 -0.2860 -0.2486
14130SOL    HW143462   5.949   6.562   2.438 -0.4758 -0.4213 -0.3712
14130SOL    HW243463   5.870   6.461   2.519 -0.0498  0.2465  0.9058
14131SOL     OW43464   8.036   0.593   4.463  0.0287 -0.3347  0.9062
14131SOL    HW143465   8.016   0.686   4.450 -0.1671 -0.4537  0.3628
14131SOL    HW243466   8.074   0.589   4.551 -0.3875  0.1936  1.1121
14132SOL     OW43467   1.115   6.305   4.093 -1.0805  0.5489  0.3018
14132SOL    HW143468   1.034   6.354   4.087 -0.7191  1.0741 -0.5360
14132SOL    HW243469   1.120   6.257   4.010 -1.2498 -0.6428  0.9507
14133SOL     OW43470   0.931   4.918   8.144  0.7423  0.2257 -0.8126
14133SOL    HW143471   1.012   4.880   8.110  0.7797  1.6462 -2.4875
14133SOL    HW243472   0.916   4.995   8.089 -0.0097  1.8977  1.5660
14134SOL     OW43473   3.403   4.763   0.167 -0.0773 -0.1950 -0.3750
14134SOL    HW143474   3.364   4.835   0.216  0.7901  1.4600 -1.9809
14134SOL    HW243475   3.484   4.743   0.214  0.2758  0.7182 -0.5808
14135SOL     OW43476   5.825   6.480   0.027 -0.1971 -0.7890 -0.3819
14135SOL    HW143477   5.781   6.403   0.065 -1.5383 -0.3680 -0.9980
14135SOL    HW243478   5.796   6.480  -0.064 -1.2163  1.1172 -0.1030
14136SOL     OW43479   7.059   4.547   7.867  0.2753  0.5466  0.0522
14136SOL    HW143480   7.128   4.484   7.846 -0.3530  0.0787 -0.6622
14136SOL    HW243481   7.032   4.523   7.956 -0.7533 -0.9813 -0.6284
14137SOL     OW43482   2.025   0.504   4.771  0.0340  0.0361 -0.2729
14137SOL    HW143483   1.965   0.571   4.739 -0.2127 -0.2267 -0.3638
14137SOL    HW243484   1.979   0.464   4.844  0.7840  0.9594  0.7541
14138SOL     OW43485   3.488   4.645   6.209  0.1583 -0.6850 -0.0671
14138SOL    HW143486   3.430   4.653   6.133 -1.2648  0.7011  1.1136
14138SOL    HW243487   3.558   4.709   6.192  0.3338 -1.0040 -0.5935
14139SOL     OW43488   3.271   2.515   2.948  0.1035  0.3732  0.2747
14139SOL    HW143489   3.222   2.569   3.010 -1.0341 -1.0915  0.7043
14139SOL    HW243490   3.339   2.474   3.001  1.8241  2.3219 -0.3021
14140SOL     OW43491   2.169   7.201   7.924 -0.0263 -0.0948  0.1097
14140SOL    HW143492   2.237   7.134   7.934  0.7589  0.5281 -0.8711
14140SOL    HW243493   2.087   7.151   7.924  0.5729 -1.1677 -1.2569
14141SOL     OW43494   2.090   6.124   4.111 -0.4359  0.3343  0.1134
14141SOL    HW143495   2.183   6.132   4.087 -0.4418  0.9425  0.2820
14141SOL    HW243496   2.050   6.080   4.037  0.1039 -0.5018  0.3031
14142SOL     OW43497   5.845   2.983   5.296 -0.4735  0.0909 -0.1371
14142SOL    HW143498   5.772   3.033   5.333 -0.8619 -1.6876  1.6699
14142SOL    HW243499   5.906   3.049   5.264 -2.3431  1.6432 -0.6546
14143SOL     OW43500   0.981   5.833   5.741 -0.3032  0.2652 -0.1534
14143SOL    HW143501   0.904   5.789   5.777 -0.6641  0.3116 -0.8526
14143SOL    HW243502   1.054   5.773   5.761 -0.6104 -0.0803 -0.0479
14144SOL     OW43503   1.217   6.091   8.048  0.2427 -0.4270  0.1901
14144SOL    HW143504   1.270   6.054   7.977 -0.2231 -1.2003  0.2386
14144SOL    HW243505   1.241   6.184   8.049  0.6735 -0.5172 -0.6072
14145SOL     OW43506   1.278   5.952   1.008  0.5169  0.3842  0.5468
14145SOL    HW143507   1.323   5.891   0.950  1.8595  0.2385  1.6845
14145SOL    HW243508   1.276   5.908   1.093 -3.4817 -0.4272  0.2312
14146SOL     OW43509   2.506   4.559   3.425  0.1470 -0.4220  0.0155
14146SOL    HW143510   2.461   4.526   3.347 -0.0382  1.0374 -0.5390
14146SOL    HW243511   2.597   4.568   3.398  0.1931 -0.4670  0.1556
14147SOL     OW43512   3.761   3.975   7.556  0.2819 -0.2273  0.2359
14147SOL    HW143513   3.683   3.955   7.607 -0.4519  0.1313 -0.7084
14147SOL    HW243514   3.823   3.906   7.579 -0.6563 -1.0765  0.2933
14148SOL     OW43515   5.633   3.816   0.073  0.1690  0.0910  0.1390
14148SOL    HW143516   5.719   3.782   0.050 -0.4501 -0.9548 -0.7110
14148SOL    HW243517   5.651   3.903   0.109  1.7961 -1.0233  2.3210
14149SOL     OW43518   4.697   2.717   2.095  0.0533 -0.0449  0.0398
14149SOL    HW143519   4.683   2.758   2.009 -0.3847 -1.1000 -0.4098
14149SOL    HW243520   4.755   2.778   2.141 -0.6662  1.1352 -0.5491
14150SOL     OW43521   0.106   3.497   1.600 -0.2166 -0.5487  0.1482
14150SOL    HW143522   0.160   3.561   1.647 -0.2606 -0.9714  0.7986
14150SOL    HW243523   0.082   3.541   1.519  0.4434 -0.0512  0.2061
14151SOL     OW43524   2.773   5.224   5.927  0.1693 -0.0668 -0.2078
14151SOL    HW143525   2.715   5.214   6.003  2.1717 -0.1204  1.4138
14151SOL    HW243526   2.799   5.316   5.929  0.4164 -0.1252 -0.6989
14152SOL     OW43527   8.029   0.216   0.292  0.4071  0.0274 -0.2409
14152SOL    HW143528   8.004   0.307   0.308  0.4132 -0.2509  1.6169
14152SOL    HW243529   8.122   0.213   0.313  0.3269 -0.4740  0.0619
14153SOL     OW43530   2.857   7.429   2.472  0.1452 -0.3099  0.4587
14153SOL    HW143531   2.843   7.376   2.550  0.2642  0.6530  1.1522
14153SOL    HW243532   2.943   7.469   2.484  1.0815 -1.6955 -1.1164
14154SOL     OW43533   0.183   3.184   1.705  0.1266  0.3183  0.3256
14154SOL    HW143534   0.271   3.177   1.742 -0.3331  0.4613  1.4701
14154SOL    HW243535   0.185   3.265   1.653  1.3565 -0.8916 -1.6462
14155SOL     OW43536   1.423   0.485   1.951  0.0310 -0.1185  0.2527
14155SOL    HW143537   1.474   0.545   1.897  0.5565 -0.1326  0.7228
14155SOL    HW243538   1.483   0.459   2.022 -1.4213  2.0508  2.4534
14156SOL     OW43539   7.701   7.270   3.860  0.0692 -0.1922  0.0597
14156SOL    HW143540   7.785   7.271   3.814 -0.5105 -1.3342 -1.1036
14156SOL    HW243541   7.637   7.297   3.794 -0.4580  0.9465  1.0081
14157SOL     OW43542   6.576   7.395   7.106  0.4301  0.1103  0.2603
14157SOL    HW143543   6.659   7.348   7.113  0.2916 -0.6845 -2.2776
14157SOL    HW243544   6.589   7.456   7.034 -0.9911  0.4296  0.2399
14158SOL     OW43545   1.476   2.671   2.493 -0.3776  0.6454 -0.1992
14158SOL    HW143546   1.509   2.746   2.444  3.0085 -0.8468 -0.5150
14158SOL    HW243547   1.512   2.595   2.447  0.3791 -0.9547  2.7692
14159SOL     OW43548   3.203   6.395   4.732 -0.5151 -0.2429  0.2176
14159SOL    HW143549   3.196   6.352   4.647  1.4508  0.5028 -0.3970
14159SOL    HW243550   3.130   6.456   4.735 -0.4656 -0.1016 -1.0536
14160SOL     OW43551   2.834   3.753   2.040 -0.1170  0.1788  0.7007
14160SOL    HW143552   2.787   3.835   2.055 -0.0116 -0.0564  2.5581
14160SOL    HW243553   2.915   3.762   2.091  0.5350 -0.5541 -0.1575
14161SOL     OW43554   0.060   2.990   0.225 -0.3154 -0.1948 -0.0704
14161SOL    HW143555   0.087   2.899   0.231 -1.8213 -0.8807 -2.4444
14161SOL    HW243556   0.117   3.028   0.157  1.0357  0.9859  1.6390
14162SOL     OW43557   3.176   5.271   7.461 -0.1693  0.1460 -0.5291
14162SOL    HW143558   3.182   5.196   7.519  1.5611 -0.1722 -1.0623
14162SOL    HW243559   3.101   5.321   7.493 -1.2188 -1.6692 -0.0258
14163SOL     OW43560   7.688   3.017   2.452  0.0194 -0.0798  0.1468
14163SOL    HW143561   7.775   3.018   2.492 -0.5975 -0.9653  1.5637
14163SOL    HW243562   7.706   3.010   2.358  1.4773 -0.0219  0.3887
14164SOL     OW43563   3.060   0.554   2.357 -0.6638  0.0398 -0.0376
14164SOL    HW143564   2.993   0.608   2.399 -0.4935 -0.1092  0.4273
14164SOL    HW243565   3.074   0.481   2.417 -1.6840 -1.1265 -1.1720
14165SOL     OW43566   5.867   6.806   7.339  0.4146 -0.1422 -0.0490
14165SOL    HW143567   5.830   6.791   7.427  0.3527 -1.4159 -0.2667
14165SOL    HW243568   5.792   6.834   7.287  0.3789  0.2838  0.2280
14166SOL     OW43569   6.334   6.376   7.634  0.0004  0.3776 -0.0635
14166SOL    HW143570   6.296   6.334   7.711  1.2201  1.0071  0.9154
14166SOL    HW243571   6.419   6.334   7.624  0.1446  0.8003 -0.6392
14167SOL     OW43572   2.053   2.089   4.336  0.2929 -0.1821  0.4901
14167SOL    HW143573   2.074   2.049   4.420 -2.2234  0.3939  1.4824
14167SOL    HW243574   2.136   2.127   4.306  1.7137 -2.1615  1.6715
14168SOL     OW43575   8.070   3.040   5.882 -0.3793 -0.1259 -0.0503
14168SOL    HW143576   8.048   2.969   5.821  0.7173 -0.8822  0.4170
14168SOL    HW243577   7.985   3.078   5.906 -0.8836 -0.3736 -1.3694
14169SOL     OW43578   4.904   3.034   2.758  0.1317 -0.3161 -0.2415
14169SOL    HW143579   4.957   2.964   2.718 -0.8867 -0.6380 -1.0864
14169SOL    HW243580   4.904   3.104   2.693  0.0793 -0.0478  0.0454
14170SOL     OW43581   5.543   1.327   7.125 -0.0333  0.4037  0.5255
14170SOL    HW143582   5.578   1.249   7.081 -0.1653  1.3466 -1.3559
14170SOL    HW243583   5.553   1.309   7.218  1.5200 -1.1506  0.1022
14171SOL     OW43584   2.057   4.501   6.157  0.6665 -0.1055 -0.3794
14171SOL    HW143585   2.037   4.563   6.087  3.8535  2.3724  0.6411
14171SOL    HW243586   2.096   4.426   6.113 -0.3322 -0.0084 -1.4525
14172SOL     OW43587   0.536   2.643   0.654 -0.2932 -0.2703 -0.1474
14172SOL    HW143588   0.520   2.607   0.566 -1.5784 -0.1448  0.0037
14172SOL    HW243589   0.622   2.683   0.649  0.4365 -1.8266 -0.8344
14173SOL     OW43590   6.013   2.835   0.344  0.4384 -0.1045  0.2730
14173SOL    HW143591   5.980   2.867   0.428  0.1458  1.5371 -0.4292
14173SOL    HW243592   5.960   2.758   0.325  1.1975 -1.1304  2.0534
14174SOL     OW43593   0.096   7.514   0.443 -0.1119  0.3587  1.2543
14174SOL    HW143594   0.086   7.609   0.448 -3.8761  0.1300  1.0502
14174SOL    HW243595   0.098   7.495   0.349  0.1015  0.1928  1.2919
14175SOL     OW43596   2.428   3.907   3.583  0.0246 -0.2976  0.1276
14175SOL    HW143597   2.338   3.874   3.582  0.1822 -0.8044 -2.0303
14175SOL    HW243598   2.466   3.870   3.663 -2.2001  1.5996  2.2182
14176SOL     OW43599   7.804   2.303   4.531  0.4096 -0.0982 -0.8170
14176SOL    HW143600   7.806   2.235   4.464  2.2005  0.0160 -0.9236
14176SOL    HW243601   7.761   2.261   4.606  0.3970 -0.9497 -1.2875
14177SOL     OW43602   6.692   7.507   5.306 -0.2121  0.1187  0.6108
14177SOL    HW143603   6.632   7.459   5.249 -0.0436 -0.0524  0.5781
14177SOL    HW243604   6.779   7.475   5.282 -0.0217  1.1153 -0.0538
14178SOL     OW43605   3.605   3.446   6.925  0.4137 -0.1424 -0.8389
14178SOL    HW143606   3.652   3.511   6.976 -1.5830 -0.7834  2.0988
14178SOL    HW243607   3.641   3.362   6.954 -0.2107 -0.4942 -1.0619
14179SOL     OW43608   3.094   4.320   5.981 -0.5145  0.8471 -0.4403
14179SOL    HW143609   3.096   4.365   5.896 -0.5615  2.1235  0.2064
14179SOL    HW243610   3.102   4.227   5.959  2.4055  1.2881 -1.7163
14180SOL     OW43611   7.628   4.057   3.479 -0.4773  0.3184 -0.1337
14180SOL    HW143612   7.534   4.040   3.478 -0.6347  1.1223 -1.3916
14180SOL    HW243613   7.661   4.010   3.402  0.2056 -0.2447  0.4993
14181SOL     OW43614   3.789   0.671   0.411  0.3714 -0.2836 -0.5460
14181SOL    HW143615   3.795   0.749   0.465  1.3063 -1.9060  1.8664
14181SOL    HW243616   3.760   0.602   0.471  2.0369 -2.3297 -1.9311
14182SOL     OW43617   2.383   3.705   2.417 -0.3458 -0.1292 -0.6781
14182SOL    HW143618   2.295   3.678   2.443 -0.3596 -0.2675 -0.8622
14182SOL    HW243619   2.401   3.783   2.469 -0.7485  0.1512 -0.9574
14183SOL     OW43620   6.315   5.651   4.307 -0.0853  0.6200  0.4644
14183SOL    HW143621   6.344   5.672   4.396 -0.4225 -0.7768  0.9213
14183SOL    HW243622   6.222   5.673   4.306 -1.1871 -3.2194  1.8437
14184SOL     OW43623   4.572   1.010   0.766  0.5340 -0.0171 -0.3170
14184SOL    HW143624   4.485   0.971   0.759  0.7218 -0.5644  0.2039
14184SOL    HW243625   4.557   1.098   0.800  0.1736 -0.0357 -0.4269
14185SOL     OW43626   4.686   7.627   3.323 -0.0068  0.0013 -1.1790
14185SOL    HW143627   4.683   7.534   3.342 -0.5344  0.0558 -0.9620
14185SOL    HW243628   4.616   7.665   3.377  0.1270  0.5046 -1.3483
14186SOL     OW43629   0.580   4.354   7.032  0.1932  0.2809 -0.1658
14186SOL    HW143630   0.516   4.377   6.965  0.9681  1.4135 -0.5558
14186SOL    HW243631   0.664   4.380   6.995  0.9318 -1.4017  0.2370
14187SOL     OW43632   7.352   6.811   1.463 -0.2463 -0.1208 -0.0718
14187SOL    HW143633   7.387   6.843   1.380  0.0776 -0.8555 -0.2306
14187SOL    HW243634   7.270   6.859   1.476 -0.3586 -0.0934 -0.8779
14188SOL     OW43635   6.626   3.750   6.949 -0.2438  0.2811  0.0270
14188SOL    HW143636   6.715   3.716   6.934 -0.3878  0.5739 -1.6390
14188SOL    HW243637   6.640   3.829   7.003  0.7041  1.3712 -1.7227
14189SOL     OW43638   1.594   3.527   3.584 -0.1055  0.4082 -0.2301
14189SOL    HW143639   1.556   3.613   3.568  1.7691  0.9909 -1.9164
14189SOL    HW243640   1.551   3.496   3.664 -1.7096  2.3597 -0.2808
14190SOL     OW43641   4.033   0.455   5.819 -0.1366  0.3759 -0.0354
14190SOL    HW143642   3.962   0.399   5.789  1.3456 -0.8119 -1.5850
14190SOL    HW243643   4.021   0.537   5.772 -1.1549  0.6479  0.6670
14191SOL     OW43644   7.085   7.668   3.993 -0.1791 -0.1568 -0.1132
14191SOL    HW143645   6.993   7.689   4.008 -0.1620  0.0282 -0.2617
14191SOL    HW243646   7.113   7.729   3.925 -0.0826 -0.5507 -0.4336
14192SOL     OW43647   6.562   4.660   5.302  0.2500  0.1839  0.0293
14192SOL    HW143648   6.543   4.567   5.291  0.8297  0.3046 -2.7876
14192SOL    HW243649   6.648   4.673   5.261  1.1867  1.6482  2.2290
14193SOL     OW43650   4.423   2.790   3.491  0.3243  0.4172 -0.4218
14193SOL    HW143651   4.350   2.846   3.519  2.1433  2.1728  1.0966
14193SOL    HW243652   4.491   2.851   3.463  1.1790 -1.1814 -2.0633
14194SOL     OW43653   0.601   3.980   7.350 -0.3181 -0.5850  0.3787
14194SOL    HW143654   0.681   4.033   7.339 -0.4063 -0.6131 -0.4452
14194SOL    HW243655   0.560   3.981   7.264 -1.7864  0.3443  1.0630
14195SOL     OW43656   3.766   1.271   0.740  0.2590  0.1099  0.1077
14195SOL    HW143657   3.734   1.193   0.785 -1.1600  0.3871 -0.3741
14195SOL    HW243658   3.858   1.252   0.720  0.2696 -0.9265  1.0823
14196SOL     OW43659   0.273   6.134   2.182  0.0301 -0.4061  0.2332
14196SOL    HW143660   0.313   6.076   2.247  0.5291  1.0238  1.2364
14196SOL    HW243661   0.179   6.122   2.194  0.1254 -0.8582  0.5680
14197SOL     OW43662   7.179   2.995   6.169 -0.0998  0.1396  0.7422
14197SOL    HW143663   7.269   3.003   6.138  0.4522  0.2103  2.2810
14197SOL    HW243664   7.126   3.030   6.097  0.9202 -1.8091 -1.0481
14198SOL     OW43665   6.249   0.699   1.824  0.3491  0.3614 -0.0306
14198SOL    HW143666   6.166   0.673   1.783  1.2612 -3.3551  0.0956
14198SOL    HW243667   6.309   0.712   1.751  0.1469  1.0992 -0.0668
14199SOL     OW43668   0.077   7.929   7.039  0.0582  0.4175  0.0456
14199SOL    HW143669   0.001   7.976   7.006 -0.2278  1.1498  1.6643
14199SOL    HW243670   0.150   7.990   7.029  0.4313 -0.2000 -1.2887
14200SOL     OW43671   1.803   2.748   0.236 -0.3797 -0.3412  0.0252
14200SOL    HW143672   1.894   2.752   0.265 -0.6703 -1.0544  1.0977
14200SOL    HW243673   1.804   2.688   0.162  0.1054  0.1040 -0.3341
14201SOL     OW43674   0.813   7.129   2.723 -0.1964 -0.3753 -0.2672
14201SOL    HW143675   0.719   7.119   2.708 -0.6446  1.6148  0.8988
14201SOL    HW243676   0.847   7.169   2.643 -0.8234  1.2219  0.2349
14202SOL     OW43677   2.112   5.253   2.272 -0.3730 -0.4745 -0.0843
14202SOL    HW143678   2.100   5.268   2.179  0.7789  1.1563 -0.0173
14202SOL    HW243679   2.109   5.158   2.282 -2.5654 -0.6367 -1.4412
14203SOL     OW43680   2.990   7.054   6.605  0.2479 -0.2842  0.1784
14203SOL    HW143681   2.934   7.131   6.615 -0.9084 -1.1673  0.6125
14203SOL    HW243682   3.037   7.047   6.688  1.1023  0.5085 -0.2180
14204SOL     OW43683   1.813   5.429   1.362 -0.1598 -0.0267  0.0469
14204SOL    HW143684   1.863   5.405   1.284  0.8915 -0.5363  0.8512
14204SOL    HW243685   1.772   5.348   1.390  0.7014 -0.1891  0.8762
14205SOL     OW43686   7.896   7.915   4.959 -0.4425  0.3201 -0.4223
14205SOL    HW143687   7.901   7.819   4.964  1.8618  0.2547 -2.2715
14205SOL    HW243688   7.879   7.942   5.049 -1.0318 -1.8003  0.1790
14206SOL     OW43689   0.072   2.058   2.801 -0.4208  0.5995  0.2131
14206SOL    HW143690   0.140   2.075   2.737  0.2765  1.5059  1.1533
14206SOL    HW243691   0.090   1.969   2.832 -1.3290 -0.2207 -1.4628
14207SOL     OW43692   5.607   5.788   2.330 -0.1112  0.0472  0.5071
14207SOL    HW143693   5.550   5.838   2.389 -0.1389  0.9091 -0.2297
14207SOL    HW243694   5.606   5.699   2.366 -0.6101  0.4149  1.4490
14208SOL     OW43695   6.462   0.155   0.991 -0.4819 -0.0908  0.3940
14208SOL    HW143696   6.418   0.236   0.968 -1.3258 -0.9462 -1.2534
14208SOL    HW243697   6.401   0.108   1.047 -0.9867 -0.5353 -0.4996
14209SOL     OW43698   7.853   4.109   7.538 -0.4946 -0.2531 -0.9174
14209SOL    HW143699   7.930   4.138   7.488 -0.1453  1.1481  0.3517
14209SOL    HW243700   7.887   4.040   7.595  0.1282  1.0595  0.3820
14210SOL     OW43701   1.025   4.764   2.944  0.0885 -0.1346 -0.2957
14210SOL    HW143702   1.049   4.722   3.027  0.3795  0.6075 -0.0028
14210SOL    HW243703   1.094   4.737   2.883  1.0758  1.0722  0.2582
14211SOL     OW43704   5.191   6.054   0.111 -0.3243 -0.0301  0.1588
14211SOL    HW143705   5.242   6.078   0.189  0.0746 -1.8867  0.5198
14211SOL    HW243706   5.099   6.064   0.138 -0.1803  0.3119  0.5288
14212SOL     OW43707   4.879   8.114   2.756  0.2985  0.0670  0.1028
14212SOL    HW143708   4.850   8.043   2.699 -0.9374  0.2509  0.4674
14212SOL    HW243709   4.944   8.074   2.814 -0.6389 -0.8822  0.5399
14213SOL     OW43710   5.261   1.827   6.218  0.0287 -0.8654  0.1646
14213SOL    HW143711   5.338   1.866   6.260 -1.3322  0.7907  1.2237
14213SOL    HW243712   5.292   1.803   6.131  1.9471 -0.9737  0.8149
14214SOL     OW43713   2.657   2.291   4.344 -0.3734 -0.3537  0.4099
14214SOL    HW143714   2.593   2.362   4.352 -1.6679 -1.6536  2.7723
14214SOL    HW243715   2.727   2.315   4.405  0.4926  0.1202 -0.7385
14215SOL     OW43716   6.052   5.922   8.050  0.2645  0.3235 -0.7125
14215SOL    HW143717   6.107   5.899   7.975 -0.2787  2.1332 -1.7378
14215SOL    HW243718   6.112   5.962   8.113  0.5190  0.0357 -0.7726
14216SOL     OW43719   6.770   3.838   1.618  0.2651 -0.2119  0.0367
14216SOL    HW143720   6.724   3.896   1.558 -0.0361 -1.2792 -0.7986
14216SOL    HW243721   6.748   3.750   1.588  1.7366 -0.7592  0.4650
14217SOL     OW43722   7.522   7.356   3.684  0.2351 -0.2376  0.0709
14217SOL    HW143723   7.595   7.335   3.627 -0.6472 -0.8947 -0.8447
14217SOL    HW243724   7.457   7.395   3.627 -0.1453  0.3208  0.8675
14218SOL     OW43725   4.975   7.211   0.238 -0.2835  0.2809 -0.0368
14218SOL    HW143726   4.950   7.263   0.162  0.0573  1.1974  0.4611
14218SOL    HW243727   5.068   7.229   0.251  0.0017 -0.9656 -0.2314
14219SOL     OW43728   1.211   5.109   2.995  0.1091  0.8950  0.3319
14219SOL    HW143729   1.283   5.050   3.020  1.0808  2.1338  0.5289
14219SOL    HW243730   1.255   5.185   2.958 -1.1499  1.3436 -0.2623
14220SOL     OW43731   1.362   1.300   3.960 -0.5717  0.7883 -0.1976
14220SOL    HW143732   1.361   1.328   3.868  0.8602 -0.2357 -0.5663
14220SOL    HW243733   1.327   1.211   3.957 -0.2711  0.6567  0.2151
14221SOL     OW43734   1.320   7.188   2.428  0.9076  0.0132  0.7105
14221SOL    HW143735   1.407   7.187   2.388  0.8908  3.3275  0.3167
14221SOL    HW243736   1.261   7.217   2.357  0.5326  3.7377  2.2854
14222SOL     OW43737   6.010   2.844   4.509 -0.3251  0.2546 -0.0661
14222SOL    HW143738   5.951   2.874   4.579  0.2551  0.4223  0.3575
14222SOL    HW243739   5.969   2.764   4.477 -1.2000  0.7857 -0.3189
14223SOL     OW43740   4.658   7.889   1.168 -0.0811  0.2126  0.4134
14223SOL    HW143741   4.644   7.961   1.229 -0.6428 -0.4059  1.0141
14223SOL    HW243742   4.670   7.812   1.223  0.7868 -0.1229 -0.2171
14224SOL     OW43743   6.493   5.224   6.064  0.4467  0.6119 -0.2474
14224SOL    HW143744   6.572   5.171   6.050  0.2553  0.0549  0.6909
14224SOL    HW243745   6.525   5.307   6.098  0.5623 -0.3219  2.1051
14225SOL     OW43746   3.111   0.289   3.314 -0.3873  0.4797  0.0060
14225SOL    HW143747   3.188   0.236   3.292 -0.6585 -0.2902  0.8434
14225SOL    HW243748   3.068   0.241   3.384 -2.4805  0.1068 -1.4344
14226SOL     OW43749   2.286   0.362   4.887 -0.1873  0.4473  0.2783
14226SOL    HW143750   2.359   0.414   4.920 -0.3596  0.1178  1.2395
14226SOL    HW243751   2.251   0.319   4.965 -0.1618 -0.9686 -0.4643
14227SOL     OW43752   1.914   2.963   8.080 -0.3993 -0.1232 -0.2788
14227SOL    HW143753   2.003   2.976   8.115 -0.9938  0.7948  0.9769
14227SOL    HW243754   1.927   2.911   8.001  1.2886  0.2450 -0.2877
14228SOL     OW43755   1.101   3.344   6.028 -0.3224  0.7560 -0.1868
14228SOL    HW143756   1.178   3.353   6.084 -0.4894  1.6981 -0.0892
14228SOL    HW243757   1.053   3.270   6.067  0.1339  0.6650  0.2236
14229SOL     OW43758   6.413   2.359   2.286  0.0373  0.3291 -0.3577
14229SOL    HW143759   6.388   2.419   2.216 -0.0656 -0.0582 -0.6626
14229SOL    HW243760   6.342   2.365   2.350  0.7662  1.6642  0.3576
14230SOL     OW43761   3.447   2.037   6.756 -0.0209 -0.0763  0.5706
14230SOL    HW143762   3.423   2.074   6.841  1.0630 -0.7639  1.1976
14230SOL    HW243763   3.464   1.944   6.773  1.8375  0.0919 -0.0342
14231SOL     OW43764   2.614   2.746   3.121 -0.0210  0.5126  0.2181
14231SOL    HW143765   2.573   2.823   3.082  1.7408  1.4712  0.1421
14231SOL    HW243766   2.616   2.681   3.050  1.6506  1.6591 -0.8480
14232SOL     OW43767   4.201   5.473   2.115  0.2386  0.4489  0.0669
14232SOL    HW143768   4.222   5.433   2.199 -1.5490 -0.4439  0.1515
14232SOL    HW243769   4.285   5.486   2.072  1.0593 -0.8852  1.2064
14233SOL     OW43770   5.333   3.022   2.863 -0.1645  0.5535  0.4881
14233SOL    HW143771   5.287   3.044   2.944  2.8252 -2.2781  3.2472
14233SOL    HW243772   5.281   2.951   2.825  0.6184 -1.1443  2.4081
14234SOL     OW43773   6.459   1.043   1.669 -0.2595 -0.0179 -0.6490
14234SOL    HW143774   6.511   1.076   1.742 -1.0307 -3.0580  1.4497
14234SOL    HW243775   6.524   1.007   1.608  0.2980  0.3044 -0.2551
14235SOL     OW43776   0.561   3.743   3.041  0.1017 -0.4239 -0.0632
14235SOL    HW143777   0.516   3.817   3.000  0.1641 -0.8441 -0.9278
14235SOL    HW243778   0.511   3.725   3.120 -0.9078 -0.5021 -0.7036
14236SOL     OW43779   4.873   2.720   3.479  1.0823 -0.5722 -0.0776
14236SOL    HW143780   4.968   2.706   3.477  1.3437  0.8510 -2.7005
14236SOL    HW243781   4.851   2.722   3.572  3.7657 -0.0276  0.6447
14237SOL     OW43782   2.045   3.155   6.592 -0.0286  0.7147  0.5162
14237SOL    HW143783   1.996   3.075   6.613 -0.3692  1.3133  2.2022
14237SOL    HW243784   1.977   3.220   6.575  0.2293  0.8902  0.1516
14238SOL     OW43785   7.638   4.255   1.293  0.1235 -0.1090 -0.5568
14238SOL    HW143786   7.545   4.266   1.277 -0.0206 -0.5799 -0.0384
14238SOL    HW243787   7.680   4.301   1.220 -0.4757  1.7459  0.1993
14239SOL     OW43788   2.418   4.231   7.976  0.0565 -0.2408 -0.2364
14239SOL    HW143789   2.488   4.184   7.931 -0.6832 -0.2851 -1.3643
14239SOL    HW243790   2.443   4.228   8.068  0.1457 -2.6364 -0.2916
14240SOL     OW43791   4.550   4.356   3.655 -0.0609  0.3014 -0.1991
14240SOL    HW143792   4.554   4.290   3.724 -1.1565 -0.1732 -0.5706
14240SOL    HW243793   4.616   4.421   3.680  0.1780 -0.3124  0.8117
14241SOL     OW43794   4.052   0.499   4.946 -0.5872  0.1207 -0.3031
14241SOL    HW143795   4.061   0.588   4.911  0.4974  1.2068  2.5081
14241SOL    HW243796   4.047   0.511   5.040  0.1787 -2.8703  0.1992
14242SOL     OW43797   0.473   4.489   1.532 -0.0814  0.5576 -0.0489
14242SOL    HW143798   0.455   4.462   1.622 -1.9779  0.9416 -0.2909
14242SOL    HW243799   0.557   4.446   1.511  0.5316  0.6766  1.9564
14243SOL     OW43800   6.434   1.079   2.186 -0.5444 -0.6760 -0.1800
14243SOL    HW143801   6.367   1.113   2.127  1.0332  0.3008 -1.4877
14243SOL    HW243802   6.516   1.114   2.152  0.9427 -3.7434 -0.0711
14244SOL     OW43803   3.564   1.673   4.019  0.0300  0.3816  0.1992
14244SOL    HW143804   3.564   1.645   3.928  0.3481 -1.7279  0.7888
14244SOL    HW243805   3.509   1.609   4.064  2.2348 -0.4209  1.9425
14245SOL     OW43806   1.929   1.032   6.624 -0.1153  0.4285 -0.2480
14245SOL    HW143807   1.964   1.072   6.704 -1.0482  0.7698  0.0055
14245SOL    HW243808   1.998   1.045   6.559  1.4253 -1.3784  0.8921
14246SOL     OW43809   5.029   4.169   5.526 -0.2744  0.0334 -0.2831
14246SOL    HW143810   4.940   4.173   5.561  0.1042  1.6291  0.6161
14246SOL    HW243811   5.022   4.116   5.447 -1.8189 -0.7592  0.3534
14247SOL     OW43812   5.454   2.242   0.750  0.0763 -0.7980  0.5386
14247SOL    HW143813   5.408   2.257   0.833 -0.1539  0.3641  0.2073
14247SOL    HW243814   5.501   2.160   0.764 -0.6275 -1.0491  1.5284
14248SOL     OW43815   1.737   7.190   5.666  0.3291 -0.3375 -0.0518
14248SOL    HW143816   1.701   7.269   5.706  0.9582  0.6416 -1.3338
14248SOL    HW243817   1.772   7.140   5.740  0.0443  0.6517  0.7822
14249SOL     OW43818   6.223   2.908   7.734 -0.3710  0.4127  0.6908
14249SOL    HW143819   6.197   2.991   7.695 -0.2378  0.4814  0.7492
14249SOL    HW243820   6.317   2.901   7.715 -0.6412 -0.3643 -0.5283
14250SOL     OW43821   1.987   2.493   0.202 -0.0064 -0.1566 -0.2221
14250SOL    HW143822   1.920   2.425   0.201  1.2938 -1.4999  0.0981
14250SOL    HW243823   2.067   2.449   0.172  0.9065  1.1996  0.0958
14251SOL     OW43824   6.991   5.213   6.599  0.3107 -0.2475  0.5436
14251SOL    HW143825   7.024   5.295   6.560 -0.9890  0.1721  0.2850
14251SOL    HW243826   6.950   5.167   6.526 -0.2950 -0.4229  0.9874
14252SOL     OW43827   7.659   3.212   1.392 -0.4203  0.0531  0.9247
14252SOL    HW143828   7.732   3.154   1.413  1.1469  1.1250 -1.1956
14252SOL    HW243829   7.673   3.289   1.446  1.6196  1.3592 -1.3038
14253SOL     OW43830   6.629   6.292   2.591  0.2747 -0.2098  0.3723
14253SOL    HW143831   6.539   6.317   2.613 -0.1967  0.1480 -1.7169
14253SOL    HW243832   6.646   6.336   2.507  2.3768 -0.3436  0.6869
14254SOL     OW43833   4.549   6.930   5.433 -0.3423  0.3884  0.6588
14254SOL    HW143834   4.592   6.996   5.487  1.1381 -0.6641  0.8215
14254SOL    HW243835   4.597   6.931   5.351 -0.6726 -0.0886  0.4572
14255SOL     OW43836   7.095   3.087   6.857  0.0557 -0.0229  0.3513
14255SOL    HW143837   7.097   3.032   6.779  0.3302  0.4440  0.0295
14255SOL    HW243838   7.021   3.053   6.908  0.6155 -1.1220  0.4797
14256SOL     OW43839   4.766   4.777   1.289  0.2393  0.0930 -0.1999
14256SOL    HW143840   4.781   4.700   1.234  0.1935  0.8604 -1.3373
14256SOL    HW243841   4.671   4.789   1.290  0.2837  0.5511 -0.6568
14257SOL     OW43842   3.873   4.979   3.003 -0.2189 -0.0084  0.0002
14257SOL    HW143843   3.941   4.974   3.070 -0.3156  0.5236  0.1386
14257SOL    HW243844   3.894   5.059   2.954  1.1530 -1.4830 -2.0030
14258SOL     OW43845   7.161   2.757   1.404 -0.2206  0.2595  0.0867
14258SOL    HW143846   7.247   2.726   1.431 -0.3327  0.9172  1.2358
14258SOL    HW243847   7.099   2.698   1.447 -0.3700 -0.8661 -1.5564
14259SOL     OW43848   1.101   8.060   6.415  0.1504  0.2571  0.3979
14259SOL    HW143849   1.042   8.023   6.349 -0.5498  0.6526  0.7932
14259SOL    HW243850   1.165   8.109   6.364  0.1758 -0.2239 -0.0416
14260SOL     OW43851   0.548   3.694   1.571 -0.3063 -0.4499  0.0854
14260SOL    HW143852   0.473   3.730   1.525  0.6867 -0.8991 -1.9967
14260SOL    HW243853   0.621   3.751   1.548  0.4660 -1.3937  0.0947
14261SOL     OW43854   2.779   4.260   0.454 -0.3224  0.2200 -0.8134
14261SOL    HW143855   2.822   4.246   0.539  0.2242  3.1565 -0.5175
14261SOL    HW243856   2.835   4.213   0.391 -1.0071 -2.4197  0.4167
14262SOL     OW43857   6.884   7.397   0.528 -0.4374 -0.4293  0.9173
14262SOL    HW143858   6.973   7.362   0.528 -0.5269 -0.6624  0.3664
14262SOL    HW243859   6.870   7.426   0.438 -0.0271  1.9091  1.5347
14263SOL     OW43860   3.563   7.814   7.368 -0.2653 -0.4342  0.2303
14263SOL    HW143861   3.606   7.883   7.419  0.3406 -1.7459  1.5299
14263SOL    HW243862   3.619   7.804   7.290  0.3718 -0.3753  0.6738
14264SOL     OW43863   8.043   6.924   1.824 -0.1139 -0.0299  0.0308
14264SOL    HW143864   8.114   6.915   1.887 -0.9323 -2.1112  0.7499
14264SOL    HW243865   8.078   6.886   1.743  0.7407  2.1325 -0.6838
14265SOL     OW43866   8.069   1.137   5.254  0.0172 -0.2888 -0.0455
14265SOL    HW143867   8.036   1.083   5.182  0.1874 -0.3976 -0.0427
14265SOL    HW243868   8.140   1.086   5.292 -0.5185 -0.5353  0.6394
14266SOL     OW43869   6.346   7.630   5.425  0.1976  0.1374  0.5800
14266SOL    HW143870   6.390   7.664   5.503 -0.3927  1.1489  0.4911
14266SOL    HW243871   6.309   7.708   5.383  0.3260 -0.4218 -0.6012
14267SOL     OW43872   2.660   3.107   5.945 -0.0776 -0.1920  0.6862
14267SOL    HW143873   2.658   3.012   5.957 -1.1058 -0.3848 -0.6845
14267SOL    HW243874   2.571   3.136   5.965  0.8675  0.9446  3.8455
14268SOL     OW43875   2.069   5.050   8.123 -0.4223 -0.9139  0.2025
14268SOL    HW143876   2.007   5.082   8.188 -0.6336 -1.0312  0.0575
14268SOL    HW243877   2.054   4.955   8.120  0.4281 -1.0827  0.8723
14269SOL     OW43878   1.633   1.324   0.421  0.0865 -0.2872  0.4222
14269SOL    HW143879   1.569   1.395   0.423  0.4718  0.0599  0.5225
14269SOL    HW243880   1.642   1.296   0.512  0.6234  0.1626  0.5126
14270SOL     OW43881   5.941   1.881   2.981 -0.0682 -0.1302 -0.4817
14270SOL    HW143882   6.013   1.937   3.009  0.2065  0.3089 -1.9653
14270SOL    HW243883   5.865   1.915   3.028  0.8461 -1.4401  2.1493
14271SOL     OW43884   2.349   6.156   3.976  0.1472  0.3518  0.4585
14271SOL    HW143885   2.304   6.211   3.912  1.3213  1.6593  0.6937
14271SOL    HW243886   2.425   6.208   4.003  1.6544 -1.6203  0.2821
14272SOL     OW43887   1.633   7.356   3.715  0.0926 -0.2340  0.3969
14272SOL    HW143888   1.643   7.433   3.772  1.7043  0.7381 -1.1059
14272SOL    HW243889   1.542   7.330   3.727 -0.1823  1.1864  1.8439
14273SOL     OW43890   7.337   7.728   2.907  0.3192  0.1286  0.5259
14273SOL    HW143891   7.288   7.805   2.934  1.4158  0.7544  0.7575
14273SOL    HW243892   7.392   7.758   2.834  1.3302 -0.2273  1.1207
14274SOL     OW43893   3.396   6.637   5.103 -0.2881 -0.3045 -0.2890
14274SOL    HW143894   3.377   6.555   5.057  0.4674 -0.4342 -0.3784
14274SOL    HW243895   3.328   6.643   5.170  0.1508 -1.4403  0.2802
14275SOL     OW43896   7.641   2.223   6.004  0.0759  0.1988 -0.2118
14275SOL    HW143897   7.673   2.188   5.920 -1.1003 -0.0611 -0.5714
14275SOL    HW243898   7.551   2.191   6.010  0.7247 -1.4333  2.0992
14276SOL     OW43899   2.678   4.111   4.340  0.3640  0.2866 -0.8249
14276SOL    HW143900   2.682   4.038   4.402 -2.1803  0.4335 -0.3912
14276SOL    HW243901   2.756   4.164   4.360  0.0077 -0.0553  1.8038
14277SOL     OW43902   7.813   5.380   7.535  0.0007 -0.9482  0.3605
14277SOL    HW143903   7.868   5.416   7.605  0.4187  0.9685 -0.8907
14277SOL    HW243904   7.876   5.349   7.469 -0.3633 -0.1467 -0.3890
14278SOL     OW43905   0.803   2.482   6.301  0.9763  0.1648  0.3752
14278SOL    HW143906   0.760   2.566   6.290  3.1713  1.3426  0.3737
14278SOL    HW243907   0.786   2.435   6.220 -0.2222  0.6022  0.3564
14279SOL     OW43908   2.120   4.138   4.554  0.6764  0.0341  0.2468
14279SOL    HW143909   2.092   4.072   4.491  0.5262  0.8637 -0.5901
14279SOL    HW243910   2.215   4.137   4.550  0.6647  0.4008 -0.3650
14280SOL     OW43911   1.446   6.640   3.094 -0.2560 -0.0388  0.0173
14280SOL    HW143912   1.408   6.620   3.008  1.1438 -0.9540 -0.4256
14280SOL    HW243913   1.434   6.735   3.104  1.8467  0.5882 -2.3921
14281SOL     OW43914   4.764   6.144   0.520  0.4056  0.3564 -0.4814
14281SOL    HW143915   4.757   6.225   0.469 -0.2674  0.7125  0.1688
14281SOL    HW243916   4.750   6.171   0.610 -0.5337 -0.5969 -0.3258
14282SOL     OW43917   7.933   5.509   5.274 -0.3933 -0.5391  0.1727
14282SOL    HW143918   7.944   5.589   5.325 -2.8048 -0.1789  0.2696
14282SOL    HW243919   7.950   5.438   5.337  1.1241 -0.1444  0.2472
14283SOL     OW43920   6.103   5.400   0.876 -0.5063  0.3424 -0.0518
14283SOL    HW143921   6.141   5.385   0.963 -1.1080  1.1565  0.3644
14283SOL    HW243922   6.080   5.313   0.845  2.1804 -0.2807 -0.5687
14284SOL     OW43923   7.404   4.081   2.178 -0.0316 -0.1769  0.5248
14284SOL    HW143924   7.379   3.992   2.154  0.9405 -0.1332 -0.7925
14284SOL    HW243925   7.351   4.137   2.121 -0.4223  0.0849  1.1360
14285SOL     OW43926   4.091   0.827   5.927  0.0430 -0.1715  0.0871
14285SOL    HW143927   4.173   0.782   5.909 -0.6155 -1.0810 -0.7523
14285SOL    HW243928   4.066   0.865   5.842 -1.6986 -2.1259 -0.3592
14286SOL     OW43929   3.850   2.246   5.042 -0.2067 -0.2852 -0.1323
14286SOL    HW143930   3.881   2.223   4.955 -0.1358  1.5870 -0.6560
14286SOL    HW243931   3.755   2.230   5.039 -0.4022  0.8548 -0.9863
14287SOL     OW43932   0.386   3.105   5.381 -0.1277 -0.2646 -0.8946
14287SOL    HW143933   0.325   3.081   5.312  2.0429 -0.3548 -2.8954
14287SOL    HW243934   0.433   3.023   5.401 -0.4939 -0.1640  0.4608
14288SOL     OW43935   4.497   5.799   5.480  0.1750 -0.1226 -0.7179
14288SOL    HW143936   4.537   5.716   5.455 -0.1369 -0.5024  0.0257
14288SOL    HW243937   4.418   5.774   5.529  0.2111  0.6067 -0.2762
14289SOL     OW43938   1.132   6.067   2.152 -0.5578  0.2162 -0.0542
14289SOL    HW143939   1.218   6.108   2.155  0.3311 -1.4837 -0.6872
14289SOL    HW243940   1.137   6.008   2.076 -1.8279 -0.8756  0.6790
14290SOL     OW43941   5.071   2.678   1.556 -0.6080 -0.5574  0.3238
14290SOL    HW143942   5.015   2.600   1.562 -1.4844 -0.4022 -3.1708
14290SOL    HW243943   5.061   2.722   1.640 -5.1109 -1.0597  0.3112
14291SOL     OW43944   5.319   5.664   5.359  0.8268  0.8570  0.4724
14291SOL    HW143945   5.249   5.598   5.358  0.7817  0.8788  1.3891
14291SOL    HW243946   5.326   5.690   5.451 -0.7416  3.8153 -0.1380
14292SOL     OW43947   3.261   6.505   5.290 -0.7177 -0.0803  0.4963
14292SOL    HW143948   3.266   6.464   5.376 -2.6109  1.6367  1.5234
14292SOL    HW243949   3.172   6.487   5.260 -0.8087  1.2216 -0.0775
14293SOL     OW43950   2.014   1.346   5.778  0.4865 -0.0875 -0.0160
14293SOL    HW143951   2.097   1.338   5.729  0.3046  0.1710 -0.3755
14293SOL    HW243952   1.968   1.263   5.760 -0.4535  0.7722 -1.9582
14294SOL     OW43953   6.814   3.627   7.204  0.1497  0.1243  0.3360
14294SOL    HW143954   6.787   3.578   7.282  1.0696 -0.7790  0.1118
14294SOL    HW243955   6.782   3.716   7.219 -2.5076 -0.7610  0.2732
14295SOL     OW43956   6.637   1.807   6.115 -0.3334  0.4924  0.6065
14295SOL    HW143957   6.617   1.879   6.056 -1.1314  0.2912  0.6194
14295SOL    HW243958   6.712   1.763   6.075  1.4907  2.5124  1.6526
14296SOL     OW43959   0.462   6.767   3.574 -0.6459  0.6092  0.2656
14296SOL    HW143960   0.508   6.828   3.631  1.0296  0.1230 -0.4837
14296SOL    HW243961   0.412   6.711   3.633 -0.8510  1.6258  1.0701
14297SOL     OW43962   0.612   0.760   2.462  0.5755 -0.0448 -0.0161
14297SOL    HW143963   0.662   0.704   2.521 -0.8314 -1.7642 -0.3359
14297SOL    HW243964   0.537   0.790   2.514  0.1283 -0.3332 -0.4731
14298SOL     OW43965   1.351   1.845   3.926 -0.3598  0.5447  0.0402
14298SOL    HW143966   1.262   1.810   3.930  0.6152 -2.0558  0.7952
14298SOL    HW243967   1.371   1.871   4.016  0.4864 -1.2738  0.4137
14299SOL     OW43968   1.166   5.173   1.702  0.3512 -0.2788  0.2345
14299SOL    HW143969   1.117   5.131   1.632  0.8775 -3.3594  1.5425
14299SOL    HW243970   1.100   5.205   1.763 -0.0598  0.7333 -0.7113
14300SOL     OW43971   6.874   7.129   0.624 -0.5654  0.4170 -0.4974
14300SOL    HW143972   6.859   7.216   0.588  1.4427  0.3327 -1.7290
14300SOL    HW243973   6.912   7.145   0.711 -0.5142  0.7607 -0.5814
14301SOL     OW43974   5.983   0.802   7.199 -0.1255 -0.6165  0.4690
14301SOL    HW143975   6.050   0.770   7.259  0.2132 -1.9739 -0.5712
14301SOL    HW243976   5.997   0.751   7.119 -1.4308  0.1647 -0.2825
14302SOL     OW43977   5.483   7.285   2.175  0.1698 -0.2594  0.4989
14302SOL    HW143978   5.566   7.303   2.131 -0.8306  1.1951 -0.8555
14302SOL    HW243979   5.473   7.190   2.169  0.0727 -0.1461 -2.4998
14303SOL     OW43980   4.467   6.454   7.264 -0.3289  0.0206 -0.2942
14303SOL    HW143981   4.563   6.462   7.256  0.0088  0.7275  3.0583
14303SOL    HW243982   4.452   6.362   7.285 -0.3158  0.0468 -0.1684
14304SOL     OW43983   4.291   5.457   5.321 -0.1019 -0.0082  0.1199
14304SOL    HW143984   4.218   5.455   5.259 -0.1138 -1.1103  0.1614
14304SOL    HW243985   4.339   5.537   5.299 -1.5155  0.9504  0.3299
14305SOL     OW43986   5.819   5.185   5.116  0.9116 -0.7481  0.6276
14305SOL    HW143987   5.818   5.188   5.212 -1.3207  0.6562  0.6154
14305SOL    HW243988   5.784   5.098   5.094 -0.8297 -0.2119  1.1260
14306SOL     OW43989   4.882   0.788   6.133 -0.1900  0.2340  0.5975
14306SOL    HW143990   4.959   0.843   6.142 -0.6239  0.6628  1.8174
14306SOL    HW243991   4.907   0.704   6.173 -0.4209  0.4491  1.2044
14307SOL     OW43992   6.702   4.337   6.449  0.3833  0.7208  0.2445
14307SOL    HW143993   6.672   4.363   6.362  0.3599  0.2447  0.1039
14307SOL    HW243994   6.670   4.247   6.459 -1.2335  1.3745  1.4922
14308SOL     OW43995   2.564   7.414   1.801  0.2282  0.5729 -0.8663
14308SOL    HW143996   2.581   7.442   1.711 -0.1047  2.1817 -0.4581
14308SOL    HW243997   2.560   7.496   1.851 -1.5841 -0.1508  0.2644
14309SOL     OW43998   2.841   0.989   5.514  0.2725 -0.0993  0.3294
14309SOL    HW143999   2.934   1.007   5.500  0.1245 -0.0269 -0.5919
14309SOL    HW244000   2.818   0.922   5.450 -0.9483  1.8821 -1.4496
14310SOL     OW44001   6.301   7.295   6.486 -0.4430  0.2601  0.5183
14310SOL    HW144002   6.324   7.388   6.491 -0.8359  0.2876  2.7072
14310SOL    HW244003   6.309   7.263   6.576  0.6445 -2.0899 -0.3130
14311SOL     OW44004   4.386   3.197   0.048  0.0779  0.2177 -0.0026
14311SOL    HW144005   4.360   3.150  -0.031 -0.0947 -0.1234  0.2531
14311SOL    HW244006   4.304   3.237   0.080  0.0046 -0.2532  0.4045
14312SOL     OW44007   2.739   2.784   5.710 -0.3127  0.5095  0.2252
14312SOL    HW144008   2.672   2.822   5.653  0.3126  1.2715 -0.0106
14312SOL    HW244009   2.699   2.784   5.797 -1.4131 -0.9941 -0.2476
14313SOL     OW44010   1.911   2.596   2.878  0.1297 -0.3416  0.7475
14313SOL    HW144011   1.930   2.687   2.858  0.6835 -0.2257  1.7151
14313SOL    HW244012   1.888   2.557   2.794  1.6476  0.2581  0.0028
14314SOL     OW44013   2.897   4.695   4.154  0.1615 -0.5922 -0.0363
14314SOL    HW144014   2.907   4.767   4.215 -2.5470 -0.7937  0.7792
14314SOL    HW244015   2.804   4.674   4.157  0.6088 -3.1692 -1.3415
14315SOL     OW44016   2.213   2.739   0.164 -0.3178  0.0693  0.2151
14315SOL    HW144017   2.185   2.767   0.076  2.3264  0.3727 -0.6241
14315SOL    HW244018   2.244   2.819   0.206 -0.7324 -0.2274  1.1020
14316SOL     OW44019   7.392   7.825   4.309 -0.2916  0.5169 -0.2039
14316SOL    HW144020   7.374   7.789   4.222  0.1490  0.2105 -0.1664
14316SOL    HW244021   7.482   7.856   4.304 -0.7706  2.0008 -0.3677
14317SOL     OW44022   5.455   0.721   1.909 -0.4692  0.0510 -0.6082
14317SOL    HW144023   5.367   0.725   1.873 -1.1955  1.1540  1.1916
14317SOL    HW244024   5.512   0.737   1.833 -1.8135 -0.1511 -1.6960
14318SOL     OW44025   1.148   2.353   8.056  0.3531  0.1238  0.1204
14318SOL    HW144026   1.208   2.301   8.110  0.5278  0.6179  0.4165
14318SOL    HW244027   1.185   2.441   8.058 -0.7897  0.6120  0.9391
14319SOL     OW44028   7.555   6.143   4.336 -0.3329 -0.4767 -0.3577
14319SOL    HW144029   7.618   6.213   4.351 -1.2698  1.1253 -3.1550
14319SOL    HW244030   7.472   6.178   4.369 -0.4073 -1.2066  0.2531
14320SOL     OW44031   6.109   3.137   0.105 -0.5700  0.0302  0.0871
14320SOL    HW144032   6.115   3.182   0.189 -1.0088  0.6533 -0.2111
14320SOL    HW244033   6.032   3.081   0.113  0.5293 -1.4452  0.8097
14321SOL     OW44034   0.319   1.740   0.455 -0.6188 -0.3407 -0.5376
14321SOL    HW144035   0.369   1.821   0.457 -0.7428 -0.2436  1.9696
14321SOL    HW244036   0.349   1.695   0.377 -0.2930  1.9366 -1.8142
14322SOL     OW44037   2.618   2.493   0.173  0.0209  0.3753 -0.8984
14322SOL    HW144038   2.525   2.494   0.197 -0.0738  2.8164 -1.1686
14322SOL    HW244039   2.620   2.521   0.082  1.0458  0.8299 -0.7527
14323SOL     OW44040   2.286   1.254   4.067  0.3834  0.2921  0.1054
14323SOL    HW144041   2.321   1.169   4.095  0.6902 -0.0631 -1.2760
14323SOL    HW244042   2.253   1.293   4.147  1.1146 -0.7171  0.9383
14324SOL     OW44043   6.368   5.322   5.840 -0.1218 -0.0299 -0.1133
14324SOL    HW144044   6.442   5.332   5.781 -0.2881 -1.8715 -0.6982
14324SOL    HW244045   6.403   5.272   5.914 -0.2380  1.1328  0.7612
14325SOL     OW44046   2.183   4.409   0.843 -0.0038  0.1949  0.1740
14325SOL    HW144047   2.244   4.340   0.818 -0.2571  0.6634 -1.9352
14325SOL    HW244048   2.211   4.485   0.793 -0.3640  1.3702  1.6660
14326SOL     OW44049   6.752   3.207   3.152 -0.3945  0.4932 -0.0915
14326SOL    HW144050   6.744   3.291   3.197  1.2935  1.3856 -1.3224
14326SOL    HW244051   6.707   3.144   3.208 -3.5246  2.5212 -0.1148
14327SOL     OW44052   7.250   6.545   0.511  0.6132 -0.2147  0.2379
14327SOL    HW144053   7.208   6.552   0.424  0.4304  0.9481  0.4004
14327SOL    HW244054   7.343   6.553   0.493  0.7503 -2.0527 -0.0478
14328SOL     OW44055   7.194   4.522   5.434 -0.4230  0.3774  0.8375
14328SOL    HW144056   7.127   4.537   5.500 -1.1530 -0.5948  0.3307
14328SOL    HW244057   7.186   4.429   5.412  1.3125  0.1536  1.0052
14329SOL     OW44058   2.530   1.685   0.159 -0.0972  0.3531 -0.2227
14329SOL    HW144059   2.537   1.705   0.252  0.3063 -0.8832  0.0402
14329SOL    HW244060   2.568   1.597   0.151 -0.0447  0.4781 -1.5678
14330SOL     OW44061   2.581   0.712   0.514  0.8448  0.1331 -0.1293
14330SOL    HW144062   2.642   0.731   0.443  1.1971  0.7379  0.3211
14330SOL    HW244063   2.621   0.752   0.592  0.2636 -0.1492  0.3271
14331SOL     OW44064   2.117   5.570   0.888  0.2727  0.6767  0.0607
14331SOL    HW144065   2.030   5.610   0.900 -0.5943 -1.0849 -0.1062
14331SOL    HW244066   2.102   5.476   0.900  1.8955  0.1986 -1.3806
14332SOL     OW44067   1.033   5.224   4.404 -0.2216 -0.5177 -0.3967
14332SOL    HW144068   0.965   5.168   4.442  0.4759 -2.0622 -1.3494
14332SOL    HW244069   1.091   5.243   4.478 -0.0008 -1.7677 -0.2267
14333SOL     OW44070   3.098   6.034   6.733  0.1503 -0.3304 -0.2863
14333SOL    HW144071   3.066   6.006   6.647 -3.0537 -1.4058  1.1205
14333SOL    HW244072   3.055   6.118   6.748 -0.1374 -0.6450  0.6854
14334SOL     OW44073   4.541   4.098   0.815 -0.1289  0.1948 -0.2995
14334SOL    HW144074   4.453   4.116   0.847 -1.4494 -0.8580 -2.9771
14334SOL    HW244075   4.562   4.012   0.852 -1.1750 -0.5281 -1.3100
14335SOL     OW44076   2.637   7.578   7.807  0.0285 -0.0461  0.3593
14335SOL    HW144077   2.732   7.577   7.820  0.0131 -1.6063  0.5097
14335SOL    HW244078   2.604   7.506   7.861 -1.1968  0.1954 -0.0343
14336SOL     OW44079   1.905   2.431   6.757 -0.1566 -0.1411  0.8441
14336SOL    HW144080   1.926   2.340   6.740  1.2273  0.0323  1.4695
14336SOL    HW244081   1.951   2.480   6.688 -1.5239  0.0551  0.0432
14337SOL     OW44082   7.150   4.112   6.128  0.0806 -0.5941  0.4205
14337SOL    HW144083   7.218   4.145   6.187 -0.3885 -0.7100  1.0439
14337SOL    HW244084   7.196   4.091   6.047  1.1587 -2.5196  1.4594
14338SOL     OW44085   3.836   4.066   1.712  0.4033 -0.0251 -0.2671
14338SOL    HW144086   3.746   4.094   1.727 -0.1443 -2.1860  0.9040
14338SOL    HW244087   3.886   4.107   1.783  0.0081 -0.2704  0.1588
14339SOL     OW44088   5.585   6.867   3.669 -0.5237  0.0169 -0.1797
14339SOL    HW144089   5.629   6.827   3.594  1.1236  0.7195  0.3622
14339SOL    HW244090   5.525   6.932   3.631 -1.8079 -1.5506 -0.9714
14340SOL     OW44091   4.498   6.199   2.902 -0.2869 -0.7496 -0.4537
14340SOL    HW144092   4.437   6.270   2.879 -1.1995 -0.4837  2.4573
14340SOL    HW244093   4.581   6.227   2.865 -0.8987  1.2343 -0.4770
14341SOL     OW44094   7.694   1.264   3.825  0.1007 -0.0967 -0.0608
14341SOL    HW144095   7.634   1.191   3.807  0.2541 -0.6661  1.5260
14341SOL    HW244096   7.639   1.342   3.822 -0.5849 -0.5417  0.6466
14342SOL     OW44097   3.269   2.707   2.704  0.0038 -0.4527 -0.7048
14342SOL    HW144098   3.250   2.633   2.761  1.3027 -0.2482  0.0284
14342SOL    HW244099   3.343   2.678   2.651  1.4878  0.7804  0.5921
14343SOL     OW44100   0.165   6.261   6.996 -0.1457  0.3369 -0.2193
14343SOL    HW144101   0.208   6.271   6.911 -0.2691 -2.9854 -0.8360
14343SOL    HW244102   0.236   6.261   7.060  0.2854 -0.2218 -0.6885
14344SOL     OW44103   5.721   5.621   4.396 -0.2840  0.2531 -0.9747
14344SOL    HW144104   5.788   5.638   4.330 -0.5292  1.2235 -0.9834
14344SOL    HW244105   5.739   5.683   4.466 -0.9551  0.2789 -0.8193
14345SOL     OW44106   2.648   4.627   1.863  0.5631 -0.6638 -0.1251
14345SOL    HW144107   2.672   4.645   1.954  0.9351 -0.8471 -0.1866
14345SOL    HW244108   2.671   4.535   1.849 -1.0193 -1.1141  0.0799
14346SOL     OW44109   6.689   7.710   3.313 -0.4010  0.0678 -0.5722
14346SOL    HW144110   6.782   7.704   3.335 -0.5486 -0.8826 -0.1806
14346SOL    HW244111   6.644   7.706   3.397 -0.8216 -0.1615 -0.8039
14347SOL     OW44112   7.319   8.136   4.255  0.0912  0.3541 -0.0870
14347SOL    HW144113   7.362   8.079   4.191  0.7545  0.8388 -0.0864
14347SOL    HW244114   7.360   8.114   4.339 -0.0701  0.4153  0.0096
14348SOL     OW44115   7.606   0.142   4.423 -0.2102 -0.2787 -0.0034
14348SOL    HW144116   7.519   0.182   4.432 -0.6165 -1.1391  0.0515
14348SOL    HW244117   7.652   0.197   4.360 -0.5045  0.6617  0.5948
14349SOL     OW44118   0.068   7.785   0.443  0.1088  0.2197 -0.0144
14349SOL    HW144119   0.145   7.802   0.388 -0.2388 -1.6608 -1.2078
14349SOL    HW244120  -0.006   7.799   0.384 -0.2637 -2.1536 -0.2106
14350SOL     OW44121   0.024   7.746   0.076  0.2113 -0.4944  0.0048
14350SOL    HW144122  -0.061   7.703   0.064  0.2548 -0.9696  1.2779
14350SOL    HW244123   0.087   7.687   0.036 -0.0024 -0.3580 -0.5405
14351SOL     OW44124   2.964   1.734   7.429 -0.0890  0.4713  0.0029
14351SOL    HW144125   3.014   1.806   7.467 -0.5574  0.3837  0.8082
14351SOL    HW244126   2.991   1.657   7.479  2.3206 -0.4371 -2.4824
14352SOL     OW44127   7.503   3.318   2.347  0.3318 -0.2532  0.6541
14352SOL    HW144128   7.528   3.406   2.375 -0.0278  0.3361 -0.8052
14352SOL    HW244129   7.586   3.274   2.329  0.4850  0.4537 -0.4975
14353SOL     OW44130   7.046   3.699   0.322  0.3568  0.3373 -0.4297
14353SOL    HW144131   7.060   3.712   0.416  1.5859 -1.6796 -0.2778
14353SOL    HW244132   7.122   3.650   0.293  0.1998  1.2898 -2.6068
14354SOL     OW44133   0.474   6.319   6.127 -0.1151  0.2289 -0.5535
14354SOL    HW144134   0.423   6.325   6.208  1.1852  1.4259  0.2328
14354SOL    HW244135   0.451   6.399   6.079  0.2667  0.2806 -0.6504
14355SOL     OW44136   0.059   0.728   6.107 -1.4824 -0.9262 -0.1827
14355SOL    HW144137   0.086   0.704   6.196  0.0370 -1.1280 -0.6715
14355SOL    HW244138   0.046   0.823   6.111  0.9707 -0.5342 -0.2823
14356SOL     OW44139   7.761   3.995   2.643 -0.9676  0.4011  0.5496
14356SOL    HW144140   7.693   4.019   2.705 -0.6638  3.1677 -0.0658
14356SOL    HW244141   7.717   3.994   2.558 -0.8097 -0.6549  0.4638
14357SOL     OW44142   7.710   2.739   5.437 -0.3900 -0.5005  0.0817
14357SOL    HW144143   7.791   2.726   5.386 -0.3433 -1.4790  0.3735
14357SOL    HW244144   7.663   2.656   5.428 -0.7570 -0.4004  0.9730
14358SOL     OW44145   2.031   6.819   2.292  0.4911  0.7089  0.1237
14358SOL    HW144146   2.105   6.864   2.332  1.2764 -0.8481  0.5266
14358SOL    HW244147   1.967   6.810   2.363  0.3456  1.1338  0.0506
14359SOL     OW44148   0.556   5.142   2.803 -0.2531 -0.5478 -0.0546
14359SOL    HW144149   0.619   5.214   2.805 -0.7404 -0.1296  1.4392
14359SOL    HW244150   0.571   5.100   2.718  1.9747 -0.4194  0.2231
14360SOL     OW44151   4.356   2.357   1.662  0.0771 -0.7490 -0.1102
14360SOL    HW144152   4.299   2.415   1.713  1.0881 -0.7435  1.0549
14360SOL    HW244153   4.296   2.296   1.619 -0.8968  0.1496 -0.0695
14361SOL     OW44154   0.942   5.153   3.480 -0.1272  0.0625 -0.2182
14361SOL    HW144155   1.022   5.133   3.431 -0.1100 -1.6513  0.4524
14361SOL    HW244156   0.935   5.084   3.545  1.2563  3.4700  4.0824
14362SOL     OW44157   0.254   7.482   1.129 -0.1286  0.3482  0.1206
14362SOL    HW144158   0.302   7.509   1.051  0.0772  2.5745  0.9495
14362SOL    HW244159   0.166   7.460   1.097  1.0157 -2.6921 -1.2509
14363SOL     OW44160   2.989   0.933   4.896  0.3047 -0.2233 -0.1138
14363SOL    HW144161   2.947   1.006   4.850 -0.8145  0.6150  2.0434
14363SOL    HW244162   2.946   0.855   4.861 -1.5713  0.4812  0.4630
14364SOL     OW44163   7.643   5.267   6.981  0.1221  0.3967 -0.4092
14364SOL    HW144164   7.714   5.225   7.029  0.6804  1.2676 -0.4413
14364SOL    HW244165   7.595   5.195   6.941  0.6785 -0.2368  0.0347
14365SOL     OW44166   3.300   4.704   3.433 -0.0244 -0.0707 -0.2803
14365SOL    HW144167   3.380   4.714   3.383 -0.1398  2.4624 -0.0811
14365SOL    HW244168   3.248   4.782   3.412 -1.6993 -0.7994  0.9001
14366SOL     OW44169   0.867   1.283   5.686 -0.2348 -0.0086 -0.2079
14366SOL    HW144170   0.896   1.371   5.712 -1.9549  1.0037 -1.4567
14366SOL    HW244171   0.797   1.262   5.749  0.8221 -0.9542  0.6947
14367SOL     OW44172   6.534   4.969   2.078 -0.0772 -0.3179  0.1917
14367SOL    HW144173   6.447   4.946   2.111  0.2684 -0.9647  0.6726
14367SOL    HW244174   6.586   4.982   2.157  0.1846  0.4083 -0.0903
14368SOL     OW44175   1.189   1.895   1.391  0.6415  0.1960 -0.2286
14368SOL    HW144176   1.219   1.938   1.311 -1.0302 -0.1904 -1.1042
14368SOL    HW244177   1.189   1.966   1.457  0.5736  0.8710 -0.9420
14369SOL     OW44178   5.510   7.501   3.765 -0.3736  0.0660 -0.3200
14369SOL    HW144179   5.509   7.407   3.747 -1.1335 -0.1358  0.6941
14369SOL    HW244180   5.600   7.528   3.745 -0.1417 -0.8701 -0.6080
14370SOL     OW44181   1.698   3.929   6.322  0.3562  0.0897 -0.1537
14370SOL    HW144182   1.701   3.988   6.247 -1.4824  0.3079 -0.1039
14370SOL    HW244183   1.612   3.888   6.317  0.7828 -1.0171  1.0039
14371SOL     OW44184   2.178   7.490   5.517 -0.5236 -0.1515 -0.4321
14371SOL    HW144185   2.244   7.555   5.537  1.2641 -1.9745 -0.0746
14371SOL    HW244186   2.143   7.463   5.602 -1.8077  0.8343 -0.6203
14372SOL     OW44187   2.425   6.943   3.262 -0.0619 -0.1129 -0.2307
14372SOL    HW144188   2.404   6.910   3.349  0.0545  0.8596  0.1803
14372SOL    HW244189   2.361   6.901   3.204  0.6565 -1.7538  0.1052
14373SOL     OW44190   7.157   6.795   4.538 -0.0582  0.0517 -0.0254
14373SOL    HW144191   7.062   6.798   4.548 -0.0107  0.1875  0.4240
14373SOL    HW244192   7.188   6.749   4.617  0.3537  1.2330  0.5255
14374SOL     OW44193   4.676   1.375   7.003  0.0629  0.1703  0.6297
14374SOL    HW144194   4.715   1.288   6.997 -2.1173 -0.8914  0.6038
14374SOL    HW244195   4.643   1.392   6.915  0.8564  1.2484  0.5270
14375SOL     OW44196   0.916   6.877   7.956 -0.2884 -0.4581 -0.2331
14375SOL    HW144197   0.830   6.873   7.996  0.5266  0.2673  1.6950
14375SOL    HW244198   0.901   6.854   7.864 -2.3673 -1.2509  0.2610
14376SOL     OW44199   8.065   3.218   5.307  0.0476 -0.3976 -0.9089
14376SOL    HW144200   8.109   3.218   5.392  1.1624 -0.8332 -1.4539
14376SOL    HW244201   7.980   3.177   5.323  1.2598 -2.9356 -0.4506
14377SOL     OW44202   1.312   7.779   2.964 -0.1257  0.2909  0.4383
14377SOL    HW144203   1.315   7.826   2.880  0.2640 -0.2577  0.1436
14377SOL    HW244204   1.218   7.770   2.982 -0.2101  1.0778  0.4457
14378SOL     OW44205   0.996   7.136   7.467 -0.0171 -0.2466 -0.0845
14378SOL    HW144206   0.930   7.179   7.413 -0.1864  1.1972  1.2066
14378SOL    HW244207   0.966   7.046   7.474 -0.0271 -0.4871 -2.2932
14379SOL     OW44208   5.333   6.578   3.204 -0.3027  0.7539 -0.8646
14379SOL    HW144209   5.370   6.611   3.285 -2.8959 -2.2071  1.7778
14379SOL    HW244210   5.390   6.505   3.179 -1.2440 -0.3912  0.2048
14380SOL     OW44211   0.342   0.796   5.091  0.5080 -0.5141  0.5604
14380SOL    HW144212   0.293   0.872   5.060  0.4839  0.8053  3.5092
14380SOL    HW244213   0.412   0.784   5.026 -0.6698  0.7469 -1.0166
14381SOL     OW44214   5.425   4.462   7.057 -0.3886  0.5246  0.3627
14381SOL    HW144215   5.410   4.510   6.975 -0.4550  0.0475  0.0928
14381SOL    HW244216   5.356   4.396   7.059  1.0770 -1.1264 -0.4612
14382SOL     OW44217   2.854   4.257   5.073 -0.0904 -0.5231  0.2541
14382SOL    HW144218   2.906   4.199   5.017 -1.2062 -2.2555  0.9250
14382SOL    HW244219   2.767   4.218   5.073 -0.5611  0.4606  1.7613
14383SOL     OW44220   6.839   4.077   5.086 -0.1773  0.1277 -0.0586
14383SOL    HW144221   6.902   4.005   5.090 -0.3058 -0.0246 -0.6179
14383SOL    HW244222   6.838   4.102   4.994 -2.1934 -1.0160 -0.4078
14384SOL     OW44223   4.190   0.261   6.911  1.0004 -0.5975  0.3804
14384SOL    HW144224   4.185   0.208   6.831  1.5442 -1.0860  0.6543
14384SOL    HW244225   4.235   0.341   6.884 -0.5043  0.0775 -0.2037
14385SOL     OW44226   2.208   6.742   7.929 -0.0806  0.2188  0.5910
14385SOL    HW144227   2.248   6.751   7.842  0.9230 -0.5769  0.9481
14385SOL    HW244228   2.116   6.763   7.915  0.3355  1.5611 -0.3794
14386SOL     OW44229   0.412   3.507   1.330 -1.1282  0.3041 -0.6257
14386SOL    HW144230   0.474   3.568   1.368 -0.1366 -1.2100  0.2779
14386SOL    HW244231   0.406   3.533   1.238 -1.6404  2.4421 -0.0527
14387SOL     OW44232   1.969   1.535   0.518 -0.7218  0.1332 -0.1852
14387SOL    HW144233   1.980   1.563   0.427  1.3066  2.4351  0.6547
14387SOL    HW244234   1.893   1.585   0.549 -1.2802 -0.4898 -0.5163
14388SOL     OW44235   1.775   6.180   4.122 -0.0072  0.2926 -0.3731
14388SOL    HW144236   1.806   6.150   4.036 -2.3393  1.8419 -1.8398
14388SOL    HW244237   1.796   6.273   4.125 -1.2483  0.5820  0.0854
14389SOL     OW44238   3.752   2.358   6.074 -0.2510  0.8896 -0.3150
14389SOL    HW144239   3.787   2.399   6.152 -1.8078  0.6182  0.5606
14389SOL    HW244240   3.683   2.417   6.044  0.5308  1.1629 -1.7164
14390SOL     OW44241   6.534   4.632   2.943 -0.3455  0.2055 -0.2505
14390SOL    HW144242   6.611   4.589   2.980 -1.6810 -1.9167  0.2603
14390SOL    HW244243   6.505   4.693   3.011  0.5059  0.5644 -0.1990
14391SOL     OW44244   6.355   1.104   5.091 -0.0623 -0.1297 -0.0978
14391SOL    HW144245   6.353   1.035   5.157 -2.6248 -1.1343 -1.0889
14391SOL    HW244246   6.425   1.078   5.031  0.1664 -0.9154  0.4942
14392SOL     OW44247   0.982   0.486   2.705  0.1381  0.0523 -0.0318
14392SOL    HW144248   0.983   0.436   2.787  0.8755 -0.8572 -0.5787
14392SOL    HW244249   1.067   0.470   2.666 -0.4328 -0.0445 -1.2862
14393SOL     OW44250   4.871   0.663   2.147 -0.2161 -0.0124  0.4870
14393SOL    HW144251   4.843   0.751   2.171  0.0998  0.4532 -0.7859
14393SOL    HW244252   4.793   0.608   2.159  0.2305 -0.1433  3.8714
14394SOL     OW44253   0.135   5.217   1.286 -0.2203 -0.1251 -0.5461
14394SOL    HW144254   0.219   5.187   1.251 -0.1784  0.2380 -0.7651
14394SOL    HW244255   0.070   5.184   1.224 -0.2139 -0.1608 -0.5337
14395SOL     OW44256   2.880   0.778   5.354  0.3259 -0.1888 -0.4176
14395SOL    HW144257   2.954   0.773   5.293  1.9529 -1.5010  1.5071
14395SOL    HW244258   2.846   0.689   5.358 -1.0902  0.3045 -0.9053
14396SOL     OW44259   7.700   2.995   1.696 -0.0740 -0.4336 -0.0552
14396SOL    HW144260   7.787   3.017   1.731 -0.2229  0.6327 -0.3242
14396SOL    HW244261   7.716   2.917   1.643  0.3865 -1.3082  1.3136
14397SOL     OW44262   8.114   1.797   3.097 -0.1339 -0.6396  0.1353
14397SOL    HW144263   8.059   1.733   3.052  0.7976 -1.8489  0.6458
14397SOL    HW244264   8.185   1.816   3.036  0.9682 -2.0571  0.8986
14398SOL     OW44265   5.987   0.974   5.245 -0.0864 -0.0763  0.0136
14398SOL    HW144266   5.924   0.930   5.301  1.7759 -0.9229  1.5621
14398SOL    HW244267   6.014   1.051   5.294 -0.7198  0.9263 -1.1473
14399SOL     OW44268   7.952   6.927   6.788  0.0916  0.2905 -0.5507
14399SOL    HW144269   7.936   6.839   6.820 -0.0342  0.6890  0.5295
14399SOL    HW244270   7.982   6.976   6.864 -1.3437  1.5749 -0.7409
14400SOL     OW44271   2.798   5.627   6.708 -0.1396  0.3981 -0.4704
14400SOL    HW144272   2.824   5.600   6.796 -0.1453  0.4184 -0.4625
14400SOL    HW244273   2.726   5.567   6.685 -0.3951  0.6386 -0.3114
14401SOL     OW44274   3.944   2.841   2.093  0.1173 -0.1607 -0.4989
14401SOL    HW144275   3.989   2.925   2.096  0.0677 -0.1442 -0.2019
14401SOL    HW244276   4.008   2.781   2.053  0.4442 -0.1608  0.0108
14402SOL     OW44277   7.634   2.678   0.997  0.2294  0.4854  0.4146
14402SOL    HW144278   7.716   2.721   1.023  0.2829  0.7214 -0.1383
14402SOL    HW244279   7.573   2.697   1.069 -0.3726  3.2343 -0.7338
14403SOL     OW44280   2.801   1.231   8.148  0.3257 -0.4074  0.0574
14403SOL    HW144281   2.892   1.203   8.135  0.4519  0.5411 -1.2531
14403SOL    HW244282   2.749   1.153   8.128  0.8437 -1.3567  2.0599
14404SOL     OW44283   0.847   2.767   5.258 -0.2364 -0.7426  0.5206
14404SOL    HW144284   0.770   2.710   5.251  0.4728 -1.7885  0.8647
14404SOL    HW244285   0.919   2.707   5.279  0.6079  0.2547  0.5683
14405SOL     OW44286   7.398   3.115   5.110 -0.1291  0.0768  0.4132
14405SOL    HW144287   7.323   3.059   5.128  0.5693 -1.1585 -0.4023
14405SOL    HW244288   7.365   3.204   5.120 -1.5198 -0.4655  0.7415
14406SOL     OW44289   6.994   0.658   4.260 -0.3958 -0.1677  0.0327
14406SOL    HW144290   7.015   0.588   4.322  0.9290  0.4163  0.2912
14406SOL    HW244291   7.074   0.711   4.257 -1.7268  1.9835  0.7158
14407SOL     OW44292   5.876   2.342   3.317  0.0018 -0.0706  0.0971
14407SOL    HW144293   5.961   2.383   3.302 -0.7158  0.6120 -2.7441
14407SOL    HW244294   5.814   2.414   3.313 -0.8745 -0.8061  0.1417
14408SOL     OW44295   2.703   4.459   5.462 -0.1136 -0.1176  0.0726
14408SOL    HW144296   2.676   4.551   5.464  2.2003  0.6167  1.2849
14408SOL    HW244297   2.682   4.430   5.373 -1.4373  1.3742 -0.1563
14409SOL     OW44298   1.344   1.990   3.707  0.4915 -0.0162 -0.2422
14409SOL    HW144299   1.360   1.946   3.790  1.1635  0.8222  0.0927
14409SOL    HW244300   1.288   1.930   3.658  1.2625 -1.1702  0.2460
14410SOL     OW44301   5.903   6.711   5.397  0.0633  0.0617  0.0803
14410SOL    HW144302   5.847   6.717   5.319 -0.3873  0.9932  0.4698
14410SOL    HW244303   5.917   6.801   5.424  1.5816 -0.1646  0.1331
14411SOL     OW44304   7.842   0.199   7.073  0.6328 -0.0644  0.3355
14411SOL    HW144305   7.840   0.104   7.085  1.4093 -0.1606 -0.1853
14411SOL    HW244306   7.859   0.211   6.979 -0.3664  0.6009  0.2269
14412SOL     OW44307   3.070   1.174   4.150  0.0146  0.6734  0.0496
14412SOL    HW144308   3.016   1.232   4.205 -1.1182 -1.1621  0.9602
14412SOL    HW244309   3.016   1.156   4.073  0.7120  1.4680 -0.6462
14413SOL     OW44310   0.795   7.168   7.779 -0.2865  0.5528  1.0830
14413SOL    HW144311   0.785   7.095   7.717 -0.5709  0.0855  1.6633
14413SOL    HW244312   0.777   7.246   7.727  1.5686  0.3613  0.0480
14414SOL     OW44313   3.325   4.009   6.127 -0.3259  0.2574 -0.5844
14414SOL    HW144314   3.406   4.030   6.173 -0.9601  0.8433  0.3016
14414SOL    HW244315   3.347   3.932   6.074  0.5866 -0.0813  0.2530
14415SOL     OW44316   3.650   3.911   1.503  0.0002 -0.1829 -0.1357
14415SOL    HW144317   3.567   3.947   1.536  0.2218  1.4816 -1.2598
14415SOL    HW244318   3.701   3.988   1.478  0.9415 -1.2507 -1.6962
14416SOL     OW44319   4.608   0.657   1.364  0.4262  0.1558  0.0225
14416SOL    HW144320   4.594   0.678   1.456  1.1941  0.0944  0.1593
14416SOL    HW244321   4.700   0.630   1.359 -0.0515 -1.4992 -0.4484
14417SOL     OW44322   1.293   2.950   2.323  0.4199 -0.0669  0.5115
14417SOL    HW144323   1.215   2.939   2.268  1.3391 -0.4417 -0.7767
14417SOL    HW244324   1.275   3.029   2.374  0.4161  1.6600 -1.9696
14418SOL     OW44325   3.049   5.338   1.915 -0.1885  0.3821  0.5625
14418SOL    HW144326   2.978   5.392   1.881  1.3507  1.4082 -1.2253
14418SOL    HW244327   3.089   5.391   1.984  1.2790  1.6409 -1.1451
14419SOL     OW44328   7.110   2.557   6.027  0.0285 -0.3610 -0.0752
14419SOL    HW144329   7.112   2.462   6.038  0.5776 -0.3625 -0.1601
14419SOL    HW244330   7.163   2.591   6.099  1.2181 -0.2179 -0.9777
14420SOL     OW44331   3.763   4.031   5.528  0.7676  0.7160 -0.4080
14420SOL    HW144332   3.805   4.038   5.442  2.7871  1.0903  0.5615
14420SOL    HW244333   3.769   4.119   5.565 -0.0470  0.5524  0.1540
14421SOL     OW44334   7.970   1.308   2.539 -0.4412  0.8160  0.6800
14421SOL    HW144335   7.878   1.304   2.564 -0.7506  1.0218 -0.3670
14421SOL    HW244336   7.970   1.353   2.454  0.6794  1.3930  0.9568
14422SOL     OW44337   1.389   5.041   7.229 -0.6845  0.0953  0.5828
14422SOL    HW144338   1.467   5.036   7.283 -1.1549 -1.3124  1.1852
14422SOL    HW244339   1.353   5.128   7.246 -0.7663 -0.2641  2.4971
14423SOL     OW44340   1.553   8.035   5.953  1.0204 -0.0837  0.5673
14423SOL    HW144341   1.508   8.057   6.035 -2.7426  2.0241 -1.7934
14423SOL    HW244342   1.590   8.118   5.923  0.5648 -0.3432 -0.7978
14424SOL     OW44343   0.795   7.962   5.774 -0.1434  0.3166  0.3452
14424SOL    HW144344   0.864   8.026   5.788  1.8768 -1.4285 -1.0504
14424SOL    HW244345   0.776   7.927   5.861  1.4536  0.1542  0.6572
14425SOL     OW44346   6.191   4.573   4.619 -0.4666  0.1711 -0.2905
14425SOL    HW144347   6.176   4.667   4.624  0.1537  0.2656 -0.1797
14425SOL    HW244348   6.134   4.535   4.686  0.8342  0.6443  1.1212
14426SOL     OW44349   6.436   7.138   2.317 -0.3028  0.3051 -0.2037
14426SOL    HW144350   6.501   7.119   2.249  0.4792  0.4619  0.4741
14426SOL    HW244351   6.455   7.228   2.343 -1.2834  0.6096 -0.5085
14427SOL     OW44352   5.774   0.640   5.000 -0.0227 -0.0705  0.2310
14427SOL    HW144353   5.742   0.709   4.942  0.0557 -0.7706 -0.6690
14427SOL    HW244354   5.719   0.565   4.981 -1.7194  0.3564  2.9347
14428SOL     OW44355   6.226   3.409   2.802 -0.2340 -0.0816 -0.1851
14428SOL    HW144356   6.217   3.371   2.889 -1.8296  0.7384  0.0452
14428SOL    HW244357   6.278   3.488   2.815  0.5873 -0.5941 -0.2109
14429SOL     OW44358   6.797   3.776   5.353  0.1652  0.9281  0.3674
14429SOL    HW144359   6.712   3.820   5.348  0.4804  1.5507  0.3513
14429SOL    HW244360   6.792   3.724   5.433 -0.9599 -0.6424 -0.6503
14430SOL     OW44361   5.724   3.128   3.678 -0.4455  0.4677  0.3052
14430SOL    HW144362   5.782   3.202   3.695  0.9166 -0.8939  2.0284
14430SOL    HW244363   5.637   3.159   3.702 -0.0360  1.7565  0.1853
14431SOL     OW44364   3.606   8.037   2.202  0.3989 -0.4014 -0.0979
14431SOL    HW144365   3.580   8.054   2.112 -1.3562  1.5796  0.6951
14431SOL    HW244366   3.667   8.107   2.223  0.5511 -0.6636  0.3380
14432SOL     OW44367   3.434   7.971   4.403  0.8491  0.2440  0.1985
14432SOL    HW144368   3.382   8.027   4.461 -1.4232  0.1739 -1.6576
14432SOL    HW244369   3.431   7.885   4.444  0.2445  0.4264  0.5467
14433SOL     OW44370   5.546   3.749   4.950  0.2595 -0.2345 -0.0290
14433SOL    HW144371   5.573   3.683   5.014 -0.1318 -1.4020 -1.0346
14433SOL    HW244372   5.531   3.700   4.870 -0.6973  0.9940 -0.6319
14434SOL     OW44373   7.325   6.028   0.773  0.2606 -0.1772 -0.6150
14434SOL    HW144374   7.271   5.949   0.770  1.4728 -1.0229 -1.6172
14434SOL    HW244375   7.414   5.996   0.756  1.0493  1.1946  0.7277
14435SOL     OW44376   6.507   6.596   7.964  0.1947  0.3519  0.3894
14435SOL    HW144377   6.492   6.645   7.884  2.3999  1.0028  0.3095
14435SOL    HW244378   6.588   6.632   8.000 -0.4356 -0.2883  2.6417
14436SOL     OW44379   6.252   1.071   6.187 -0.5938  0.6331  0.1839
14436SOL    HW144380   6.203   1.029   6.258 -2.2816  0.5034 -0.9778
14436SOL    HW244381   6.291   1.148   6.227  0.4495 -0.6450  1.7639
14437SOL     OW44382   4.047   3.884   6.001  0.3589 -0.4429  0.2639
14437SOL    HW144383   4.099   3.866   5.923  2.1376  0.4132  1.1968
14437SOL    HW244384   4.073   3.816   6.064  0.4694  0.0757  0.7870
14438SOL     OW44385   7.466   7.738   6.636  0.4766 -0.0796  0.3523
14438SOL    HW144386   7.406   7.811   6.622  1.7102  0.7110 -1.0717
14438SOL    HW244387   7.543   7.777   6.675 -0.3103 -1.2809  3.4352
14439SOL     OW44388   1.497   7.308   1.609 -0.1979  0.5374  0.3552
14439SOL    HW144389   1.402   7.309   1.619 -0.4221  3.9686 -0.7153
14439SOL    HW244390   1.513   7.354   1.527  2.4225  1.4226  1.2499
14440SOL     OW44391   6.138   7.366   5.018 -0.0183  0.0632 -0.6621
14440SOL    HW144392   6.160   7.435   4.957 -2.6297 -0.1900 -2.0409
14440SOL    HW244393   6.136   7.409   5.104 -3.7913  2.4247 -1.7025
14441SOL     OW44394   3.393   5.283   6.481 -0.5137 -0.0646  0.1066
14441SOL    HW144395   3.422   5.246   6.564  2.2803  0.4147 -0.5517
14441SOL    HW244396   3.372   5.207   6.427 -0.6339 -0.4442  0.6744
14442SOL     OW44397   3.515   6.304   5.553 -0.3187  0.5586  0.0341
14442SOL    HW144398   3.427   6.333   5.580 -0.0456 -0.3284  2.0176
14442SOL    HW244399   3.522   6.215   5.587  1.6358  0.8903  0.5780
14443SOL     OW44400   2.284   5.883   6.918 -0.0538 -0.1107  0.6072
14443SOL    HW144401   2.373   5.852   6.935 -0.3151  0.3182  3.2390
14443SOL    HW244402   2.235   5.805   6.893  1.3356 -0.0957 -2.7245
14444SOL     OW44403   3.183   4.796   4.670  0.2055  0.2288  0.0109
14444SOL    HW144404   3.120   4.841   4.614 -1.2812  0.0788  1.4986
14444SOL    HW244405   3.226   4.866   4.719  0.4019  0.2594 -0.2050
14445SOL     OW44406   0.670   6.264   8.019  0.3299 -0.2155  0.0604
14445SOL    HW144407   0.608   6.330   7.989  1.8898  0.2577 -2.4419
14445SOL    HW244408   0.693   6.290   8.108 -1.5993  0.6408  0.3522
14446SOL     OW44409   2.048   3.085   0.251  0.0690  0.0372 -0.0559
14446SOL    HW144410   2.118   3.134   0.294  1.3223 -1.7133  0.0433
14446SOL    HW244411   2.086   3.058   0.167 -0.3903 -1.1064  0.0822
14447SOL     OW44412   2.807   0.042   4.616 -0.3022  0.2837 -0.1854
14447SOL    HW144413   2.755   0.047   4.696  0.9254 -1.9391  0.8484
14447SOL    HW244414   2.885   0.094   4.635 -0.3090  0.2991 -0.1979
14448SOL     OW44415   0.259   7.578   5.457 -0.4090 -0.5717  0.3720
14448SOL    HW144416   0.291   7.584   5.367  1.0079  0.2342  0.8842
14448SOL    HW244417   0.179   7.630   5.457 -0.2601 -0.3237 -0.3560
14449SOL     OW44418   7.958   3.451   5.208  0.4313  0.2707 -0.4752
14449SOL    HW144419   7.997   3.373   5.249  1.6304  1.0884  0.0065
14449SOL    HW244420   8.001   3.457   5.123 -1.3779 -0.8937 -1.5192
14450SOL     OW44421   7.612   7.086   2.959 -0.3501 -0.4699 -0.1701
14450SOL    HW144422   7.687   7.120   2.910  1.1345 -0.1453  2.1673
14450SOL    HW244423   7.622   6.991   2.955 -0.9911 -0.5007 -1.5322
14451SOL     OW44424   1.714   4.654   1.615 -0.3177  0.3624 -0.5468
14451SOL    HW144425   1.791   4.687   1.570 -1.1912  3.2374 -0.1742
14451SOL    HW244426   1.702   4.565   1.583  3.0352 -0.1428 -0.6851
14452SOL     OW44427   6.351   7.401   3.269 -0.0629 -0.0373 -0.2625
14452SOL    HW144428   6.410   7.326   3.282 -1.3142 -0.9966  0.0753
14452SOL    HW244429   6.389   7.449   3.196  0.3048 -1.4749 -1.0482
14453SOL     OW44430   7.140   2.922   4.491  0.3269  0.1319 -0.2181
14453SOL    HW144431   7.215   2.915   4.431  0.6760 -4.3907  0.3754
14453SOL    HW244432   7.179   2.923   4.578 -0.2591  0.2730  0.0460
14454SOL     OW44433   7.595   4.579   3.081 -0.2065  0.5018 -0.2135
14454SOL    HW144434   7.677   4.561   3.035 -1.0573 -0.3020 -1.4663
14454SOL    HW244435   7.597   4.673   3.098  1.8266  0.2435  1.5145
14455SOL     OW44436   2.637   5.294   1.297  0.2809  0.5992  0.4783
14455SOL    HW144437   2.682   5.272   1.215  1.2295  0.6462  0.9787
14455SOL    HW244438   2.608   5.384   1.286 -1.5156 -0.0406 -0.6399
14456SOL     OW44439   3.320   5.859   7.429  0.3747  0.4952 -0.2964
14456SOL    HW144440   3.295   5.888   7.517 -1.7054  0.9425 -0.9822
14456SOL    HW244441   3.294   5.930   7.372  2.4634  0.5636 -1.2481
14457SOL     OW44442   2.732   6.963   8.029  0.5548  0.2992  0.6302
14457SOL    HW144443   2.793   6.897   8.061  1.0991  1.1663  1.4611
14457SOL    HW244444   2.686   6.994   8.107 -2.2809 -1.5427 -0.1467
14458SOL     OW44445   4.473   4.250   4.788 -0.4529  0.2776  0.3237
14458SOL    HW144446   4.445   4.286   4.872 -1.4843  1.0857 -0.3487
14458SOL    HW244447   4.475   4.155   4.801 -0.1371  0.4195  1.3840
14459SOL     OW44448   0.970   2.240   3.004  0.7007 -0.1210 -0.3527
14459SOL    HW144449   1.011   2.282   2.929  2.2167  0.3819  0.7058
14459SOL    HW244450   1.043   2.208   3.057 -0.3627 -2.2565 -0.0608
14460SOL     OW44451   6.570   3.356   5.160 -0.5567  0.0767  0.3194
14460SOL    HW144452   6.649   3.387   5.117  0.3097 -0.8615  1.1874
14460SOL    HW244453   6.539   3.283   5.105  0.6029 -1.1848  1.2640
14461SOL     OW44454   2.796   3.492   7.379  0.0763 -0.3608 -0.1531
14461SOL    HW144455   2.865   3.483   7.314  1.0089 -2.2376  1.0204
14461SOL    HW244456   2.738   3.418   7.363 -0.9211  0.4019 -0.2125
14462SOL     OW44457   0.422   2.317   7.256  0.5008  0.4100 -0.4876
14462SOL    HW144458   0.343   2.369   7.270  1.2931  1.5537 -0.0867
14462SOL    HW244459   0.409   2.276   7.170 -0.2333  1.1361 -0.7370
14463SOL     OW44460   0.422   6.571   2.772  0.2123  0.2101  0.3550
14463SOL    HW144461   0.503   6.556   2.723  0.7039 -1.7280  1.6362
14463SOL    HW244462   0.405   6.488   2.816 -2.0068  0.8459  0.8506
14464SOL     OW44463   1.400   4.910   7.940  0.0529 -0.1037 -0.3910
14464SOL    HW144464   1.445   4.861   7.872  0.2902  0.3756 -0.5819
14464SOL    HW244465   1.378   4.994   7.899 -0.5606 -0.1343 -0.1429
14465SOL     OW44466   3.386   7.249   1.906  0.3093  0.2125 -0.5192
14465SOL    HW144467   3.392   7.261   1.811  0.7104 -1.2033 -0.6830
14465SOL    HW244468   3.422   7.162   1.922  1.3850  0.9148  1.0829
14466SOL     OW44469   7.041   7.737   7.528  0.5069 -0.3640 -0.2091
14466SOL    HW144470   7.010   7.786   7.452  2.6080 -0.3963 -1.1654
14466SOL    HW244471   7.100   7.798   7.573  1.8875 -1.4179 -0.5084
14467SOL     OW44472   2.777   1.909   6.970 -0.3240  0.2904 -0.0108
14467SOL    HW144473   2.784   1.930   6.877  0.3907  1.7642  0.3439
14467SOL    HW244474   2.738   1.821   6.972  0.8144 -0.3022 -1.7095
14468SOL     OW44475   0.916   2.188   3.808 -0.0425  0.1002 -0.3244
14468SOL    HW144476   0.887   2.201   3.898  0.5501 -1.8612  0.1994
14468SOL    HW244477   0.949   2.274   3.781 -1.2545  1.0015  0.9265
14469SOL     OW44478   1.901   3.522   6.440 -0.1175  0.4998 -0.5855
14469SOL    HW144479   1.837   3.565   6.383  0.7834  1.0036 -1.2324
14469SOL    HW244480   1.930   3.446   6.391 -0.4020  0.1294 -0.1839
14470SOL     OW44481   3.694   5.137   4.971  0.0403  0.1300 -0.1519
14470SOL    HW144482   3.724   5.177   4.889 -0.8136  1.4392  0.1564
14470SOL    HW244483   3.705   5.204   5.037 -0.4155 -0.5045  0.5914
14471SOL     OW44484   3.644   5.261   1.977  0.1562  0.1253  0.2001
14471SOL    HW144485   3.612   5.232   1.892 -0.6269 -0.2010  0.5945
14471SOL    HW244486   3.682   5.347   1.960 -1.7220  0.9401 -0.1647
14472SOL     OW44487   7.519   7.652   7.038 -0.2387  0.1344  0.7798
14472SOL    HW144488   7.455   7.587   7.066  0.9768 -0.3531  2.6433
14472SOL    HW244489   7.602   7.620   7.074  1.1371  0.6027 -1.7325
14473SOL     OW44490   3.432   6.332   6.615 -0.4379  0.3422  1.2012
14473SOL    HW144491   3.393   6.265   6.670 -1.6383  1.3295  1.6101
14473SOL    HW244492   3.521   6.302   6.599 -0.6336 -0.8334  2.2065
14474SOL     OW44493   0.730   5.148   5.674 -0.2344 -0.1987 -0.2811
14474SOL    HW144494   0.650   5.096   5.674  1.5095 -3.0838  0.2229
14474SOL    HW244495   0.709   5.224   5.728 -2.7886 -0.5110 -0.7235
14475SOL     OW44496   5.707   6.120   2.415  0.1548 -0.7778 -0.7555
14475SOL    HW144497   5.640   6.108   2.347  0.0794 -0.1181 -0.8056
14475SOL    HW244498   5.778   6.167   2.371  0.0756 -0.2829 -0.3645
14476SOL     OW44499   7.326   2.451   2.818  0.6368 -0.3037 -0.3920
14476SOL    HW144500   7.345   2.541   2.794  0.8886 -0.1725  0.2631
14476SOL    HW244501   7.298   2.409   2.737  0.3745  0.3995 -0.6703
14477SOL     OW44502   7.315   2.687   5.813 -0.6486  0.8080 -0.5367
14477SOL    HW144503   7.329   2.669   5.906  2.3369  0.7979 -0.8941
14477SOL    HW244504   7.246   2.626   5.787 -3.6417  2.7155  2.1698
14478SOL     OW44505   7.062   3.922   3.115 -0.1739 -0.5743 -0.1678
14478SOL    HW144506   6.991   3.892   3.171 -0.1439 -1.0697 -0.3930
14478SOL    HW244507   7.022   3.929   3.028 -0.6362  1.6745  0.1613
14479SOL     OW44508   5.471   1.158   8.014  0.6763  0.2450  0.6650
14479SOL    HW144509   5.461   1.229   7.950  0.3427 -1.4857 -1.3313
14479SOL    HW244510   5.411   1.090   7.984  0.6812 -0.7558  2.7466
14480SOL     OW44511   6.447   0.073   2.558  0.1070  0.0349  0.5730
14480SOL    HW144512   6.486   0.159   2.571  0.5542 -0.1139  0.2112
14480SOL    HW244513   6.518   0.018   2.525 -0.4747 -0.1610 -0.3958
14481SOL     OW44514   4.231   0.254   4.322  0.2254  0.0836  0.1147
14481SOL    HW144515   4.263   0.181   4.374  1.4305  0.1095 -0.5491
14481SOL    HW244516   4.310   0.293   4.284 -0.2531  2.4251  1.3088
14482SOL     OW44517   7.951   4.760   5.562  0.1112  0.1831 -0.4174
14482SOL    HW144518   7.906   4.810   5.631 -0.0091 -0.6261  0.1108
14482SOL    HW244519   8.040   4.795   5.561 -0.5522  1.9486 -1.6203
14483SOL     OW44520   2.845   5.299   0.205 -0.2467 -0.0522  0.8932
14483SOL    HW144521   2.842   5.394   0.198 -0.5751 -0.1295 -0.1111
14483SOL    HW244522   2.774   5.277   0.266 -0.2087  0.3321  1.0800
14484SOL     OW44523   7.162   7.490   7.465 -0.6533 -0.2464  0.2531
14484SOL    HW144524   7.110   7.570   7.465  0.9035  0.8068  0.0209
14484SOL    HW244525   7.217   7.497   7.543 -0.9584 -1.4144  0.5891
14485SOL     OW44526   1.532   3.612   2.420  0.0588 -0.4569  0.2537
14485SOL    HW144527   1.588   3.689   2.419  1.3527 -1.3610 -0.5534
14485SOL    HW244528   1.579   3.548   2.473 -0.0279 -1.3556 -0.7223
14486SOL     OW44529   0.101   0.399   6.942 -0.4546 -0.3450 -0.1728
14486SOL    HW144530   0.019   0.430   6.981  0.3744 -0.3040  1.6822
14486SOL    HW244531   0.165   0.404   7.014  1.6750  1.4760 -2.0401
14487SOL     OW44532   0.944   7.781   7.818  0.2503 -0.5186 -0.0311
14487SOL    HW144533   1.033   7.796   7.849  0.2650 -1.3969  0.3775
14487SOL    HW244534   0.926   7.690   7.839 -0.4524 -0.5857 -0.8557
14488SOL     OW44535   2.077   6.827   6.910 -0.0884  0.0336 -0.0526
14488SOL    HW144536   2.136   6.796   6.980  1.6872  2.0771 -0.5593
14488SOL    HW244537   2.084   6.922   6.913 -1.1984  0.2203 -2.0233
14489SOL     OW44538   3.454   5.432   5.917 -0.3085  0.4314 -0.3384
14489SOL    HW144539   3.473   5.344   5.886  2.5729  0.6475  0.4698
14489SOL    HW244540   3.431   5.421   6.009  1.5967  0.5470  0.2073
14490SOL     OW44541   5.125   2.844   1.046 -0.1767  0.6409  0.0981
14490SOL    HW144542   5.094   2.904   1.114  0.3223  0.5734  0.3885
14490SOL    HW244543   5.122   2.895   0.966  0.2394  1.0537  0.3415
14491SOL     OW44544   6.436   4.493   7.125 -0.3224  0.3974 -0.2834
14491SOL    HW144545   6.424   4.539   7.042  1.1331 -0.1566 -0.8369
14491SOL    HW244546   6.527   4.462   7.122  0.2241  1.5439  2.1176
14492SOL     OW44547   3.816   8.130   0.736  0.2083  0.2801  0.2310
14492SOL    HW144548   3.883   8.064   0.749  0.5937  0.7239  0.5491
14492SOL    HW244549   3.786   8.117   0.646  1.3663  0.6657 -0.2276
14493SOL     OW44550   6.988   1.942   0.060 -0.3739 -0.1675  0.3439
14493SOL    HW144551   6.967   1.970   0.149 -0.8148  0.0103  0.1870
14493SOL    HW244552   7.078   1.910   0.065 -0.9931 -1.9076  1.2678
14494SOL     OW44553   6.118   1.627   3.481  0.3591  0.2549  0.1690
14494SOL    HW144554   6.135   1.702   3.538  1.4064  0.0235  0.1867
14494SOL    HW244555   6.104   1.665   3.395 -3.0301  0.7631  0.8148
14495SOL     OW44556   3.741   7.563   0.305 -0.1016  0.4334  0.0779
14495SOL    HW144557   3.727   7.613   0.225  0.9981 -0.1284 -0.4857
14495SOL    HW244558   3.689   7.483   0.293  1.2365 -0.3529 -0.7758
14496SOL     OW44559   4.755   8.109   4.293 -0.0382 -0.2019  0.3097
14496SOL    HW144560   4.778   8.029   4.245  0.2657 -1.7193  2.8052
14496SOL    HW244561   4.838   8.156   4.301 -0.3270  0.7524 -1.7018
14497SOL     OW44562   6.596   4.724   0.616  0.2265  0.4608 -0.0231
14497SOL    HW144563   6.633   4.703   0.702 -1.3972 -2.7897  0.0459
14497SOL    HW244564   6.658   4.685   0.554 -1.1683 -2.0517 -0.0066
14498SOL     OW44565   0.517   2.616   4.064 -0.2017  0.1422  0.1691
14498SOL    HW144566   0.579   2.680   4.027 -1.7363  1.2013 -0.6620
14498SOL    HW244567   0.539   2.614   4.157  1.8183 -0.3856 -0.2536
14499SOL     OW44568   8.141   5.554   1.964  0.5932 -0.6815  0.3156
14499SOL    HW144569   8.142   5.482   2.026  0.2177 -1.9061 -1.0443
14499SOL    HW244570   8.227   5.552   1.922  0.9045  0.2366  0.8605
14500SOL     OW44571   5.285   3.809   3.747 -0.1325 -0.3022  0.0397
14500SOL    HW144572   5.299   3.851   3.662  0.7909 -1.8678 -0.6134
14500SOL    HW244573   5.296   3.881   3.810 -1.1177  0.9478 -1.1403
14501SOL     OW44574   3.898   5.376   5.644 -0.1384 -0.0907  0.0701
14501SOL    HW144575   3.942   5.461   5.636  3.4062 -1.8349 -1.0689
14501SOL    HW244576   3.905   5.355   5.737  1.4968 -0.2753 -0.0593
14502SOL     OW44577   0.722   1.413   0.220  0.1985  0.4298  0.0332
14502SOL    HW144578   0.727   1.463   0.138  0.7048 -0.3052 -0.3966
14502SOL    HW244579   0.628   1.395   0.231  0.1471  0.3499 -0.5019
14503SOL     OW44580   1.976   4.065   2.984  0.8736 -0.7564 -0.1692
14503SOL    HW144581   1.905   4.076   3.047 -0.1966  1.6125 -1.6536
14503SOL    HW244582   2.055   4.091   3.032  0.0437  1.2968  0.1790
14504SOL     OW44583   1.169   7.934   4.492  0.5090  0.1424  0.4315
14504SOL    HW144584   1.242   7.977   4.447 -0.7474  1.9001 -0.0272
14504SOL    HW244585   1.169   7.972   4.580 -0.9315  1.5817 -0.1382
14505SOL     OW44586   3.707   4.665   6.754  0.4537  0.4952 -0.5834
14505SOL    HW144587   3.637   4.601   6.740  1.7868 -1.5920  1.5490
14505SOL    HW244588   3.784   4.626   6.713  0.8895  1.6555 -0.9017
14506SOL     OW44589   7.528   2.038   1.276  0.3427 -0.2373  0.5277
14506SOL    HW144590   7.536   2.129   1.306 -1.2799 -0.0591  0.5004
14506SOL    HW244591   7.540   2.043   1.181 -1.3894  0.2222  0.3024
14507SOL     OW44592   0.124   4.949   7.263  0.5055 -0.3499 -0.6269
14507SOL    HW144593   0.035   4.927   7.234  0.4998 -0.2605 -0.6757
14507SOL    HW244594   0.167   4.864   7.272 -0.4634 -0.6529  2.3110
14508SOL     OW44595   1.970   1.135   1.670 -0.1550  0.0911  0.9380
14508SOL    HW144596   1.932   1.164   1.587  0.1071 -1.6258  0.1765
14508SOL    HW244597   2.064   1.134   1.654 -0.1724 -1.5438  0.7698
14509SOL     OW44598   4.062   3.565   4.431 -0.8785 -0.0648  0.0406
14509SOL    HW144599   4.097   3.480   4.405 -1.0601 -0.1092 -0.0634
14509SOL    HW244600   3.970   3.548   4.451 -0.6266 -0.1202  1.1913
14510SOL     OW44601   4.792   0.507   8.125  0.3737 -0.1409  0.0308
14510SOL    HW144602   4.871   0.501   8.179 -0.5192 -0.8267  1.3300
14510SOL    HW244603   4.729   0.554   8.181  0.0622  1.0495 -1.2608
14511SOL     OW44604   0.639   1.524   6.108  0.0472 -0.0628  0.2742
14511SOL    HW144605   0.673   1.453   6.162  3.1677  1.1381  0.0895
14511SOL    HW244606   0.646   1.492   6.019  1.1098  0.2984  0.2149
14512SOL     OW44607   2.732   4.547   3.697  0.0648  0.3880  0.2213
14512SOL    HW144608   2.652   4.497   3.682  0.7422 -0.4624 -0.7080
14512SOL    HW244609   2.796   4.510   3.636  0.4714  2.7197 -0.9020
14513SOL     OW44610   5.626   7.037   5.810  0.0067 -0.1620 -0.1748
14513SOL    HW144611   5.574   7.036   5.729  0.1480 -0.4978 -0.2644
14513SOL    HW244612   5.617   7.126   5.844 -0.5987 -0.2115 -0.2080
14514SOL     OW44613   0.909   5.056   4.927 -0.3305  0.2269  0.0022
14514SOL    HW144614   0.858   5.055   5.009  0.0674 -0.3035  0.2469
14514SOL    HW244615   0.846   5.086   4.861 -0.6801  0.5833  0.4810
14515SOL     OW44616   4.939   3.769   2.696  0.2297 -0.0095  0.1606
14515SOL    HW144617   4.926   3.759   2.791  0.0398  0.0180  0.1377
14515SOL    HW244618   4.869   3.717   2.657  0.6322 -0.4637  0.0329
14516SOL     OW44619   7.917   2.639   1.915 -0.2271  0.3224 -0.0907
14516SOL    HW144620   7.910   2.642   1.820  1.0652 -2.2316 -0.3512
14516SOL    HW244621   8.006   2.670   1.934 -0.3082  0.3541  0.2536
14517SOL     OW44622   0.433   0.589   5.757  0.3045  0.3234  0.1221
14517SOL    HW144623   0.484   0.516   5.720  1.4171  1.4050 -0.5408
14517SOL    HW244624   0.383   0.549   5.829 -0.9752 -1.6082 -1.6932
14518SOL     OW44625   1.959   7.806   0.764  0.0875 -0.2312  0.0367
14518SOL    HW144626   1.998   7.734   0.714  1.6104  0.2310  0.5201
14518SOL    HW244627   1.989   7.885   0.720  0.3887  0.1563  0.9116
14519SOL     OW44628   1.557   5.207   6.433 -0.2191  0.0158  0.0790
14519SOL    HW144629   1.615   5.197   6.509 -1.1329  0.5780  0.8776
14519SOL    HW244630   1.520   5.120   6.419  0.2344 -0.1742  0.0351
14520SOL     OW44631   5.938   7.098   4.651 -0.3710  0.1199 -0.0528
14520SOL    HW144632   5.951   7.019   4.704 -2.6629 -0.6992 -0.6061
14520SOL    HW244633   5.964   7.072   4.563  0.2619  0.4457  0.0355
14521SOL     OW44634   1.949   2.976   6.043 -0.5615  0.2529 -0.2197
14521SOL    HW144635   1.916   3.047   5.987 -0.4445 -0.5098 -1.2787
14521SOL    HW244636   2.010   3.019   6.103 -0.6829  1.0888 -0.6845
14522SOL     OW44637   7.602   4.217   3.692 -0.9217 -0.0066 -0.2490
14522SOL    HW144638   7.649   4.298   3.672  0.3008 -0.4775  0.6131
14522SOL    HW244639   7.618   4.160   3.616 -1.0072  0.2153 -0.4351
14523SOL     OW44640   4.737   0.006   8.039  0.5240 -0.2088  0.2231
14523SOL    HW144641   4.708  -0.002   7.948  1.7872  0.6960 -0.2835
14523SOL    HW244642   4.694   0.085   8.071  0.5011 -0.2316  0.2489
14524SOL     OW44643   7.210   4.193   1.474 -0.4564 -0.2540 -0.4085
14524SOL    HW144644   7.123   4.228   1.491 -1.0825 -2.5285  1.6227
14524SOL    HW244645   7.263   4.224   1.547 -0.3035 -1.1661 -0.1225
14525SOL     OW44646   0.893   2.756   7.731  0.1320  0.4597  0.3700
14525SOL    HW144647   0.806   2.727   7.703 -0.1349  0.5570  1.0746
14525SOL    HW244648   0.941   2.676   7.749 -0.0942  0.4163  0.8007
14526SOL     OW44649   2.138   3.678   4.323  0.2407  0.4083 -0.6129
14526SOL    HW144650   2.194   3.602   4.304  0.3563  0.4889 -0.6001
14526SOL    HW244651   2.049   3.645   4.314  0.2045 -0.5464  2.4196
14527SOL     OW44652   0.208   5.306   3.104 -0.5691 -0.8717 -0.6219
14527SOL    HW144653   0.251   5.307   3.018 -1.2444 -0.8410 -0.9698
14527SOL    HW244654   0.115   5.295   3.084 -1.0045  1.2303 -0.0212
14528SOL     OW44655   4.245   4.412   0.214 -0.0468 -0.0860 -0.2049
14528SOL    HW144656   4.300   4.489   0.232 -1.2098  0.5665  0.7567
14528SOL    HW244657   4.306   4.346   0.183  1.2636  0.6778  0.6148
14529SOL     OW44658   7.704   4.160   5.391  0.3384  0.1466 -0.1595
14529SOL    HW144659   7.660   4.229   5.342  0.7216  1.1808  0.9128
14529SOL    HW244660   7.683   4.080   5.343  1.8992  1.2303 -2.8792
14530SOL     OW44661   4.773   5.532   3.338 -0.2719 -0.1303 -0.2068
14530SOL    HW144662   4.726   5.511   3.419 -1.0111 -0.4394 -0.7039
14530SOL    HW244663   4.856   5.487   3.346 -0.7814 -1.0720 -0.0905
14531SOL     OW44664   1.299   5.826   1.273 -0.1789 -0.2065 -0.4490
14531SOL    HW144665   1.244   5.758   1.312  0.0745 -0.2063 -0.0914
14531SOL    HW244666   1.254   5.908   1.294  0.5490 -0.1168  0.8469
14532SOL     OW44667   3.470   2.504   8.077  0.2681 -0.4191  0.1759
14532SOL    HW144668   3.536   2.466   8.018 -1.6551 -0.6568 -1.9617
14532SOL    HW244669   3.488   2.598   8.075 -0.0703 -0.3580 -1.2560
14533SOL     OW44670   0.966   3.789   4.756 -0.0757  0.7403  0.0736
14533SOL    HW144671   1.007   3.832   4.831  1.9960  1.7148 -1.5103
14533SOL    HW244672   0.931   3.861   4.704  1.0976  0.3426 -1.3139
14534SOL     OW44673   4.234   1.088   1.263 -0.3573 -0.1423  0.5180
14534SOL    HW144674   4.167   1.111   1.328 -0.4050 -0.0348  0.4301
14534SOL    HW244675   4.249   0.995   1.277 -0.7734 -0.2450  0.3115
14535SOL     OW44676   0.036   5.535   6.315 -0.4082 -0.5806  0.2631
14535SOL    HW144677  -0.023   5.486   6.373 -1.1147  0.1446  0.1879
14535SOL    HW244678   0.108   5.475   6.296 -0.0235 -0.7593  2.0961
14536SOL     OW44679   7.196   5.976   3.617 -0.0282  0.0415 -0.0628
14536SOL    HW144680   7.243   5.913   3.671  0.6272 -0.2117 -0.9015
14536SOL    HW244681   7.250   5.985   3.538 -0.9184  0.4439 -0.6451
14537SOL     OW44682   3.580   4.375   5.287 -0.1945  0.2372  0.2993
14537SOL    HW144683   3.492   4.343   5.305 -1.5328  3.0990 -0.5174
14537SOL    HW244684   3.632   4.296   5.272 -2.8326 -1.5461 -0.1607
14538SOL     OW44685   6.014   6.481   6.334 -0.9850  0.1025  0.0749
14538SOL    HW144686   5.953   6.519   6.397 -1.6661  1.7758 -1.4730
14538SOL    HW244687   5.990   6.523   6.251  0.7353 -1.0085 -1.0329
14539SOL     OW44688   3.251   1.255   5.950 -0.2844 -0.2325 -0.1684
14539SOL    HW144689   3.317   1.254   6.019 -0.7777  2.4030  0.4378
14539SOL    HW244690   3.168   1.242   5.996 -0.3581 -4.0311 -0.9724
14540SOL     OW44691   1.572   2.583   6.832  0.2244  0.3738 -0.6377
14540SOL    HW144692   1.521   2.545   6.760 -1.7136  1.2062  0.2158
14540SOL    HW244693   1.577   2.676   6.811  1.3632  0.3108 -0.6663
14541SOL     OW44694   1.924   7.350   5.477 -0.2439 -0.5037 -0.2904
14541SOL    HW144695   1.946   7.307   5.560  0.7246 -0.2603 -0.4113
14541SOL    HW244696   2.004   7.394   5.451 -0.0216 -1.8723 -2.1473
14542SOL     OW44697   3.131   5.297   2.994 -0.0217  0.0937  0.2406
14542SOL    HW144698   3.202   5.317   3.055  1.0090 -0.2955 -0.7916
14542SOL    HW244699   3.143   5.359   2.922 -0.8785  0.1742  0.1524
14543SOL     OW44700   6.794   4.274   3.139  0.0322  0.2300  0.7199
14543SOL    HW144701   6.774   4.367   3.127 -2.7449  0.0743  3.0043
14543SOL    HW244702   6.712   4.229   3.118  0.9468 -1.6183  0.8996
14544SOL     OW44703   4.989   0.113   2.494  0.2799 -0.4180  0.0103
14544SOL    HW144704   4.983   0.186   2.555  0.3403 -0.1817 -0.2599
14544SOL    HW244705   4.976   0.153   2.408  1.1360 -0.6006 -0.2121
14545SOL     OW44706   1.564   6.687   1.170  0.0284 -0.1581  0.3799
14545SOL    HW144707   1.491   6.719   1.116  0.0460  0.8209  0.9008
14545SOL    HW244708   1.617   6.765   1.186  0.9176 -0.7642  0.4370
14546SOL     OW44709   5.821   4.416   2.198  0.3110 -0.3958 -0.1490
14546SOL    HW144710   5.792   4.451   2.114 -0.1849 -0.9354 -0.2129
14546SOL    HW244711   5.898   4.363   2.177 -0.2301 -1.1116 -0.3814
14547SOL     OW44712   6.793   1.049   5.879  0.1694  0.2416  0.7408
14547SOL    HW144713   6.865   1.106   5.852  0.6682 -1.3403 -1.6279
14547SOL    HW244714   6.717   1.108   5.885  1.4824  1.8563  2.8425
14548SOL     OW44715   7.561   3.741   3.251 -0.3553 -0.0964  0.2087
14548SOL    HW144716   7.497   3.806   3.223  0.0901  0.3470  0.2285
14548SOL    HW244717   7.550   3.736   3.346 -1.3417 -1.0555  0.0672
14549SOL     OW44718   1.901   0.722   3.420 -0.1154  0.1572  0.2380
14549SOL    HW144719   1.978   0.773   3.445 -0.8842  0.8057  1.3906
14549SOL    HW244720   1.856   0.778   3.355  0.2261 -0.0920 -0.2174
14550SOL     OW44721   1.455   4.561   2.265  0.5581  0.9245  0.3366
14550SOL    HW144722   1.403   4.634   2.301 -1.2233 -0.3979  0.5720
14550SOL    HW244723   1.469   4.585   2.174 -1.6467  0.7698 -0.1041
14551SOL     OW44724   4.627   5.872   6.825 -0.1093  0.3290 -0.2648
14551SOL    HW144725   4.657   5.861   6.735  0.1160 -2.4299  0.0770
14551SOL    HW244726   4.660   5.796   6.872 -0.9596  1.2389  1.9787
14552SOL     OW44727   1.560   0.795   0.603  0.4543  0.5903  0.4647
14552SOL    HW144728   1.613   0.875   0.610  2.7777 -0.8387  0.3525
14552SOL    HW244729   1.615   0.726   0.641 -0.5708 -1.3191 -1.2923
14553SOL     OW44730   6.528   2.376   0.235  0.8814 -0.4278  0.4499
14553SOL    HW144731   6.441   2.353   0.269  0.6575  0.3773  0.4357
14553SOL    HW244732   6.515   2.384   0.140  1.2580 -1.5591  0.2903
14554SOL     OW44733   5.095   7.810   3.452  0.1100  0.1182  0.0728
14554SOL    HW144734   5.029   7.770   3.395  0.4092 -2.3406  1.3017
14554SOL    HW244735   5.174   7.814   3.399 -0.0301 -0.6028 -0.1939
14555SOL     OW44736   0.181   7.240   7.484  0.3751 -0.6080 -0.3268
14555SOL    HW144737   0.202   7.227   7.576 -0.5663  0.8238  0.1292
14555SOL    HW244738   0.262   7.220   7.437  1.1592 -0.3584  0.8984
14556SOL     OW44739   5.029   3.360   6.179 -0.1233  0.4043 -0.0391
14556SOL    HW144740   4.943   3.333   6.146  0.9973 -3.3844 -0.3592
14556SOL    HW244741   5.049   3.441   6.131 -1.4344 -1.2679 -3.7854
14557SOL     OW44742   0.374   3.076   3.284 -0.1774  0.0663  0.3630
14557SOL    HW144743   0.320   3.043   3.212 -0.5978  1.7623 -0.1341
14557SOL    HW244744   0.325   3.055   3.363 -1.0073  0.5490 -0.0145
14558SOL     OW44745   1.858   6.646   4.925 -0.3273  0.3964 -0.5262
14558SOL    HW144746   1.797   6.619   4.994  0.8143  1.3709  0.9252
14558SOL    HW244747   1.873   6.739   4.941  2.9254 -0.1486  0.3305
14559SOL     OW44748   5.594   4.835   6.920  0.8667  0.6217 -0.1474
14559SOL    HW144749   5.616   4.778   6.994 -0.5787  0.2535  0.0282
14559SOL    HW244750   5.601   4.777   6.844 -0.2813  0.2740 -0.0029
14560SOL     OW44751   1.785   0.494   4.095  0.4019  0.5839 -0.0745
14560SOL    HW144752   1.782   0.404   4.127  0.1871  0.4128 -0.5659
14560SOL    HW244753   1.877   0.519   4.103  0.8471 -0.3807 -1.8365
14561SOL     OW44754   2.648   3.543   5.239 -0.1997  0.1139  0.1222
14561SOL    HW144755   2.733   3.569   5.203 -0.6270 -0.6314 -1.5239
14561SOL    HW244756   2.660   3.452   5.264 -0.1556  0.3856  1.1229
14562SOL     OW44757   7.698   5.430   6.707  0.1711  0.1265  0.7032
14562SOL    HW144758   7.672   5.452   6.617 -0.1497 -0.8069  0.5591
14562SOL    HW244759   7.749   5.505   6.736  2.0935 -0.4522 -1.0081
14563SOL     OW44760   4.381   4.722   7.834 -0.3836 -0.6935  0.0969
14563SOL    HW144761   4.377   4.738   7.928 -2.7205  0.7759 -0.1716
14563SOL    HW244762   4.299   4.677   7.814  0.9285 -2.7660 -1.0186
14564SOL     OW44763   2.294   2.259   1.810 -0.1939  0.0423 -0.2483
14564SOL    HW144764   2.220   2.301   1.768 -1.5648  1.1706  2.9336
14564SOL    HW244765   2.352   2.331   1.835  0.6735 -0.5927 -0.3687
14565SOL     OW44766   3.173   4.917   3.321  0.8835 -0.5412  0.0794
14565SOL    HW144767   3.242   4.958   3.269  0.5445  0.7670  0.6135
14565SOL    HW244768   3.110   4.987   3.336  0.8803 -0.9207  2.1019
14566SOL     OW44769   3.136   6.363   3.015  0.0390  0.0011  0.0664
14566SOL    HW144770   3.137   6.328   3.104 -2.2719 -0.1109  0.1108
14566SOL    HW244771   3.213   6.326   2.973  0.8651 -0.3839  1.8499
14567SOL     OW44772   7.543   2.870   2.067  0.3424 -0.1201  0.2728
14567SOL    HW144773   7.609   2.806   2.094  1.6235  0.0699 -2.1327
14567SOL    HW244774   7.593   2.950   2.051 -0.4649  0.0682 -1.4609
14568SOL     OW44775   5.820   4.286   5.552 -0.8126 -0.9028 -0.3090
14568SOL    HW144776   5.739   4.334   5.535  0.1327  0.8756 -0.0619
14568SOL    HW244777   5.828   4.284   5.647 -1.3131 -2.4388 -0.2774
14569SOL     OW44778   7.828   8.011   2.993  0.1825  0.7210 -0.2666
14569SOL    HW144779   7.733   7.999   3.001  0.1385  1.0646 -0.2596
14569SOL    HW244780   7.839   8.066   2.915  0.4780 -0.7617 -1.3200
14570SOL     OW44781   2.546   0.415   2.989  0.0895 -0.6620 -0.3833
14570SOL    HW144782   2.499   0.497   3.003  0.1687 -0.8457  1.1572
14570SOL    HW244783   2.530   0.393   2.897 -0.3314  0.8166 -0.6819
14571SOL     OW44784   5.564   5.511   1.783  0.6961 -0.3803 -0.3141
14571SOL    HW144785   5.511   5.505   1.863  2.7284 -1.4368  1.0101
14571SOL    HW244786   5.508   5.473   1.715 -0.5451 -0.7725  0.8727
14572SOL     OW44787   0.515   7.315   2.331  0.0835 -0.1799  0.6885
14572SOL    HW144788   0.455   7.314   2.406 -0.3217 -0.0551  0.3671
14572SOL    HW244789   0.461   7.287   2.257  0.7790 -1.4755  0.6592
14573SOL     OW44790   7.570   5.622   1.233 -0.5123  0.5714  0.0420
14573SOL    HW144791   7.545   5.614   1.325  0.3844  0.1886  0.2704
14573SOL    HW244792   7.661   5.652   1.236 -1.1094  2.6265 -0.7483
14574SOL     OW44793   1.060   4.862   4.894 -0.2078  0.3627 -0.2012
14574SOL    HW144794   1.105   4.883   4.812  0.2400  1.4366  0.3036
14574SOL    HW244795   0.994   4.930   4.903  0.2356  0.6902  0.6916
14575SOL     OW44796   4.562   3.133   5.355  0.6594  0.0681 -0.1815
14575SOL    HW144797   4.552   3.079   5.433 -1.0352  1.1232  0.3875
14575SOL    HW244798   4.540   3.221   5.384  0.1558  0.5092 -1.8066
14576SOL     OW44799   2.041   3.370   5.214 -0.6759 -0.0802 -0.0344
14576SOL    HW144800   2.089   3.295   5.180 -0.5406 -0.0042 -0.0114
14576SOL    HW244801   1.980   3.393   5.143  0.9459  1.2962 -1.0468
14577SOL     OW44802   2.768   8.009   8.085  1.0962 -0.2055 -0.1649
14577SOL    HW144803   2.746   8.101   8.068 -1.1603 -0.8862 -1.3577
14577SOL    HW244804   2.751   7.997   8.179 -0.7544  0.0868 -0.4388
14578SOL     OW44805   5.076   5.853   2.096 -0.3774  0.1908  0.5231
14578SOL    HW144806   5.124   5.926   2.056  0.4325 -0.5160  0.1728
14578SOL    HW244807   5.095   5.860   2.189 -0.1306  0.3115  0.4650
14579SOL     OW44808   4.763   4.487   4.267 -0.2138 -0.4718 -0.9671
14579SOL    HW144809   4.701   4.477   4.339 -0.2928  0.8228 -0.8292
14579SOL    HW244810   4.819   4.560   4.294 -1.1073  0.9785 -2.8013
14580SOL     OW44811   2.081   6.369   4.260  0.7565  0.0256  0.2215
14580SOL    HW144812   2.032   6.427   4.203  0.3585  0.2612  0.7874
14580SOL    HW244813   2.095   6.290   4.208 -1.4527 -0.6217  0.4765
14581SOL     OW44814   6.682   2.539   5.475 -0.2172  0.1091  0.2096
14581SOL    HW144815   6.754   2.520   5.415  0.0512 -0.3953  0.6818
14581SOL    HW244816   6.712   2.615   5.525 -0.9718  1.3589 -1.1495
14582SOL     OW44817   1.178   3.102   2.760  0.5277  0.0660  0.5839
14582SOL    HW144818   1.134   3.018   2.768  0.7373  0.0896  2.3852
14582SOL    HW244819   1.156   3.133   2.672 -0.2572 -1.4589  0.2187
14583SOL     OW44820   2.147   3.773   4.570 -0.0548  0.2215  0.1724
14583SOL    HW144821   2.146   3.727   4.486 -1.0115 -0.3249  0.4714
14583SOL    HW244822   2.231   3.820   4.571  0.5916 -0.8906 -0.4769
14584SOL     OW44823   0.026   5.316   0.694  0.0846 -1.2002 -0.1814
14584SOL    HW144824  -0.034   5.335   0.766  1.1143 -0.7437  0.5815
14584SOL    HW244825   0.002   5.379   0.626  0.5998 -0.0714  0.6568
14585SOL     OW44826   1.409   3.974   7.963 -0.0100  0.1078 -0.2623
14585SOL    HW144827   1.328   3.943   7.922  1.2842 -0.8486 -2.2591
14585SOL    HW244828   1.444   4.038   7.901  0.0863  1.6029  1.2669
14586SOL     OW44829   4.315   0.162   5.220 -0.6843 -0.1271  0.0248
14586SOL    HW144830   4.236   0.112   5.197  0.0598 -1.5664  0.5057
14586SOL    HW244831   4.330   0.219   5.145 -1.5065 -0.6909 -0.5848
14587SOL     OW44832   7.099   2.903   6.663 -0.2739 -0.1629  0.3696
14587SOL    HW144833   7.050   2.878   6.584  0.2498  0.3739 -0.1346
14587SOL    HW244834   7.190   2.882   6.641 -0.1626 -0.2775  0.9423
14588SOL     OW44835   0.700   6.461   6.731  0.1459 -0.3047 -0.1433
14588SOL    HW144836   0.793   6.464   6.752 -0.2950  0.2199  1.9417
14588SOL    HW244837   0.656   6.458   6.816 -1.7133 -2.3413 -1.0807
14589SOL     OW44838   0.986   5.786   6.272  0.3884  0.5786 -0.7862
14589SOL    HW144839   0.999   5.843   6.197  0.3919  2.0138  0.2691
14589SOL    HW244840   1.071   5.784   6.317  0.5204 -0.6394 -1.0319
14590SOL     OW44841   6.616   2.922   6.214 -0.3052  0.8580  0.3196
14590SOL    HW144842   6.590   2.896   6.126 -0.0567 -1.1342  0.7673
14590SOL    HW244843   6.712   2.916   6.214 -0.2444  1.7604  0.4721
14591SOL     OW44844   4.101   4.757   1.523  0.2220  0.0029  0.3462
14591SOL    HW144845   4.097   4.798   1.437 -0.1249 -0.0547  0.3331
14591SOL    HW244846   4.187   4.715   1.525 -0.0135 -0.5158 -0.2118
14592SOL     OW44847   6.763   4.781   1.216  0.5260 -0.7602  0.4717
14592SOL    HW144848   6.788   4.868   1.183 -1.3734 -0.0818  0.7049
14592SOL    HW244849   6.809   4.720   1.158  1.0848  0.4026 -0.3614
14593SOL     OW44850   5.223   6.121   2.949 -0.2121 -0.0774  0.5970
14593SOL    HW144851   5.210   6.160   3.035  1.7285  0.8826  0.4984
14593SOL    HW244852   5.238   6.195   2.890 -2.1001 -0.6637 -0.7434
14594SOL     OW44853   1.025   1.159   4.768  0.0484  0.0527  0.3018
14594SOL    HW144854   1.061   1.094   4.827  1.1143  0.5294  0.1939
14594SOL    HW244855   0.966   1.211   4.823 -0.4069 -0.6635  0.5016
14595SOL     OW44856   4.514   7.001   2.241 -0.6044  0.1719 -0.3823
14595SOL    HW144857   4.478   7.066   2.181  1.0957  0.8489 -0.7447
14595SOL    HW244858   4.441   6.942   2.259 -1.2364 -0.0618 -3.1300
14596SOL     OW44859   0.435   5.918   5.494 -0.2418 -0.0723  0.3377
14596SOL    HW144860   0.530   5.914   5.480 -0.3541  1.5212 -1.1063
14596SOL    HW244861   0.409   5.827   5.508  1.6237 -0.4442  1.7527
14597SOL     OW44862   4.063   2.228   3.285  0.5480 -0.6815  0.3001
14597SOL    HW144863   4.000   2.244   3.214  1.5403 -1.8250 -0.8669
14597SOL    HW244864   4.039   2.142   3.319  1.9029 -1.4525 -0.6367
14598SOL     OW44865   4.952   1.168   6.328  0.2750  0.2882  0.4517
14598SOL    HW144866   4.941   1.255   6.290 -0.6764 -0.6117 -1.4578
14598SOL    HW244867   5.000   1.119   6.261  0.0431 -0.8867  1.1265
14599SOL     OW44868   0.727   3.684   4.915 -0.5006  0.1265  0.3778
14599SOL    HW144869   0.791   3.726   4.857 -0.2785 -2.7986 -1.7118
14599SOL    HW244870   0.686   3.757   4.962 -0.9529  2.8413 -3.7260
14600SOL     OW44871   5.491   2.957   0.677  0.1834 -0.2081 -0.7202
14600SOL    HW144872   5.549   2.887   0.645  0.6192 -0.3271  0.2909
14600SOL    HW244873   5.550   3.030   0.696  0.1674 -0.6456  1.2205
14601SOL     OW44874   3.957   7.883   3.412  0.4358  0.0346 -0.0777
14601SOL    HW144875   3.966   7.841   3.498  2.1808 -2.7096 -1.4735
14601SOL    HW244876   4.047   7.894   3.381 -0.1712 -0.9363 -2.3887
14602SOL     OW44877   1.681   6.863   7.114  0.2087  0.5382  0.6560
14602SOL    HW144878   1.610   6.926   7.126  0.6846  0.7931  2.4393
14602SOL    HW244879   1.706   6.871   7.022 -2.5720 -0.1091 -0.2478
14603SOL     OW44880   0.354   1.715   3.019  0.0650  0.1287 -0.1140
14603SOL    HW144881   0.382   1.638   3.068 -0.0337 -0.8434 -1.5294
14603SOL    HW244882   0.429   1.740   2.966 -0.6016 -0.4209 -1.3741
14604SOL     OW44883   6.444   0.948   4.161 -0.7063  0.0057 -0.3790
14604SOL    HW144884   6.382   0.982   4.225 -0.1039  0.0949  0.1637
14604SOL    HW244885   6.453   1.018   4.097  0.1422  0.6989  0.4634
14605SOL     OW44886   2.947   1.046   5.949 -0.3052 -0.2335  0.0975
14605SOL    HW144887   2.937   0.951   5.943 -1.5279 -0.2418  1.6834
14605SOL    HW244888   2.984   1.061   6.035 -0.6545  0.7581  0.0901
14606SOL     OW44889   0.242   2.432   5.812 -0.1999  0.2182 -0.0235
14606SOL    HW144890   0.239   2.352   5.864 -0.4754  0.1213 -0.1855
14606SOL    HW244891   0.223   2.404   5.723  1.7960  0.1528 -0.4665
14607SOL     OW44892   6.970   3.406   1.238  0.5650  0.0199 -0.1337
14607SOL    HW144893   6.883   3.444   1.254  0.4329 -0.2664 -0.1742
14607SOL    HW244894   7.028   3.453   1.299  0.5614  0.8942 -0.7862
14608SOL     OW44895   8.000   5.625   3.234 -0.6659  0.3088  1.0536
14608SOL    HW144896   8.015   5.717   3.258 -0.2638  0.4601  0.2342
14608SOL    HW244897   7.905   5.617   3.233 -0.7103  0.8531  0.6163
14609SOL     OW44898   0.211   0.162   6.558 -0.1078 -0.3226  0.5332
14609SOL    HW144899   0.156   0.084   6.552  0.4659 -0.8000  1.2980
14609SOL    HW244900   0.196   0.196   6.646 -2.9702  2.4483 -0.8267
14610SOL     OW44901   6.795   0.718   0.542 -0.1864 -0.1099 -0.3613
14610SOL    HW144902   6.737   0.663   0.489  0.3429 -0.1920 -0.8686
14610SOL    HW244903   6.878   0.670   0.544 -1.0124 -1.6625  3.1227
14611SOL     OW44904   3.800   4.791   5.087 -0.2259  0.2275  0.5080
14611SOL    HW144905   3.710   4.770   5.111 -0.3810  1.1317  0.7518
14611SOL    HW244906   3.822   4.727   5.019 -1.0367 -0.0143  0.4577
14612SOL     OW44907   3.513   6.878   2.642 -0.4829 -0.0863  0.4941
14612SOL    HW144908   3.479   6.955   2.687 -2.1924  0.0873 -0.9898
14612SOL    HW244909   3.458   6.806   2.673 -0.5771 -0.2502 -0.0469
14613SOL     OW44910   4.232   5.604   0.380  0.0466 -0.0448  0.3339
14613SOL    HW144911   4.144   5.565   0.380  0.8106 -1.9326 -0.6208
14613SOL    HW244912   4.269   5.577   0.296  1.3162  1.2869  0.4300
14614SOL     OW44913   4.750   2.805   5.481 -0.1442  0.0145  0.6002
14614SOL    HW144914   4.780   2.784   5.569 -0.9637  0.8293  1.0943
14614SOL    HW244915   4.775   2.897   5.468  1.0624 -0.4445 -0.5072
14615SOL     OW44916   2.157   7.795   4.926 -0.1526  0.2544 -0.0385
14615SOL    HW144917   2.165   7.817   4.833 -0.0914 -2.6138 -0.7842
14615SOL    HW244918   2.077   7.840   4.954 -0.6909  0.4262 -1.7200
14616SOL     OW44919   3.141   0.687   4.069  0.2297  0.0041  0.2802
14616SOL    HW144920   3.073   0.620   4.056  0.4606  0.1066 -1.9901
14616SOL    HW244921   3.120   0.728   4.152 -0.3613 -2.3898  1.3987
14617SOL     OW44922   0.026   5.113   4.578 -0.4166 -0.0791  0.6078
14617SOL    HW144923  -0.026   5.091   4.500  0.4989 -0.3970  0.0660
14617SOL    HW244924   0.116   5.088   4.554  0.1182  1.1400  1.2374
14618SOL     OW44925   8.044   2.881   2.953  0.9168  0.2890  0.3065
14618SOL    HW144926   8.121   2.825   2.950  0.4705 -0.3037 -1.0841
14618SOL    HW244927   7.970   2.821   2.939  0.0797  0.6955  2.5270
14619SOL     OW44928   5.700   4.023   4.181  0.3114 -0.0194  0.3715
14619SOL    HW144929   5.755   3.955   4.142  0.2347  0.5917 -0.8413
14619SOL    HW244930   5.761   4.095   4.198  0.2504 -0.0965  0.9616
14620SOL     OW44931   2.542   3.306   0.811 -0.3681 -0.1601 -0.0518
14620SOL    HW144932   2.498   3.259   0.881 -0.3263 -0.3663 -0.1641
14620SOL    HW244933   2.618   3.252   0.789 -0.0234  0.2241  0.1813
14621SOL     OW44934   3.758   0.287   7.234 -0.1816 -0.0434 -0.4249
14621SOL    HW144935   3.732   0.252   7.320 -0.2618 -0.8959 -0.7932
14621SOL    HW244936   3.715   0.373   7.230 -1.5287 -0.6822 -0.2887
14622SOL     OW44937   4.730   4.552   1.148 -0.3175 -0.9479 -0.4818
14622SOL    HW144938   4.692   4.465   1.149 -0.4576 -0.8981  0.6720
14622SOL    HW244939   4.658   4.610   1.121  0.4224 -1.4030 -3.8181
14623SOL     OW44940   3.740   0.973   2.886 -0.6048  0.3385 -0.3441
14623SOL    HW144941   3.815   0.945   2.834 -0.5708  0.2210 -0.2309
14623SOL    HW244942   3.673   0.906   2.870 -0.9276  0.7971 -0.9826
14624SOL     OW44943   5.013   0.628   5.600 -0.3844 -0.3842  0.1650
14624SOL    HW144944   4.989   0.698   5.540  1.3692  1.5751  1.5866
14624SOL    HW244945   5.097   0.595   5.568 -1.0464 -1.6912 -0.3198
14625SOL     OW44946   5.109   6.954   2.106  0.4719 -0.0625  0.2063
14625SOL    HW144947   5.090   7.033   2.055  1.4154  0.6479  0.9336
14625SOL    HW244948   5.034   6.945   2.165  0.8351  0.8687  0.8192
14626SOL     OW44949   1.799   0.234   6.037 -0.3521  0.3748 -0.3532
14626SOL    HW144950   1.888   0.256   6.064 -0.1403 -0.5360 -0.2712
14626SOL    HW244951   1.755   0.209   6.118  0.3303 -2.5299 -0.7738
14627SOL     OW44952   6.411   7.404   2.351 -0.1226 -0.2368  0.2483
14627SOL    HW144953   6.389   7.378   2.440 -3.1861 -0.7230 -0.5579
14627SOL    HW244954   6.382   7.495   2.345  0.6502 -0.0027 -0.1097
14628SOL     OW44955   6.815   2.795   7.760  0.3267 -0.1851  0.1239
14628SOL    HW144956   6.811   2.870   7.820  0.1156  0.3115 -0.4967
14628SOL    HW244957   6.902   2.801   7.720  0.2245 -0.1355 -0.0932
14629SOL     OW44958   5.355   1.969   1.724 -0.9414  0.3422 -0.6414
14629SOL    HW144959   5.369   1.974   1.819 -0.3030 -0.6186 -0.6762
14629SOL    HW244960   5.352   2.061   1.696 -0.3233  0.6341  0.1970
14630SOL     OW44961   4.271   7.404   5.730 -0.0161 -0.6572  0.2930
14630SOL    HW144962   4.241   7.314   5.719  1.8771 -1.3140  0.2163
14630SOL    HW244963   4.352   7.397   5.780 -0.4352  1.1163  1.3449
14631SOL     OW44964   2.350   6.094   7.625  0.4326  0.1749 -0.1575
14631SOL    HW144965   2.404   6.018   7.648  3.0285  1.5086 -1.4459
14631SOL    HW244966   2.383   6.165   7.680 -2.7002  0.2672  1.8547
14632SOL     OW44967   5.441   7.306   1.393 -0.0883 -0.2493 -0.1184
14632SOL    HW144968   5.450   7.399   1.415 -1.4697 -0.0548 -0.2631
14632SOL    HW244969   5.478   7.260   1.469 -0.2184  0.4217  0.3642
14633SOL     OW44970   3.632   1.252   7.804  0.3428  0.3392  0.2801
14633SOL    HW144971   3.645   1.318   7.736  3.4182  2.1294  2.3585
14633SOL    HW244972   3.565   1.290   7.861  0.4033  0.5619  0.2046
14634SOL     OW44973   3.844   0.338   0.462 -0.4016 -0.4312  0.3884
14634SOL    HW144974   3.773   0.315   0.401 -0.7856  2.4069 -0.3561
14634SOL    HW244975   3.809   0.410   0.514  2.0454  1.3633 -0.2835
14635SOL     OW44976   3.337   2.957   4.343 -0.5457  0.2229 -0.0819
14635SOL    HW144977   3.270   2.944   4.410 -1.1111  2.2862 -0.1723
14635SOL    HW244978   3.371   2.869   4.326 -0.7014 -0.4369  2.5466
14636SOL     OW44979   5.108   4.947   7.269  0.3272  0.1499 -0.1980
14636SOL    HW144980   5.059   4.866   7.257 -0.9842  0.5799  1.7403
14636SOL    HW244981   5.143   4.942   7.358  0.8470  1.3813 -0.3066
14637SOL     OW44982   8.026   6.746   6.408 -0.0083  0.6945  0.4926
14637SOL    HW144983   8.100   6.802   6.431 -1.1751  1.7496  1.8725
14637SOL    HW244984   8.049   6.710   6.322  2.8800 -0.4356  1.6182
14638SOL     OW44985   7.125   4.227   4.108  0.2674 -0.0329  0.4213
14638SOL    HW144986   7.158   4.174   4.035  0.0527 -1.3135  1.2298
14638SOL    HW244987   7.030   4.226   4.097  0.1941 -0.6999  1.0044
14639SOL     OW44988   7.247   5.346   5.087 -0.0219 -0.0640  0.5571
14639SOL    HW144989   7.303   5.300   5.149 -2.4331 -3.5641  0.4782
14639SOL    HW244990   7.162   5.353   5.132 -0.8111  0.7375 -0.9642
14640SOL     OW44991   5.702   6.342   2.010  0.1315 -0.6120  0.2760
14640SOL    HW144992   5.643   6.311   1.943  0.8288  1.5900 -1.4902
14640SOL    HW244993   5.772   6.276   2.014 -1.6167 -2.4966  1.3832
14641SOL     OW44994   2.002   7.907   6.187  0.0261  0.0229  0.3252
14641SOL    HW144995   2.085   7.902   6.234 -0.0255  0.6009  0.4824
14641SOL    HW244996   1.988   8.000   6.173  1.1885 -0.1506 -2.8738
14642SOL     OW44997   3.357   6.956   1.957  0.3933  0.7692  0.6362
14642SOL    HW144998   3.450   6.933   1.963  0.6142  1.2183 -0.6996
14642SOL    HW244999   3.324   6.903   1.885  0.3441  2.7308 -0.8741
14643SOL     OW45000   6.210   0.719   0.119  1.0294  0.2114 -0.3135
14643SOL    HW145001   6.202   0.790   0.056 -2.4321  0.3293  0.0780
14643SOL    HW245002   6.294   0.679   0.099  2.3372  3.3106 -1.6598
14644SOL     OW45003   4.250   3.255   4.554 -0.1973  0.2879  0.4882
14644SOL    HW145004   4.194   3.311   4.608 -1.2706 -0.8141  0.5603
14644SOL    HW245005   4.314   3.220   4.615 -0.7490 -0.1148  0.8485
14645SOL     OW45006   3.679   1.837   6.142  0.1321 -0.4308  0.5214
14645SOL    HW145007   3.699   1.930   6.158 -0.5206 -0.1996  0.0208
14645SOL    HW245008   3.765   1.796   6.135  0.4385 -0.0533  1.7830
14646SOL     OW45009   7.146   7.389   8.138  0.2530  0.1129 -0.0072
14646SOL    HW145010   7.165   7.433   8.221 -0.5677 -1.8931  1.3230
14646SOL    HW245011   7.222   7.333   8.122  0.7454  1.0431 -1.0396
14647SOL     OW45012   0.946   2.968   1.894 -0.0517  1.2421 -0.6832
14647SOL    HW145013   1.010   2.993   1.961 -0.3355 -1.1430  0.6182
14647SOL    HW245014   0.861   2.987   1.934 -0.2089  0.3275 -0.5487
14648SOL     OW45015   6.868   8.036   5.951  0.2425 -0.2730  0.2479
14648SOL    HW145016   6.938   8.000   5.897  0.5167  0.1608  0.3061
14648SOL    HW245017   6.849   8.121   5.911  1.1282  0.4990  1.3835
14649SOL     OW45018   3.892   4.179   0.767 -0.1872 -0.0553  0.6419
14649SOL    HW145019   3.801   4.150   0.768 -0.5476  0.9923 -0.1130
14649SOL    HW245020   3.894   4.249   0.702  1.4026 -0.8312 -0.2041
14650SOL     OW45021   5.546   8.034   4.718  0.5151 -0.3933  0.2457
14650SOL    HW145022   5.480   8.103   4.716 -1.0518 -1.8068 -2.8371
14650SOL    HW245023   5.496   7.953   4.718  2.2623 -1.5248 -0.3358
14651SOL     OW45024   0.476   2.030   2.859 -0.0066 -0.5174  0.3878
14651SOL    HW145025   0.408   2.037   2.926  0.1100 -1.8517  0.6800
14651SOL    HW245026   0.556   2.057   2.904 -0.2085  0.2485  0.2861
14652SOL     OW45027   7.273   6.990   4.821  0.0060  0.6764  0.0670
14652SOL    HW145028   7.182   6.987   4.793 -0.2058 -0.0121  0.7694
14652SOL    HW245029   7.270   6.969   4.915  1.0316 -1.3408 -0.2860
14653SOL     OW45030   0.125   4.167   2.223  0.7323  0.0647 -0.2522
14653SOL    HW145031   0.072   4.239   2.189  0.1287  0.8347  2.1567
14653SOL    HW245032   0.214   4.201   2.225  0.5276  0.5863  0.3796
14654SOL     OW45033   0.605   6.991   1.766 -0.0574 -0.1214 -0.4224
14654SOL    HW145034   0.598   7.068   1.824  1.4684  0.8038 -1.4139
14654SOL    HW245035   0.515   6.958   1.761 -0.4268  0.4291  1.5727
14655SOL     OW45036   6.593   2.127   0.439 -0.6048 -0.2736 -0.3520
14655SOL    HW145037   6.521   2.102   0.497 -0.1166  0.8722  0.7975
14655SOL    HW245038   6.590   2.223   0.437 -0.6236 -0.2789 -2.2819
14656SOL     OW45039   0.489   8.160   4.287 -0.2598  0.1321  0.6773
14656SOL    HW145040   0.409   8.135   4.241  0.9188 -1.7353 -0.5161
14656SOL    HW245041   0.461   8.183   4.375 -2.2206  0.6369 -0.0457
14657SOL     OW45042   1.463   8.153   1.445 -0.3477  0.3454  0.1288
14657SOL    HW145043   1.554   8.175   1.465  0.0607 -0.8429 -0.3448
14657SOL    HW245044   1.463   8.137   1.350 -0.7367 -1.0444  0.3402
14658SOL     OW45045   1.578   6.398   6.216 -0.4467 -0.2256 -0.5157
14658SOL    HW145046   1.576   6.303   6.204  1.1579 -0.3541 -0.0020
14658SOL    HW245047   1.621   6.431   6.137  0.9183 -0.1498  0.2264
14659SOL     OW45048   7.595   3.833   7.891  0.2927 -0.0941  0.2359
14659SOL    HW145049   7.546   3.810   7.970 -0.5153  1.5242  0.2301
14659SOL    HW245050   7.529   3.844   7.823  0.9382 -0.9195 -0.5552
14660SOL     OW45051   5.306   4.401   2.460  0.4030 -0.1695 -0.3162
14660SOL    HW145052   5.308   4.483   2.511 -1.1747 -0.5492  0.4367
14660SOL    HW245053   5.393   4.363   2.473  0.7041  0.7266  0.4489
14661SOL     OW45054   7.511   2.204   2.542 -0.4788  0.2740 -0.3510
14661SOL    HW145055   7.514   2.115   2.577  0.2007  0.1485 -0.7074
14661SOL    HW245056   7.417   2.225   2.538 -0.6110 -0.0351  0.6887
14662SOL     OW45057   1.078   7.412   0.034  0.0892  0.3550  0.0361
14662SOL    HW145058   1.118   7.495   0.007  0.4212  0.2934  0.3284
14662SOL    HW245059   1.064   7.365  -0.048  0.4556  0.4525 -0.0857
14663SOL     OW45060   4.460   0.729   7.636  0.1700  0.1666  0.5042
14663SOL    HW145061   4.381   0.675   7.643 -0.1767  0.2842 -1.7526
14663SOL    HW245062   4.513   0.704   7.711 -0.5207 -2.4430  0.2217
14664SOL     OW45063   3.477   0.379   6.228  0.0107 -0.3171  0.3129
14664SOL    HW145064   3.523   0.425   6.158 -1.0597  0.4544  0.0818
14664SOL    HW245065   3.542   0.320   6.264  1.3990  1.2140  0.4702
14665SOL     OW45066   2.476   8.063   5.133  0.6565  0.2243  0.9980
14665SOL    HW145067   2.495   8.126   5.203 -1.3517  0.1082  1.7370
14665SOL    HW245068   2.477   7.978   5.177  3.1450 -0.3129  0.0496
14666SOL     OW45069   1.203   1.556   4.549  0.3135 -0.1184  0.5551
14666SOL    HW145070   1.260   1.497   4.599  0.5414 -0.6009 -0.2612
14666SOL    HW245071   1.240   1.556   4.461  0.0545  0.9073  0.4303
14667SOL     OW45072   4.077   3.173   3.635  0.1821 -0.3014  0.4502
14667SOL    HW145073   4.086   3.102   3.698  1.5983  0.7228  1.4744
14667SOL    HW245074   4.155   3.167   3.580 -1.3574 -1.6119 -1.7820
14668SOL     OW45075   5.754   8.162   5.404 -0.0888  0.0147 -0.3836
14668SOL    HW145076   5.848   8.147   5.389  0.1055 -0.6437  1.2633
14668SOL    HW245077   5.751   8.250   5.443  0.0065 -0.4780  0.7756
14669SOL     OW45078   3.032   5.691   3.142  0.0836 -0.1028  0.1730
14669SOL    HW145079   3.054   5.752   3.212 -0.5542 -0.9797  1.1783
14669SOL    HW245080   2.942   5.664   3.162  0.2297 -1.0834 -0.4466
14670SOL     OW45081   2.981   1.188   1.507  0.3097 -0.3356 -0.0387
14670SOL    HW145082   3.033   1.268   1.506 -0.1817 -0.0106  0.2333
14670SOL    HW245083   3.021   1.135   1.576 -0.3350  0.3365  0.8762
14671SOL     OW45084   5.610   0.478   1.130 -0.0646 -0.0120 -0.3177
14671SOL    HW145085   5.570   0.563   1.149 -1.5991 -1.0142  1.3437
14671SOL    HW245086   5.601   0.468   1.036 -1.0437  1.1190 -0.3772
14672SOL     OW45087   1.604   4.461   1.821 -0.2633 -0.2152  0.9945
14672SOL    HW145088   1.638   4.545   1.791 -0.0833 -0.3188  0.9051
14672SOL    HW245089   1.675   4.423   1.873  0.2207 -0.9536 -0.1655
14673SOL     OW45090   1.010   7.034   6.538  0.5659  0.3722 -0.1262
14673SOL    HW145091   1.100   7.061   6.517  0.8143  0.3428  0.8461
14673SOL    HW245092   0.957   7.111   6.517  0.8778  0.5428 -0.3035
14674SOL     OW45093   1.624   3.720   7.419 -0.0603  0.0881  0.2382
14674SOL    HW145094   1.654   3.675   7.498  0.6151 -1.1074 -0.6671
14674SOL    HW245095   1.681   3.688   7.350  0.0079  1.8556 -0.5896
14675SOL     OW45096   8.115   2.331   2.761  0.6673  0.1757  0.3559
14675SOL    HW145097   8.163   2.249   2.772  1.5464  0.5490 -0.5301
14675SOL    HW245098   8.064   2.340   2.842 -1.4870 -2.5164 -0.5149
14676SOL     OW45099   1.850   3.169   2.462  0.9050  0.5839  0.4654
14676SOL    HW145100   1.848   3.160   2.367  0.4468  0.3713  0.4918
14676SOL    HW245101   1.880   3.083   2.493 -1.4855 -0.2966  0.6199
14677SOL     OW45102   5.160   6.244   4.311  0.5162 -0.2331 -0.6106
14677SOL    HW145103   5.216   6.201   4.375 -0.3191 -1.6849 -0.8030
14677SOL    HW245104   5.071   6.220   4.337  0.1506 -0.6711 -2.1856
14678SOL     OW45105   1.911   2.576   5.823  0.3017 -0.8115 -0.0149
14678SOL    HW145106   1.923   2.531   5.907 -1.3642 -0.2144  0.5754
14678SOL    HW245107   1.856   2.651   5.843 -2.0366 -1.8546 -1.9664
14679SOL     OW45108   7.611   1.884   4.520 -0.2670  0.5179  0.2382
14679SOL    HW145109   7.558   1.829   4.462 -0.9020 -0.0529  1.3421
14679SOL    HW245110   7.668   1.823   4.566  2.6787  1.2128 -2.1050
14680SOL     OW45111   3.313   6.043   4.347 -0.2634 -0.0918  0.1607
14680SOL    HW145112   3.408   6.052   4.353 -0.3047  3.3894 -1.6068
14680SOL    HW245113   3.299   5.989   4.269  0.1598 -2.9568  1.9610
14681SOL     OW45114   2.350   2.041   5.717  0.0629 -0.3553 -0.0049
14681SOL    HW145115   2.319   1.952   5.733  0.8242 -0.6627 -0.1899
14681SOL    HW245116   2.405   2.060   5.793  1.1593 -0.6407 -0.7023
14682SOL     OW45117   0.569   6.236   2.648  0.3703  0.2986 -0.0502
14682SOL    HW145118   0.532   6.257   2.733  1.7004 -1.4477  1.0300
14682SOL    HW245119   0.618   6.315   2.622  1.3640  0.2730  1.6263
14683SOL     OW45120   7.747   8.002   6.916 -0.4545  0.0406 -0.2669
14683SOL    HW145121   7.756   8.067   6.845 -2.7125  0.8127  0.0652
14683SOL    HW245122   7.800   8.037   6.987  1.0261 -0.2244 -1.2056
14684SOL     OW45123   1.176   3.162   6.875  0.6604 -0.1187  0.3310
14684SOL    HW145124   1.145   3.086   6.825  1.5747 -1.2930  1.4540
14684SOL    HW245125   1.247   3.198   6.822  1.0491 -0.8312  0.3459
14685SOL     OW45126   4.829   5.739   2.517  0.0126 -0.0821  0.0489
14685SOL    HW145127   4.852   5.769   2.605 -0.6560  1.0557 -0.1435
14685SOL    HW245128   4.787   5.654   2.530 -1.3008  0.6685  0.9867
14686SOL     OW45129   0.201   3.668   5.824 -0.2789  0.1312 -0.0644
14686SOL    HW145130   0.206   3.580   5.860 -0.1091 -0.1521 -0.7692
14686SOL    HW245131   0.120   3.705   5.860 -0.0120 -0.0703  0.7575
14687SOL     OW45132   7.981   0.019   1.204  0.2250 -0.0958 -0.1079
14687SOL    HW145133   8.024   0.083   1.147 -0.5907 -0.4679 -1.1606
14687SOL    HW245134   8.034   0.020   1.284  1.5324  0.2666 -0.9428
14688SOL     OW45135   1.395   1.014   7.977  0.4222  0.2949  0.0790
14688SOL    HW145136   1.334   0.989   8.046 -0.3278 -1.5639 -1.1671
14688SOL    HW245137   1.478   0.973   8.002  0.0553 -0.6937 -0.2632
14689SOL     OW45138   4.196   1.342   6.624  0.3735  0.8031  0.5966
14689SOL    HW145139   4.254   1.352   6.548  0.4554  0.9729  0.6801
14689SOL    HW245140   4.243   1.283   6.683 -0.4060 -0.6399 -0.1892
14690SOL     OW45141   0.523   5.906   6.606 -0.0802 -0.5783 -0.5612
14690SOL    HW145142   0.541   5.813   6.621 -0.7810 -0.6397 -0.0398
14690SOL    HW245143   0.454   5.906   6.540 -0.4488 -0.4587 -0.1868
14691SOL     OW45144   2.382   4.014   2.350  0.3559  0.0346 -0.7403
14691SOL    HW145145   2.312   4.011   2.414  0.3978  0.1542 -0.6881
14691SOL    HW245146   2.435   4.090   2.375  0.4236  0.0291 -0.8626
14692SOL     OW45147   2.791   0.793   0.694 -0.2626 -0.5383  0.1445
14692SOL    HW145148   2.873   0.816   0.737 -0.1582 -0.3385 -0.1611
14692SOL    HW245149   2.759   0.717   0.743 -1.5594  1.3436  2.3735
14693SOL     OW45150   3.304   7.944   1.800  0.0114  0.1772 -0.0337
14693SOL    HW145151   3.244   8.009   1.838  0.2208  1.3370 -1.5872
14693SOL    HW245152   3.302   7.871   1.862  1.6108  2.5522  3.1044
14694SOL     OW45153   0.077   1.686   6.393 -0.3960 -0.1171 -0.3199
14694SOL    HW145154   0.135   1.659   6.322  0.8573 -0.3161  0.7558
14694SOL    HW245155  -0.011   1.665   6.361  0.1184  0.0116 -1.8953
14695SOL     OW45156   7.403   4.333   3.838  0.0973 -0.8850  0.0137
14695SOL    HW145157   7.491   4.304   3.816  0.1370 -0.8243  0.0916
14695SOL    HW245158   7.416   4.414   3.887  0.0250 -1.3037  0.7241
14696SOL     OW45159   6.797   4.845   4.891 -0.3669 -0.3228 -0.0614
14696SOL    HW145160   6.759   4.900   4.822  1.4332  0.4383 -0.5244
14696SOL    HW245161   6.868   4.797   4.847 -0.9866 -1.9677  0.6686
14697SOL     OW45162   5.890   1.824   1.257 -0.1671  0.4410  0.5183
14697SOL    HW145163   5.903   1.896   1.319 -1.3314  0.0802  1.2069
14697SOL    HW245164   5.975   1.780   1.254 -0.3152 -0.1174  2.6272
14698SOL     OW45165   7.503   0.637   2.232  0.3230 -0.0961 -0.0369
14698SOL    HW145166   7.465   0.605   2.150  0.7654 -1.1806  0.1710
14698SOL    HW245167   7.534   0.725   2.212  2.5438 -1.1741 -1.7163
14699SOL     OW45168   3.119   7.865   1.322  0.2744 -0.0507 -0.5603
14699SOL    HW145169   3.107   7.911   1.238  0.1151 -1.3486 -1.2818
14699SOL    HW245170   3.148   7.777   1.297 -1.0248 -0.8846  0.6801
14700SOL     OW45171   0.078   1.043   0.349  0.7086 -0.2407 -0.2538
14700SOL    HW145172   0.131   1.047   0.429  0.5899 -1.9373 -0.0592
14700SOL    HW245173   0.109   0.965   0.304 -1.1905 -0.9424 -0.4388
14701SOL     OW45174   6.270   7.420   2.878  0.0361 -0.1868  0.2195
14701SOL    HW145175   6.206   7.489   2.865 -0.1858 -0.3386  0.5032
14701SOL    HW245176   6.241   7.350   2.819 -1.0985 -0.9632  1.6383
14702SOL     OW45177   1.942   7.462   0.411  0.4494  0.3739  0.0866
14702SOL    HW145178   1.891   7.389   0.375 -0.6462  0.0462  2.1647
14702SOL    HW245179   1.972   7.510   0.334 -2.1525  0.0021 -1.2758
14703SOL     OW45180   1.371   6.669   3.381 -0.1876  0.1471  0.0405
14703SOL    HW145181   1.423   6.671   3.301 -0.2879 -0.0826 -0.0301
14703SOL    HW245182   1.406   6.741   3.434  1.2891 -0.9985  0.6836
14704SOL     OW45183   4.516   4.422   1.959 -0.0487  0.1140  0.4247
14704SOL    HW145184   4.609   4.412   1.981 -0.3598  0.6293  2.1650
14704SOL    HW245185   4.483   4.485   2.023 -1.4200  0.6029 -0.7169
14705SOL     OW45186   4.019   3.300   6.261  0.0151  0.1171  0.1428
14705SOL    HW145187   4.078   3.301   6.336 -1.2500  1.7378  1.1940
14705SOL    HW245188   4.057   3.236   6.201  1.7142 -0.3523  1.6360
14706SOL     OW45189   2.916   2.193   0.943 -0.1754 -0.2344 -0.2315
14706SOL    HW145190   2.841   2.151   0.984 -0.8592 -0.0684 -1.2740
14706SOL    HW245191   2.932   2.271   0.995  0.2816 -1.0775  0.9387
14707SOL     OW45192   6.158   5.123   6.492 -0.3134 -0.1823 -0.1207
14707SOL    HW145193   6.068   5.124   6.459 -0.5531 -1.6774  0.3949
14707SOL    HW245194   6.213   5.131   6.414 -0.8836  0.0107 -0.5086
14708SOL     OW45195   7.626   3.816   4.831  0.4199 -0.4981 -0.2176
14708SOL    HW145196   7.677   3.809   4.911  0.1802 -1.0399 -0.1056
14708SOL    HW245197   7.561   3.746   4.838 -0.1662  0.0090 -0.4798
14709SOL     OW45198   1.353   3.787   2.707 -0.0024  0.4535 -0.2974
14709SOL    HW145199   1.419   3.815   2.644  0.0087  0.2202 -0.3928
14709SOL    HW245200   1.404   3.754   2.781  0.0137  3.0582  0.9425
14710SOL     OW45201   2.585   4.659   5.065 -0.2155  0.1898 -0.3004
14710SOL    HW145202   2.634   4.740   5.078 -0.9389  0.5796  0.1069
14710SOL    HW245203   2.494   4.684   5.080 -0.6773 -0.2737 -2.0423
14711SOL     OW45204   1.377   3.426   4.218  0.0832 -0.7744 -0.3240
14711SOL    HW145205   1.385   3.451   4.310 -2.4396  0.6709 -0.4126
14711SOL    HW245206   1.468   3.419   4.187  0.9989  1.4406  1.5637
14712SOL     OW45207   0.583   3.658   1.857  0.0657  0.3170 -0.0102
14712SOL    HW145208   0.632   3.582   1.889 -1.0624 -0.4316  0.0379
14712SOL    HW245209   0.580   3.646   1.762 -2.1760 -1.0863  0.1587
14713SOL     OW45210   7.846   3.944   1.514  0.6948  0.2425  0.6588
14713SOL    HW145211   7.835   3.868   1.457  0.0669  0.9059 -0.1427
14713SOL    HW245212   7.840   3.909   1.603 -0.6885 -0.4921  0.2986
14714SOL     OW45213   3.487   4.034   4.199 -0.6378 -0.1611 -0.0537
14714SOL    HW145214   3.416   3.976   4.227 -0.7574  0.3099  0.6295
14714SOL    HW245215   3.483   4.108   4.259 -0.3348  0.4506 -0.7785
14715SOL     OW45216   3.347   6.671   1.384 -0.0649  0.5383  0.0464
14715SOL    HW145217   3.268   6.725   1.390 -1.1258 -1.0315  1.1779
14715SOL    HW245218   3.375   6.680   1.293 -2.9550 -0.6446 -1.1099
14716SOL     OW45219   4.692   3.965   7.088 -0.2281 -0.0228 -0.1387
14716SOL    HW145220   4.717   3.873   7.076 -2.5255 -0.4503 -2.6419
14716SOL    HW245221   4.658   3.970   7.177  0.1554 -1.5243  0.1155
14717SOL     OW45222   2.022   1.721   3.378 -0.5507 -0.7089 -0.1737
14717SOL    HW145223   1.996   1.694   3.290 -0.7625  0.6525 -0.5467
14717SOL    HW245224   2.080   1.651   3.409  0.4399 -0.6714 -1.8317
14718SOL     OW45225   4.453   3.942   5.598  0.2005 -0.3767 -0.2118
14718SOL    HW145226   4.545   3.954   5.576  0.3760 -0.9771  0.1558
14718SOL    HW245227   4.409   4.020   5.564  0.9169  0.1556  0.0603
14719SOL     OW45228   5.704   2.891   3.895  0.1234 -1.1303  0.2312
14719SOL    HW145229   5.708   2.981   3.927 -1.4988 -0.5780 -0.9844
14719SOL    HW245230   5.685   2.900   3.801  0.1740 -2.7309  0.0453
14720SOL     OW45231   6.422   1.566   4.990 -0.1465 -0.2633 -0.4806
14720SOL    HW145232   6.419   1.656   4.959 -1.2916  0.7614  2.2749
14720SOL    HW245233   6.343   1.526   4.954  0.2222 -0.0991 -1.4887
14721SOL     OW45234   4.329   4.791   8.092 -0.0587 -0.0763 -0.6117
14721SOL    HW145235   4.284   4.875   8.088 -0.7267 -0.2385  1.7423
14721SOL    HW245236   4.420   4.813   8.112 -0.1467  0.0953 -0.4045
14722SOL     OW45237   4.386   7.951   3.148  0.7112 -0.4901  0.4674
14722SOL    HW145238   4.384   8.021   3.082  2.2004 -0.9938 -0.1578
14722SOL    HW245239   4.442   7.884   3.109  3.5555  0.1356  3.1274
14723SOL     OW45240   4.053   4.382   6.695  0.4897  0.2298  0.1678
14723SOL    HW145241   3.984   4.318   6.678  0.6346 -0.4173  1.8612
14723SOL    HW245242   4.019   4.464   6.659 -0.6593 -0.3185 -0.0391
14724SOL     OW45243   4.679   0.091   0.657  0.5859  0.0399 -0.3308
14724SOL    HW145244   4.649   0.002   0.639  0.0467  0.6566 -2.8520
14724SOL    HW245245   4.759   0.101   0.606  0.4386  1.0922 -0.3908
14725SOL     OW45246   1.584   4.825   4.014 -0.0131 -1.0507 -0.1318
14725SOL    HW145247   1.572   4.737   3.978 -1.6338 -0.9426  0.0751
14725SOL    HW245248   1.594   4.881   3.936  0.9075 -1.3826 -0.2661
14726SOL     OW45249   5.977   0.491   1.441 -0.2300  0.7086  0.5508
14726SOL    HW145250   5.977   0.550   1.366 -0.2951  0.8968  0.6978
14726SOL    HW245251   5.892   0.447   1.437  0.3387 -0.3450 -0.3111
14727SOL     OW45252   7.422   6.592   3.782  0.0485 -0.0194  0.1365
14727SOL    HW145253   7.353   6.658   3.773 -1.3452 -1.4354  0.1176
14727SOL    HW245254   7.494   6.626   3.729 -1.9038 -0.1533 -2.8254
14728SOL     OW45255   5.887   4.554   6.267  0.1346 -0.3064 -0.6991
14728SOL    HW145256   5.932   4.519   6.190  1.2550 -0.1297 -0.1485
14728SOL    HW245257   5.918   4.644   6.274 -0.0450 -0.2863 -0.1037
14729SOL     OW45258   0.935   1.337   6.531 -0.1523  0.2156  0.2307
14729SOL    HW145259   1.010   1.396   6.528  0.5003 -0.6634 -1.2300
14729SOL    HW245260   0.881   1.363   6.456 -0.2721 -0.4975  0.0660
14730SOL     OW45261   5.051   7.625   4.129 -0.3300  0.5678 -0.4469
14730SOL    HW145262   5.004   7.611   4.047 -0.4380  0.4897 -0.3720
14730SOL    HW245263   5.026   7.714   4.155 -3.3192 -0.6843  1.4318
14731SOL     OW45264   6.707   3.045   4.002 -0.5142  0.1714 -0.0605
14731SOL    HW145265   6.708   3.079   3.913  2.2407  0.1616 -0.1034
14731SOL    HW245266   6.688   2.951   3.992  0.2267  0.0804 -0.6892
14732SOL     OW45267   2.321   1.337   7.813 -0.2553 -0.1050  0.3622
14732SOL    HW145268   2.396   1.393   7.798 -1.4133  1.4699  0.2491
14732SOL    HW245269   2.346   1.252   7.776  2.0011 -0.0756  1.6596
14733SOL     OW45270   1.171   1.845   0.037 -0.3223  0.3120 -0.1262
14733SOL    HW145271   1.212   1.900   0.105  0.7276 -0.3619 -0.1841
14733SOL    HW245272   1.185   1.894  -0.044 -0.1998  0.3887 -0.0593
14734SOL     OW45273   3.924   1.941   3.471  0.2777 -0.1496  0.0798
14734SOL    HW145274   3.884   1.880   3.533 -1.2109  0.9414  0.2565
14734SOL    HW245275   3.860   2.012   3.463  1.0285  0.3760 -1.7057
14735SOL     OW45276   5.756   2.247   1.512 -0.2932  0.1370 -0.1269
14735SOL    HW145277   5.683   2.290   1.557 -0.1269  1.0212 -0.6836
14735SOL    HW245278   5.824   2.314   1.506  0.5743 -0.6793  0.3843
14736SOL     OW45279   2.246   4.326   5.452  1.0532  0.2569 -1.1633
14736SOL    HW145280   2.287   4.254   5.404  0.6204  0.9528 -2.6140
14736SOL    HW245281   2.283   4.405   5.413 -0.2545  0.8528 -1.2275
14737SOL     OW45282   7.948   0.806   4.651  0.2398  0.1505 -0.5303
14737SOL    HW145283   7.975   0.799   4.743  1.5608 -1.1763 -0.9814
14737SOL    HW245284   7.854   0.793   4.653  0.3609 -0.7015  0.5713
14738SOL     OW45285   2.688   5.167   1.534 -0.0890 -0.0579 -0.0074
14738SOL    HW145286   2.615   5.160   1.597 -0.0100  0.1405  0.1079
14738SOL    HW245287   2.662   5.238   1.475  0.5590  0.8586  0.7792
14739SOL     OW45288   5.990   3.016   7.989  0.2168 -0.0319  0.0172
14739SOL    HW145289   6.043   2.951   7.945  0.6054 -0.1645  0.6727
14739SOL    HW245290   5.967   2.977   8.073 -0.8810  0.0421 -0.2313
14740SOL     OW45291   1.520   6.907   0.453  0.1501 -0.1695  0.8886
14740SOL    HW145292   1.493   6.964   0.380 -2.6359 -1.2558  0.9603
14740SOL    HW245293   1.572   6.964   0.510 -0.3055  1.5687 -0.3463
14741SOL     OW45294   2.666   2.120   6.289 -0.0596  0.5047 -0.3993
14741SOL    HW145295   2.700   2.031   6.289  0.8266  0.8293 -0.4633
14741SOL    HW245296   2.615   2.127   6.209 -0.8021 -0.1832  0.0043
14742SOL     OW45297   3.618   5.351   4.344  0.9777  0.0079 -0.1248
14742SOL    HW145298   3.696   5.301   4.369  0.0149 -0.9020  1.1776
14742SOL    HW245299   3.575   5.297   4.277  1.4935  0.5682 -0.9340
14743SOL     OW45300   6.212   4.317   4.927 -0.1187  0.0267  0.2850
14743SOL    HW145301   6.123   4.283   4.940 -1.4670  3.0969 -0.0165
14743SOL    HW245302   6.240   4.343   5.015 -0.4567  1.0251  0.1176
14744SOL     OW45303   0.166   5.934   4.392  0.4071 -0.2399  0.6421
14744SOL    HW145304   0.149   6.028   4.388  1.5632  0.0143  1.4159
14744SOL    HW245305   0.093   5.895   4.343 -0.0879  1.0457  0.3069
14745SOL     OW45306   0.188   1.322   7.495 -0.1695  0.2635 -0.0941
14745SOL    HW145307   0.215   1.256   7.431 -0.2507 -0.8118  0.9574
14745SOL    HW245308   0.116   1.282   7.543  0.7175  0.5369  1.5338
14746SOL     OW45309   7.907   1.760   1.481 -0.1955  0.3805 -0.2256
14746SOL    HW145310   7.887   1.840   1.432 -1.9772 -2.1489 -4.1803
14746SOL    HW245311   8.000   1.745   1.464 -0.2651  0.7425 -0.9829
14747SOL     OW45312   3.276   5.804   5.503 -0.3963  0.5052 -0.4140
14747SOL    HW145313   3.257   5.811   5.409 -3.1956  1.8679  0.1317
14747SOL    HW245314   3.370   5.789   5.507 -0.2095  0.0954 -3.4353
14748SOL     OW45315   6.075   6.407   7.498  0.4398 -0.7710 -0.0270
14748SOL    HW145316   6.006   6.390   7.563 -0.2205 -4.1903 -1.4263
14748SOL    HW245317   6.155   6.417   7.549 -0.4371 -0.8867  1.4178
14749SOL     OW45318   2.540   4.707   7.431 -0.3384 -0.0303 -0.2173
14749SOL    HW145319   2.632   4.689   7.411 -0.0659  0.7405  0.2973
14749SOL    HW245320   2.492   4.671   7.356  0.5322  1.2660 -1.4609
14750SOL     OW45321   5.162   4.572   4.000  0.2236  0.2830  0.1115
14750SOL    HW145322   5.096   4.576   3.930  0.5712 -1.0548 -0.3225
14750SOL    HW245323   5.223   4.505   3.971  1.4296  1.0477  0.8215
14751SOL     OW45324   3.183   3.812   6.727  0.1167  0.6056  0.6899
14751SOL    HW145325   3.176   3.720   6.701  0.7243  0.3949  1.2461
14751SOL    HW245326   3.169   3.861   6.646  2.2694 -0.0363 -0.1384
14752SOL     OW45327   0.140   6.908   7.992 -0.4844  0.4143  0.3028
14752SOL    HW145328   0.097   6.918   8.077  0.4124 -0.7816  0.9210
14752SOL    HW245329   0.213   6.970   7.994  0.5010 -0.7400  1.0708
14753SOL     OW45330   7.953   0.237   3.096  0.4472 -0.0530 -1.0904
14753SOL    HW145331   8.029   0.277   3.139 -0.5671  0.5220  0.2534
14753SOL    HW245332   7.890   0.308   3.086 -0.5916 -0.8498 -0.5379
14754SOL     OW45333   5.377   5.688   3.009 -0.0107  0.0058 -0.0401
14754SOL    HW145334   5.285   5.702   2.985 -0.4874 -0.1188  1.5454
14754SOL    HW245335   5.427   5.733   2.941 -1.2505  0.2796 -0.8085
14755SOL     OW45336   1.361   2.463   4.690  0.4601  0.1151 -0.1755
14755SOL    HW145337   1.274   2.489   4.659  0.5967 -0.5116 -1.1472
14755SOL    HW245338   1.411   2.544   4.692 -0.3362  0.6051  1.1104
14756SOL     OW45339   0.470   3.987   5.460 -0.4480 -0.7372 -0.7606
14756SOL    HW145340   0.494   3.896   5.447 -0.3673 -0.7831 -0.3123
14756SOL    HW245341   0.422   3.988   5.543  1.0633 -0.1176  0.1520
14757SOL     OW45342   4.888   5.543   3.885 -0.5231 -0.3398  0.0809
14757SOL    HW145343   4.955   5.551   3.952 -1.0117 -0.9386  0.6560
14757SOL    HW245344   4.811   5.585   3.923 -0.3026  1.0162 -0.8658
14758SOL     OW45345   3.855   5.405   6.479  0.1968 -0.1101 -0.0419
14758SOL    HW145346   3.906   5.380   6.401  0.2338 -1.3428  0.3537
14758SOL    HW245347   3.918   5.451   6.535  1.3091 -2.6720  0.9897
14759SOL     OW45348   8.132   1.217   0.759  0.6130 -0.0859 -0.1021
14759SOL    HW145349   8.091   1.173   0.684  0.1221 -2.2869  1.3488
14759SOL    HW245350   8.081   1.186   0.835  1.1989  1.9267  1.1725
14760SOL     OW45351   7.060   5.312   2.865  0.1530  0.1718  0.0233
14760SOL    HW145352   6.975   5.330   2.904 -0.2936  1.1214 -1.2931
14760SOL    HW245353   7.040   5.284   2.776  1.1529 -1.4241  0.2700
14761SOL     OW45354   7.887   4.540   8.015 -0.0796  0.2850 -0.0324
14761SOL    HW145355   7.879   4.551   8.110 -1.1603 -4.3842  0.6820
14761SOL    HW245356   7.801   4.565   7.981 -0.1000  0.7863  0.3733
14762SOL     OW45357   3.376   3.723   4.165  0.7246 -0.5273 -0.1200
14762SOL    HW145358   3.302   3.754   4.216  0.9336  1.2466 -0.8131
14762SOL    HW245359   3.428   3.671   4.227 -0.8047 -1.3858  0.4976
14763SOL     OW45360   6.754   7.013   3.349 -0.0484 -0.1391  0.0046
14763SOL    HW145361   6.756   6.927   3.392  0.3106 -0.3769 -0.4836
14763SOL    HW245362   6.771   7.075   3.419 -0.7445 -0.4292  0.4498
14764SOL     OW45363   6.988   2.873   7.239  0.1139 -0.1956  0.0064
14764SOL    HW145364   7.019   2.954   7.279 -0.9148  1.0909 -1.6513
14764SOL    HW245365   7.058   2.847   7.179 -0.1422  0.3151 -0.5346
14765SOL     OW45366   4.380   1.244   3.531  0.0007  0.0042 -0.4176
14765SOL    HW145367   4.309   1.180   3.527 -0.4279  0.4987 -3.3266
14765SOL    HW245368   4.392   1.261   3.624 -2.3799 -1.5424  0.2676
14766SOL     OW45369   2.235   6.771   3.461 -0.4504  0.3335  0.7263
14766SOL    HW145370   2.171   6.710   3.497 -0.6469  0.3893  0.4719
14766SOL    HW245371   2.192   6.856   3.466 -0.3597  0.3847  0.6398
14767SOL     OW45372   5.771   8.059   5.915  0.7996  0.1200 -0.4101
14767SOL    HW145373   5.702   8.080   5.852  1.0646  0.5902 -0.5459
14767SOL    HW245374   5.729   8.067   6.001  0.8843  1.1990 -0.4585
14768SOL     OW45375   0.915   1.971   7.033 -0.0762 -0.4445  0.1482
14768SOL    HW145376   0.991   1.913   7.033 -0.1149 -0.4981 -0.7981
14768SOL    HW245377   0.940   2.042   7.092 -0.2209 -1.6481  1.7293
14769SOL     OW45378   7.282   5.069   6.309  0.1263 -0.4083 -0.0222
14769SOL    HW145379   7.315   4.979   6.303  1.0710 -0.1154  0.6430
14769SOL    HW245380   7.276   5.086   6.403 -1.7108 -0.3549 -0.1166
14770SOL     OW45381   1.104   1.261   6.998  0.3817  0.6323 -0.4576
14770SOL    HW145382   1.078   1.324   7.065 -1.0287 -1.6442  1.2922
14770SOL    HW245383   1.197   1.244   7.017 -0.0110 -0.0352  1.0584
14771SOL     OW45384   6.163   6.460   2.748 -0.1646  0.2382 -0.0244
14771SOL    HW145385   6.098   6.408   2.796  0.0572  0.5795  0.6585
14771SOL    HW245386   6.113   6.503   2.679 -0.4633 -0.3853 -0.1991
14772SOL     OW45387   2.710   4.394   3.984  0.0994 -0.6371 -0.3296
14772SOL    HW145388   2.639   4.338   4.013  0.4484 -1.5225 -1.1267
14772SOL    HW245389   2.675   4.440   3.908  0.1867 -0.6317 -0.3668
14773SOL     OW45390   1.396   0.698   0.258 -0.0830  0.6528  0.6898
14773SOL    HW145391   1.488   0.717   0.241  0.1128 -0.4720  0.4062
14773SOL    HW245392   1.367   0.769   0.315  0.6652  1.6150 -0.0914
14774SOL     OW45393   4.973   2.218   2.218  0.1160  0.4940  0.0660
14774SOL    HW145394   4.967   2.254   2.306  0.9577 -0.1234  0.3854
14774SOL    HW245395   4.988   2.124   2.231  1.2938  0.5551 -0.7168
14775SOL     OW45396   7.460   6.151   0.322 -0.0594  0.2984  0.0273
14775SOL    HW145397   7.426   6.182   0.406 -0.7579  0.3628 -0.2747
14775SOL    HW245398   7.464   6.056   0.331  0.3956  0.3410  0.3234
14776SOL     OW45399   6.979   1.165   4.401 -0.1904 -0.5493  0.9208
14776SOL    HW145400   6.902   1.139   4.453  0.0798 -2.6116  0.3942
14776SOL    HW245401   7.001   1.086   4.351  1.6180  0.3502  0.2305
14777SOL     OW45402   5.109   8.104   5.378 -0.2633  0.3553 -0.0419
14777SOL    HW145403   5.017   8.131   5.372  0.8486  4.8117 -1.0541
14777SOL    HW245404   5.128   8.105   5.472 -1.7142 -3.1586  0.4195
14778SOL     OW45405   7.865   3.291   6.077 -0.2207  0.0858 -0.1547
14778SOL    HW145406   7.793   3.290   6.140 -1.1886  2.2718 -1.1261
14778SOL    HW245407   7.860   3.205   6.035 -0.6341 -0.7621  1.5123
14779SOL     OW45408   5.401   4.622   2.596 -0.1299 -0.2696  0.7862
14779SOL    HW145409   5.420   4.696   2.539 -1.0378 -0.7926 -0.2345
14779SOL    HW245410   5.486   4.595   2.630  0.2671  0.9399  0.8094
14780SOL     OW45411   5.592   4.818   7.975 -0.1059 -0.2301  0.1401
14780SOL    HW145412   5.525   4.835   8.042 -1.0849  0.1588 -0.9103
14780SOL    HW245413   5.619   4.906   7.947 -0.4893 -0.3934 -0.7423
14781SOL     OW45414   6.301   5.988   1.405  0.1418 -0.1361 -0.3704
14781SOL    HW145415   6.363   5.923   1.374 -0.7194 -1.3368  0.3683
14781SOL    HW245416   6.356   6.063   1.431  1.1242 -0.4910 -1.3399
14782SOL     OW45417   2.064   5.328   8.039 -0.1263  0.0776  1.1002
14782SOL    HW145418   2.118   5.407   8.041 -2.3334  1.6760  1.2022
14782SOL    HW245419   2.110   5.266   8.094  3.0615  0.2958 -1.0884
14783SOL     OW45420   5.613   2.252   5.949  0.1447 -0.3876 -0.1103
14783SOL    HW145421   5.552   2.213   6.011  0.1237 -2.1485 -1.1856
14783SOL    HW245422   5.620   2.344   5.976 -2.0926 -0.4155  0.6997
14784SOL     OW45423   3.292   0.854   1.821 -0.4660 -0.0811  0.2829
14784SOL    HW145424   3.385   0.874   1.833 -0.1625 -0.7783 -0.7784
14784SOL    HW245425   3.288   0.758   1.822 -1.1609 -0.0535  0.2023
14785SOL     OW45426   1.316   6.478   6.871 -0.3607 -0.1066  0.0185
14785SOL    HW145427   1.361   6.561   6.885  0.7190 -0.7694  0.6416
14785SOL    HW245428   1.333   6.456   6.779  0.7500 -0.4118  0.2774
14786SOL     OW45429   6.983   1.683   5.759 -0.5587 -0.2745 -0.0728
14786SOL    HW145430   6.903   1.692   5.706  0.7350  3.7089 -1.6814
14786SOL    HW245431   7.048   1.647   5.699 -0.4918 -1.2675  0.5652
14787SOL     OW45432   7.181   0.562   6.124 -0.4483 -0.0610  0.0324
14787SOL    HW145433   7.121   0.624   6.166 -0.3447 -0.6327  1.0434
14787SOL    HW245434   7.220   0.612   6.052  0.8809  1.6302  1.8072
14788SOL     OW45435   5.547   6.414   5.555 -0.3888 -0.4147 -0.0251
14788SOL    HW145436   5.521   6.338   5.606  0.4903 -0.7080  0.0096
14788SOL    HW245437   5.607   6.463   5.612 -0.1831 -0.2198 -0.4019
14789SOL     OW45438   5.492   1.465   1.529 -0.6179 -0.0512 -0.5820
14789SOL    HW145439   5.526   1.406   1.462 -0.7109  0.4412 -1.0697
14789SOL    HW245440   5.535   1.549   1.512 -0.9441  0.1823 -0.2763
14790SOL     OW45441   2.187   1.632   0.719  0.3896 -0.2878 -0.3328
14790SOL    HW145442   2.136   1.608   0.796 -0.6364  4.8460  0.9515
14790SOL    HW245443   2.144   1.586   0.646 -2.1337 -0.9543  1.4557
14791SOL     OW45444   5.486   7.071   7.005 -0.3469  0.2225  0.2663
14791SOL    HW145445   5.533   7.046   7.085 -0.8453  0.7477  0.7291
14791SOL    HW245446   5.424   6.999   6.991  0.5323 -0.4508 -0.3182
14792SOL     OW45447   1.196   0.517   3.244  0.2177 -0.1952  0.1318
14792SOL    HW145448   1.223   0.504   3.154  4.0244  1.1973  0.8656
14792SOL    HW245449   1.114   0.565   3.238  0.9106  0.8295 -2.6211
14793SOL     OW45450   3.661   3.714   2.122 -0.0520 -0.0352 -0.3506
14793SOL    HW145451   3.706   3.631   2.111 -1.4141 -0.7070 -1.0552
14793SOL    HW245452   3.710   3.775   2.067  1.4772 -0.1318  0.8480
14794SOL     OW45453   1.358   3.078   5.207  0.5173  0.0801  0.4771
14794SOL    HW145454   1.263   3.066   5.203  0.3664  1.3661 -0.5275
14794SOL    HW245455   1.393   2.989   5.207 -0.6968 -0.4204  1.5278
14795SOL     OW45456   0.628   2.059   1.753 -0.0879 -0.0292  0.8374
14795SOL    HW145457   0.561   2.039   1.819 -1.1960 -0.0996 -0.2754
14795SOL    HW245458   0.593   2.135   1.706  0.0218 -0.8204 -0.5623
14796SOL     OW45459   2.396   6.170   7.304 -0.3609 -0.4672  0.2998
14796SOL    HW145460   2.388   6.083   7.265  0.3790 -0.1907 -0.5219
14796SOL    HW245461   2.374   6.158   7.396 -1.5218 -1.2728 -0.0674
14797SOL     OW45462   1.998   6.486   7.489 -0.0886 -0.6095 -0.0067
14797SOL    HW145463   2.040   6.401   7.480 -1.9647 -1.5413 -0.3297
14797SOL    HW245464   2.051   6.545   7.435  2.0008 -1.2196  1.2186
14798SOL     OW45465   2.460   7.308   4.822 -0.9777  0.1452  0.4045
14798SOL    HW145466   2.386   7.250   4.839 -0.4995 -1.2009 -1.7202
14798SOL    HW245467   2.427   7.395   4.842 -2.6199 -0.5675  0.9988
14799SOL     OW45468   1.617   5.614   3.476 -0.3611 -0.0932 -0.5599
14799SOL    HW145469   1.616   5.518   3.480 -0.0548 -0.0541  0.6172
14799SOL    HW245470   1.614   5.634   3.382 -0.3407 -1.2526 -0.8183
14800SOL     OW45471   3.388   6.483   0.137  0.2962  0.6855 -0.2488
14800SOL    HW145472   3.302   6.525   0.135  0.5613  1.2622  0.2702
14800SOL    HW245473   3.451   6.556   0.130  0.7365  0.2149 -1.4196
14801SOL     OW45474   1.133   2.429   6.214 -0.5514 -0.1031 -0.3518
14801SOL    HW145475   1.062   2.458   6.271 -0.0345  0.8902 -0.1987
14801SOL    HW245476   1.158   2.508   6.165 -1.0088 -0.9203 -1.9944
14802SOL     OW45477   6.693   2.934   1.982 -0.3392  0.1779  0.5724
14802SOL    HW145478   6.609   2.912   1.942 -0.5190  1.1660  0.3653
14802SOL    HW245479   6.677   3.018   2.025  0.4407  0.1826  0.8650
14803SOL     OW45480   3.575   5.818   7.531 -0.0190 -0.3045 -0.2266
14803SOL    HW145481   3.505   5.821   7.466  0.9215  0.1071 -1.2477
14803SOL    HW245482   3.557   5.892   7.589  0.1192  0.4156 -1.0854
14804SOL     OW45483   1.501   3.227   5.499 -0.2198 -0.0589  0.9931
14804SOL    HW145484   1.459   3.143   5.482  0.4448 -0.1811 -0.1527
14804SOL    HW245485   1.433   3.292   5.480  0.2601 -0.2209 -1.7121
14805SOL     OW45486   1.615   5.743   0.508 -0.1357 -0.4245 -0.3805
14805SOL    HW145487   1.578   5.762   0.422  2.5771 -0.8256 -1.7687
14805SOL    HW245488   1.703   5.710   0.488  1.3634  1.3897  2.6369
14806SOL     OW45489   1.724   5.541   1.925 -0.0433  0.2247 -0.3158
14806SOL    HW145490   1.665   5.466   1.932  0.9417 -0.6697 -1.2969
14806SOL    HW245491   1.676   5.605   1.872 -1.0230  0.4593  0.8056
14807SOL     OW45492   1.732   3.357   3.114 -0.0648 -0.6853 -1.1175
14807SOL    HW145493   1.695   3.347   3.202 -0.0709 -1.6778 -1.2271
14807SOL    HW245494   1.787   3.280   3.102  1.8958  0.6172 -1.0634
14808SOL     OW45495   6.714   4.862   3.399 -0.6469  0.3039  0.5012
14808SOL    HW145496   6.747   4.918   3.469 -2.3041  1.8051  0.1292
14808SOL    HW245497   6.646   4.809   3.440 -1.1273  0.6775  0.1877
14809SOL     OW45498   6.675   5.618   1.073 -0.0442 -0.2916 -0.6014
14809SOL    HW145499   6.744   5.669   1.032  0.7785 -1.2138 -0.4119
14809SOL    HW245500   6.695   5.621   1.167 -0.0158 -0.9003 -0.5826
14810SOL     OW45501   3.299   7.367   0.240 -0.0682  0.3455  0.0636
14810SOL    HW145502   3.213   7.408   0.226  0.0117  0.0313 -1.5237
14810SOL    HW245503   3.280   7.286   0.286 -0.6990 -0.0033 -0.7925
14811SOL     OW45504   6.715   6.687   6.882  0.1625 -0.0214 -0.1776
14811SOL    HW145505   6.794   6.741   6.879  0.5130 -0.3817  1.5510
14811SOL    HW245506   6.655   6.736   6.940  0.0214 -0.8653  0.4063
14812SOL     OW45507   5.925   8.115   4.377  0.0474  0.0450 -0.3195
14812SOL    HW145508   5.835   8.091   4.400  0.3285 -2.6400 -1.5717
14812SOL    HW245509   5.916   8.181   4.308 -1.1012 -1.8773 -2.1181
14813SOL     OW45510   0.908   7.487   2.289 -0.0402 -0.2236  0.3672
14813SOL    HW145511   0.887   7.573   2.325  1.6856  0.6635 -0.6435
14813SOL    HW245512   0.904   7.428   2.365 -1.2730  0.6937  1.0647
14814SOL     OW45513   5.233   7.003   3.118  0.4343 -0.1397  0.6089
14814SOL    HW145514   5.237   7.027   3.026 -0.3980 -1.1519  0.2931
14814SOL    HW245515   5.223   7.086   3.165  1.1159  0.4002 -0.1764
14815SOL     OW45516   3.577   6.396   4.934 -0.1190  0.2992  0.3295
14815SOL    HW145517   3.487   6.379   4.963 -0.4749  1.9996  0.3722
14815SOL    HW245518   3.619   6.434   5.011  0.2133  0.7840 -0.0823
14816SOL     OW45519   2.175   4.283   1.910  0.4472 -0.7651 -0.4349
14816SOL    HW145520   2.085   4.253   1.923  0.3141 -1.2068 -2.1761
14816SOL    HW245521   2.222   4.205   1.880  1.5105 -0.6138  0.7588
14817SOL     OW45522   0.372   3.242   5.824 -0.2764  0.0157  0.5621
14817SOL    HW145523   0.338   3.327   5.796 -0.3012 -0.3572 -0.5861
14817SOL    HW245524   0.312   3.178   5.786  0.3781 -0.5569  0.4761
14818SOL     OW45525   2.130   5.116   1.158 -0.1024 -0.1540  0.2507
14818SOL    HW145526   2.133   5.028   1.194 -3.3866 -0.3361  0.4112
14818SOL    HW245527   2.161   5.172   1.228  3.0550 -1.1596 -0.2175
14819SOL     OW45528   7.752   2.897   4.664 -0.0728  0.2184  0.1281
14819SOL    HW145529   7.800   2.909   4.746 -0.0747  0.0981  0.1479
14819SOL    HW245530   7.758   2.803   4.647 -2.2078 -0.1812  1.2911
14820SOL     OW45531   2.911   7.978   5.852  0.0734  0.1925 -0.5079
14820SOL    HW145532   3.004   7.990   5.834 -0.0050 -0.4703 -1.4443
14820SOL    HW245533   2.885   8.058   5.897  0.4960  1.6583 -2.6777
14821SOL     OW45534   4.617   5.518   0.048 -0.2861  0.7121  0.2955
14821SOL    HW145535   4.621   5.604   0.090 -1.6298  1.0558 -0.2260
14821SOL    HW245536   4.530   5.484   0.072  0.6376 -1.0052  1.4135
14822SOL     OW45537   4.950   6.038   4.067  0.4368 -0.5321  0.5421
14822SOL    HW145538   4.939   6.034   4.162 -0.6920 -2.4683  0.3872
14822SOL    HW245539   4.982   6.126   4.050 -0.1419  0.1386  2.6357
14823SOL     OW45540   6.131   6.416   0.878  0.1694 -0.0995  0.0510
14823SOL    HW145541   6.205   6.413   0.939  0.0936  2.0052  0.3315
14823SOL    HW245542   6.163   6.374   0.799  1.3862  0.0341  0.4468
14824SOL     OW45543   6.951   1.802   6.573 -0.3080 -0.5481  0.2369
14824SOL    HW145544   6.946   1.788   6.668  0.2633  0.0175  0.3557
14824SOL    HW245545   6.872   1.761   6.539 -1.6004  1.0472  1.1808
14825SOL     OW45546   3.499   2.810   8.024  0.6005 -0.5952  0.1113
14825SOL    HW145547   3.497   2.779   7.934  0.8616  0.3212 -0.2261
14825SOL    HW245548   3.408   2.800   8.054 -0.0298  1.1706 -1.0206
14826SOL     OW45549   5.166   3.889   3.233  0.0440  0.1042  0.0928
14826SOL    HW145550   5.172   3.822   3.302  1.3196  0.4547  0.3445
14826SOL    HW245551   5.252   3.888   3.191 -0.0786  1.2683 -0.2099
14827SOL     OW45552   1.163   3.959   2.853  0.4540 -0.4595 -1.0050
14827SOL    HW145553   1.212   3.897   2.800  2.7810  0.0478  0.4343
14827SOL    HW245554   1.106   3.905   2.908  3.2500 -1.5202  1.0343
14828SOL     OW45555   2.037   4.609   4.908  0.0379  0.3653  0.5863
14828SOL    HW145556   1.984   4.549   4.856  0.5653  0.5387 -0.1798
14828SOL    HW245557   1.977   4.644   4.974 -0.2693 -0.9934  1.0491
14829SOL     OW45558   5.320   3.486   2.217  0.0055 -0.4112 -0.2333
14829SOL    HW145559   5.318   3.400   2.177  0.7660 -0.4220 -0.2594
14829SOL    HW245560   5.328   3.469   2.311 -2.1652 -0.3931  0.0069
14830SOL     OW45561   0.165   7.550   5.125 -0.3919 -0.5310  0.0948
14830SOL    HW145562   0.187   7.462   5.156 -0.3822 -0.9290 -0.9693
14830SOL    HW245563   0.243   7.577   5.075 -1.1459 -0.7664 -1.2734
14831SOL     OW45564   5.374   1.408   2.014 -0.7309  0.1992  0.0012
14831SOL    HW145565   5.410   1.476   1.957 -1.7639 -0.0229 -0.9568
14831SOL    HW245566   5.327   1.455   2.082 -0.0136  0.4614  0.3174
14832SOL     OW45567   0.796   5.442   7.703  0.3878  0.0244 -0.4633
14832SOL    HW145568   0.764   5.419   7.616 -0.3168 -1.9008  0.2395
14832SOL    HW245569   0.891   5.452   7.692  0.1866  0.7704 -1.6188
14833SOL     OW45570   2.706   7.064   4.535  0.2048 -0.2357  0.1263
14833SOL    HW145571   2.654   7.024   4.466  0.4288  2.5556 -1.8399
14833SOL    HW245572   2.642   7.090   4.601 -0.0856 -2.3488  0.7490
14834SOL     OW45573   7.247   5.225   7.029  0.9067  0.5230 -0.4060
14834SOL    HW145574   7.292   5.300   6.989 -1.3963  1.1356 -2.0631
14834SOL    HW245575   7.263   5.234   7.123  2.0836  2.1161 -0.7203
14835SOL     OW45576   6.079   3.301   6.079  0.3876  0.0095  0.3088
14835SOL    HW145577   6.067   3.211   6.111  2.6195  0.1715  1.8718
14835SOL    HW245578   6.047   3.356   6.150  3.8368  0.3652  1.8189
14836SOL     OW45579   7.775   7.936   5.804 -0.1609 -0.7986  0.3680
14836SOL    HW145580   7.774   8.030   5.825 -0.0508 -0.3778 -1.3594
14836SOL    HW245581   7.805   7.894   5.885  0.7992  0.7462  0.8659
14837SOL     OW45582   5.357   3.476   6.237  0.0374  0.3015 -0.0396
14837SOL    HW145583   5.442   3.501   6.271 -0.8890  1.1240  1.7882
14837SOL    HW245584   5.312   3.558   6.219 -0.7811 -0.1050  0.0835
14838SOL     OW45585   0.275   5.704   5.898 -0.6129 -0.1468 -0.5552
14838SOL    HW145586   0.237   5.630   5.945  1.0890 -0.7221 -0.0028
14838SOL    HW245587   0.369   5.684   5.893 -0.5618  0.2957 -3.4577
14839SOL     OW45588   5.452   3.447   1.191  0.3935 -0.7046  0.2917
14839SOL    HW145589   5.417   3.531   1.163 -0.3356 -1.1796 -0.2753
14839SOL    HW245590   5.507   3.467   1.267  2.4445  0.6395 -1.4389
14840SOL     OW45591   3.082   6.501   1.149  0.3593  0.1791  0.0674
14840SOL    HW145592   3.067   6.578   1.205  0.4207  0.5774 -0.4559
14840SOL    HW245593   3.149   6.451   1.196 -0.3628 -0.0526  0.8911
14841SOL     OW45594   5.695   5.174   4.286 -0.6576 -0.0819 -0.0824
14841SOL    HW145595   5.655   5.234   4.223 -1.3480  0.4880  0.8774
14841SOL    HW245596   5.707   5.226   4.365 -2.5648 -1.5228  1.2426
14842SOL     OW45597   4.286   4.099   5.306  0.2375 -0.0178 -0.2142
14842SOL    HW145598   4.231   4.039   5.356  0.4039 -1.6688 -1.8904
14842SOL    HW245599   4.231   4.127   5.233  1.2572 -0.9145 -1.3726
14843SOL     OW45600   3.792   3.512   1.291  0.2235  0.1661  0.6746
14843SOL    HW145601   3.795   3.421   1.320 -0.4370 -0.7821 -1.9187
14843SOL    HW245602   3.822   3.509   1.200  0.4786  2.6014  0.6175
14844SOL     OW45603   4.046   3.284   7.945  0.4473 -0.1373 -0.6309
14844SOL    HW145604   3.989   3.221   7.988 -0.4761  1.3267  0.3880
14844SOL    HW245605   4.081   3.338   8.016 -0.0456  1.4786 -1.5486
14845SOL     OW45606   0.506   2.308   5.930  0.3176  0.1262  0.0223
14845SOL    HW145607   0.411   2.314   5.944  0.1995 -1.0875 -0.1849
14845SOL    HW245608   0.536   2.399   5.935 -1.2495  0.9095 -2.6726
14846SOL     OW45609   7.289   0.220   2.156 -0.0037  0.0154 -0.0303
14846SOL    HW145610   7.270   0.247   2.066  0.4685  0.9454  0.1424
14846SOL    HW245611   7.385   0.221   2.163 -0.0506  0.6993  0.6991
14847SOL     OW45612   7.241   6.777   7.856  0.0027 -0.7507  0.0470
14847SOL    HW145613   7.202   6.690   7.852  0.9912 -1.2253  0.5936
14847SOL    HW245614   7.196   6.820   7.929  0.1575 -1.1238  0.3651
14848SOL     OW45615   2.489   0.103   4.793 -0.1781 -0.1442  0.0374
14848SOL    HW145616   2.419   0.134   4.736 -2.7830 -1.1883  2.4239
14848SOL    HW245617   2.500   0.011   4.770  1.7687  0.4241 -1.5259
14849SOL     OW45618   3.044   6.508   3.355  0.3431 -0.0487 -0.1216
14849SOL    HW145619   3.024   6.492   3.447  2.6607  0.2109  0.4903
14849SOL    HW245620   2.991   6.585   3.332  0.5891  0.6063  1.3481
14850SOL     OW45621   7.975   5.284   1.957 -0.2842  0.3594 -0.4165
14850SOL    HW145622   7.922   5.210   1.929  0.8680  0.2444 -2.5250
14850SOL    HW245623   8.046   5.246   2.008 -0.6020  0.2093 -0.0806
14851SOL     OW45624   1.049   4.063   7.405 -0.4857 -0.1545  0.3092
14851SOL    HW145625   1.035   4.000   7.476  0.3247 -0.0590  0.5694
14851SOL    HW245626   0.971   4.057   7.351 -0.2392 -1.6964  0.0901
14852SOL     OW45627   1.928   7.647   5.766  0.5690  0.3150 -0.5364
14852SOL    HW145628   1.866   7.669   5.836  1.1196 -1.8216  0.6911
14852SOL    HW245629   2.014   7.669   5.802  0.8523 -0.7348 -0.5661
14853SOL     OW45630   3.257   0.552   5.847 -0.4336  0.6996 -0.5009
14853SOL    HW145631   3.343   0.563   5.809 -0.3850  0.2022 -0.5364
14853SOL    HW245632   3.196   0.570   5.776 -0.3445 -0.2037 -0.8178
14854SOL     OW45633   4.458   4.674   7.428  0.2855 -0.3290 -0.3443
14854SOL    HW145634   4.472   4.591   7.382 -0.8906 -1.3615  1.0674
14854SOL    HW245635   4.511   4.666   7.508  0.4312  0.4340 -0.3585
14855SOL     OW45636   3.749   4.285   5.633 -0.3050  0.3071 -0.0254
14855SOL    HW145637   3.795   4.293   5.717 -0.7832 -0.3609  0.3115
14855SOL    HW245638   3.709   4.371   5.620  0.8952  0.8508 -0.2506
14856SOL     OW45639   5.642   6.949   4.869  0.3633 -0.7321  0.5466
14856SOL    HW145640   5.572   6.893   4.902 -1.9435  1.4268 -0.3752
14856SOL    HW245641   5.652   6.924   4.777  0.9837 -1.1436  0.7137
14857SOL     OW45642   7.213   2.350   4.695  0.2323 -0.7272  0.4211
14857SOL    HW145643   7.228   2.410   4.768  1.8970  0.4385 -0.8068
14857SOL    HW245644   7.148   2.288   4.728 -1.7568  1.8496  1.6744
14858SOL     OW45645   5.682   8.107   5.149  0.4187  0.4618 -0.2216
14858SOL    HW145646   5.632   8.187   5.132 -0.2610  0.5607  1.8817
14858SOL    HW245647   5.714   8.118   5.238  2.4637 -0.5436 -0.7786
14859SOL     OW45648   1.342   2.248   2.517  0.3318  0.6335 -0.0057
14859SOL    HW145649   1.305   2.330   2.551  1.1663  0.7687  0.5967
14859SOL    HW245650   1.267   2.203   2.478 -0.7996  0.2717  2.4179
14860SOL     OW45651   3.004   4.667   1.799 -0.0728 -0.1278 -0.5628
14860SOL    HW145652   3.067   4.625   1.741  0.5282  1.2440 -0.9298
14860SOL    HW245653   3.012   4.760   1.781 -2.2532  0.0960 -0.6511
14861SOL     OW45654   3.529   6.539   5.792 -0.1459  0.1740 -0.1480
14861SOL    HW145655   3.501   6.474   5.857 -0.3231 -0.5549 -0.9499
14861SOL    HW245656   3.448   6.585   5.768 -0.0372  0.6311  0.3408
14862SOL     OW45657   4.306   2.889   5.869  0.2586  0.1378  0.0598
14862SOL    HW145658   4.293   2.907   5.963  0.6491  0.3215  0.0811
14862SOL    HW245659   4.362   2.961   5.839  0.6624 -0.2760 -0.1762
14863SOL     OW45660   3.808   5.574   5.308 -0.5000 -0.0547  0.0856
14863SOL    HW145661   3.813   5.670   5.311  0.5447 -0.1238  2.0852
14863SOL    HW245662   3.756   5.550   5.385  1.6470 -1.1752  1.2802
14864SOL     OW45663   4.302   0.654   0.964 -0.6047 -0.0547  0.3172
14864SOL    HW145664   4.390   0.663   1.000 -0.9259  0.5501  0.9806
14864SOL    HW245665   4.290   0.733   0.911  0.4380 -1.6244 -2.4879
14865SOL     OW45666   7.468   7.488   6.017  0.4917  0.2079  0.0693
14865SOL    HW145667   7.376   7.470   5.995  1.5262 -1.8814 -3.4956
14865SOL    HW245668   7.496   7.410   6.064  0.8903 -0.1387 -0.7125
14866SOL     OW45669   3.993   6.404   0.249  0.3333 -0.6890  0.1721
14866SOL    HW145670   4.029   6.366   0.330  0.4873  0.2346  0.5570
14866SOL    HW245671   4.063   6.462   0.218 -1.0242  1.7563  1.3560
14867SOL     OW45672   1.625   7.436   1.025  0.1829 -0.2214  0.8079
14867SOL    HW145673   1.669   7.354   1.002 -0.5966 -0.5047  0.2779
14867SOL    HW245674   1.691   7.487   1.072  1.1997 -0.4638 -0.3264
14868SOL     OW45675   2.595   5.482   1.896  0.0242 -0.1755 -0.3165
14868SOL    HW145676   2.593   5.489   1.800 -4.1559 -1.7341 -0.5656
14868SOL    HW245677   2.591   5.388   1.913 -1.3245  0.1222  1.2869
14869SOL     OW45678   1.466   2.912   7.000  0.4998 -0.1612  0.3377
14869SOL    HW145679   1.460   2.999   7.041 -0.7061 -0.5863  1.1167
14869SOL    HW245680   1.466   2.931   6.906 -0.4197  0.6679  0.4845
14870SOL     OW45681   1.516   5.400   5.384 -1.0782  0.3543  0.0918
14870SOL    HW145682   1.525   5.397   5.289  1.8410 -0.4100  0.3104
14870SOL    HW245683   1.468   5.482   5.401 -0.2322  1.3388 -1.9477
14871SOL     OW45684   7.356   4.581   7.794 -0.4610 -0.3000 -0.3457
14871SOL    HW145685   7.300   4.512   7.829 -0.2578 -0.2229  0.1337
14871SOL    HW245686   7.312   4.608   7.713 -0.3397 -1.2441 -0.7412
14872SOL     OW45687   7.541   4.592   1.398  0.8379 -0.4111  0.1494
14872SOL    HW145688   7.552   4.590   1.303 -0.0812 -0.2961  0.0342
14872SOL    HW245689   7.462   4.645   1.412  1.0228 -0.3448  0.9799
14873SOL     OW45690   0.599   1.947   4.058 -0.9181  0.3560 -0.4417
14873SOL    HW145691   0.559   1.883   4.117 -0.1514  1.6339  1.6032
14873SOL    HW245692   0.690   1.953   4.087 -1.0915  2.6985 -0.1411
14874SOL     OW45693   5.548   3.459   4.056  0.2561 -0.6257 -0.1419
14874SOL    HW145694   5.479   3.501   4.005  0.9693 -0.6405 -1.1429
14874SOL    HW245695   5.619   3.444   3.994  0.4932 -2.2210  0.4562
14875SOL     OW45696   1.443   0.469   3.332 -0.0176  0.5326 -0.0481
14875SOL    HW145697   1.473   0.392   3.283  0.6920  0.3942  0.5933
14875SOL    HW245698   1.350   0.477   3.309 -1.1065 -2.5851  2.4697
14876SOL     OW45699   4.497   1.317   1.549 -0.4372  0.1870  0.1230
14876SOL    HW145700   4.506   1.298   1.456  1.8129 -1.4958  0.6105
14876SOL    HW245701   4.586   1.332   1.580 -0.9877 -0.4606  2.2204
14877SOL     OW45702   4.378   5.476   6.571  0.1513 -0.2548  0.3426
14877SOL    HW145703   4.402   5.447   6.484  0.2463  0.5315  0.0994
14877SOL    HW245704   4.335   5.400   6.611  0.1000 -0.6144 -0.3825
14878SOL     OW45705   7.663   1.136   0.354  0.2232  0.2118  0.1283
14878SOL    HW145706   7.690   1.122   0.445  0.5212 -0.3202 -0.0368
14878SOL    HW245707   7.600   1.066   0.337 -0.7730  1.0416  0.2961
14879SOL     OW45708   5.905   2.369   2.984  0.1759  0.4494  0.4360
14879SOL    HW145709   5.863   2.434   2.928  0.0180  0.3018  0.3810
14879SOL    HW245710   5.887   2.398   3.073 -0.7405 -0.0423  0.4260
14880SOL     OW45711   8.058   6.933   0.702  0.0630 -0.1319  0.0819
14880SOL    HW145712   8.101   6.847   0.703  0.2813 -0.0532  2.1729
14880SOL    HW245713   7.976   6.919   0.654  1.8511 -0.5027 -3.1970
14881SOL     OW45714   4.251   7.896   3.378 -0.1815  0.1059 -0.2297
14881SOL    HW145715   4.306   7.910   3.301  2.4181 -1.9919  1.0529
14881SOL    HW245716   4.279   7.964   3.440 -0.4035  0.2001 -0.2326
14882SOL     OW45717   1.429   3.084   0.764  0.3213  0.1257  0.3861
14882SOL    HW145718   1.413   3.174   0.735 -0.2208  0.0316  0.3720
14882SOL    HW245719   1.524   3.076   0.767  0.3732  0.8114  0.7376
14883SOL     OW45720   5.555   7.681   2.176 -0.1930  0.3528  0.1584
14883SOL    HW145721   5.461   7.681   2.193 -0.5335 -1.2472 -1.4394
14883SOL    HW245722   5.564   7.709   2.085  0.6035 -1.9655 -0.5747
14884SOL     OW45723   7.948   6.473   4.571  0.6417 -0.2457 -0.9683
14884SOL    HW145724   7.886   6.509   4.634  2.1297 -0.4066  0.6493
14884SOL    HW245725   7.945   6.378   4.585  0.1384 -0.4051 -1.9953
14885SOL     OW45726   1.667   1.668   5.155 -0.5463  0.6415 -0.5405
14885SOL    HW145727   1.720   1.709   5.224 -1.5381 -0.2850  0.8322
14885SOL    HW245728   1.721   1.673   5.077  0.5564  1.8926  0.2609
14886SOL     OW45729   4.279   0.152   2.480  0.5408 -0.0630 -0.4848
14886SOL    HW145730   4.358   0.159   2.426  0.3382 -0.3617 -0.8178
14886SOL    HW245731   4.299   0.205   2.558  0.4817  1.1300 -1.2468
14887SOL     OW45732   6.700   0.776   2.597  0.2700 -0.7557 -0.3486
14887SOL    HW145733   6.623   0.823   2.628  0.2837 -0.1773 -1.1788
14887SOL    HW245734   6.690   0.687   2.633  0.3230 -0.1137  1.3593
14888SOL     OW45735   8.081   4.940   3.022 -0.2500 -0.3888 -0.1916
14888SOL    HW145736   8.139   5.015   3.008  0.8720 -1.2120 -0.1429
14888SOL    HW245737   7.997   4.978   3.049  0.1995  0.8473 -0.5006
14889SOL     OW45738   5.298   7.560   3.553 -0.3178  0.0450  0.1951
14889SOL    HW145739   5.338   7.511   3.625 -3.0849 -0.2145  1.6912
14889SOL    HW245740   5.221   7.509   3.529 -0.7404  1.3460 -1.3756
14890SOL     OW45741   5.357   5.072   1.450  0.1299  0.4274 -0.0422
14890SOL    HW145742   5.358   5.046   1.358  0.1947  3.3130 -0.9690
14890SOL    HW245743   5.264   5.090   1.468  0.0034 -0.9080  0.7492
14891SOL     OW45744   7.367   7.204   3.369  0.3542 -0.7233 -0.0465
14891SOL    HW145745   7.366   7.297   3.390 -3.4812 -0.8532  1.0575
14891SOL    HW245746   7.424   7.198   3.292  0.2179  2.6221 -0.5673
14892SOL     OW45747   5.593   0.314   2.342  0.3515 -0.2111 -0.4213
14892SOL    HW145748   5.620   0.358   2.262  1.9425  2.1522  1.3030
14892SOL    HW245749   5.498   0.312   2.337  0.3817 -2.5067 -3.4757
14893SOL     OW45750   2.078   5.044   4.519  0.6471 -0.4547  0.2584
14893SOL    HW145751   2.072   4.950   4.504  0.7470 -0.5152  0.5824
14893SOL    HW245752   2.011   5.082   4.462 -1.6478 -0.9571  2.4295
14894SOL     OW45753   3.627   6.952   6.224 -0.3183  0.1862  0.2008
14894SOL    HW145754   3.566   6.921   6.157  0.9697 -1.5444 -0.2183
14894SOL    HW245755   3.650   6.874   6.274  0.9030  0.9613  0.8963
14895SOL     OW45756   6.630   5.349   5.239  0.1642  0.0713  0.5753
14895SOL    HW145757   6.558   5.357   5.302  0.5942  1.2636  0.9431
14895SOL    HW245758   6.703   5.395   5.281  0.1579  1.8403 -1.2438
14896SOL     OW45759   6.871   7.229   5.869  0.3930 -0.3767  0.3046
14896SOL    HW145760   6.852   7.158   5.807 -0.4028  0.8903 -0.9634
14896SOL    HW245761   6.953   7.268   5.838  1.2701 -1.2059  1.4759
14897SOL     OW45762   1.732   3.275   0.687 -0.1290  0.2909 -0.0507
14897SOL    HW145763   1.713   3.364   0.717 -0.2838  0.3544 -0.3346
14897SOL    HW245764   1.715   3.278   0.592 -0.5499 -0.1529  0.0111
14898SOL     OW45765   4.036   3.792   7.209  0.2037 -0.0171  0.1291
14898SOL    HW145766   4.025   3.860   7.276 -0.9091  0.4646 -0.5106
14898SOL    HW245767   4.029   3.839   7.126 -0.7711 -0.9235 -0.3255
14899SOL     OW45768   2.022   1.209   3.301  0.1338  0.4921  0.0256
14899SOL    HW145769   1.966   1.270   3.349  1.8289  2.0647  0.0800
14899SOL    HW245770   1.960   1.149   3.259 -1.5759  1.8637  0.4543
14900SOL     OW45771   1.396   1.186   1.842  0.3898  0.1353  0.2136
14900SOL    HW145772   1.378   1.212   1.752  1.4568 -3.3211 -1.1730
14900SOL    HW245773   1.491   1.181   1.847  0.3292 -2.4997  0.4818
14901SOL     OW45774   3.044   4.505   0.919  0.3546 -0.1410 -0.1963
14901SOL    HW145775   3.026   4.543   0.833  2.1865 -1.2368 -1.1375
14901SOL    HW245776   2.965   4.456   0.940  0.0598 -0.2718 -1.4928
14902SOL     OW45777   0.148   3.869   5.168  0.7793 -0.0017 -0.0065
14902SOL    HW145778   0.100   3.922   5.104  2.7681  1.2764 -0.5103
14902SOL    HW245779   0.178   3.793   5.119 -1.0947 -1.1160  0.4465
14903SOL     OW45780   7.568   5.443   1.027  0.8084 -0.0978 -0.0559
14903SOL    HW145781   7.616   5.366   1.057 -0.9470 -2.0830 -1.9210
14903SOL    HW245782   7.554   5.496   1.105  3.5660 -0.7896  0.9891
14904SOL     OW45783   3.760   3.837   1.205 -0.6142  0.3044  0.0606
14904SOL    HW145784   3.715   3.919   1.226  0.4229  0.8287  0.2792
14904SOL    HW245785   3.729   3.776   1.271 -1.2502  0.5694  0.0139
14905SOL     OW45786   2.855   0.865   1.629 -0.0807 -0.2497 -0.2142
14905SOL    HW145787   2.848   0.805   1.703 -1.0107 -0.7058 -0.6529
14905SOL    HW245788   2.785   0.928   1.642 -0.3800 -0.4486 -0.7959
14906SOL     OW45789   5.222   6.488   3.989  0.2641  0.2664  0.2905
14906SOL    HW145790   5.287   6.441   4.041  0.9925  0.2426 -0.6064
14906SOL    HW245791   5.263   6.495   3.902 -0.4731  1.2309  0.0170
14907SOL     OW45792   3.668   8.144   3.673  0.0742 -0.1281  0.0260
14907SOL    HW145793   3.694   8.087   3.601  0.8386  0.3723 -0.1121
14907SOL    HW245794   3.743   8.203   3.685 -1.1520  1.6129 -0.5990
14908SOL     OW45795   7.666   8.079   3.862  0.0115 -0.2798  0.1686
14908SOL    HW145796   7.711   8.000   3.833 -1.2849 -0.4914 -1.4436
14908SOL    HW245797   7.731   8.148   3.856  0.1746 -0.5791 -2.0498
14909SOL     OW45798   4.542   5.913   1.426 -0.7159 -0.2170  0.4313
14909SOL    HW145799   4.504   5.937   1.511 -0.8568  0.0871  0.2832
14909SOL    HW245800   4.476   5.938   1.362  0.5159  2.2913 -0.0198
14910SOL     OW45801   5.708   2.128   5.719  0.1927  0.3797  0.2862
14910SOL    HW145802   5.655   2.182   5.778  0.9287  0.8175  0.5730
14910SOL    HW245803   5.689   2.038   5.745 -2.3811  0.3599 -1.3279
14911SOL     OW45804   1.922   4.843   4.069  0.1773 -0.0411 -0.1840
14911SOL    HW145805   1.836   4.886   4.062  0.7069  1.3164  0.9665
14911SOL    HW245806   1.918   4.797   4.153  0.7486  0.4702  0.1276
14912SOL     OW45807   2.053   6.000   2.915 -0.2352  0.2447 -0.3645
14912SOL    HW145808   2.133   5.948   2.909 -0.9332 -1.1693  1.4379
14912SOL    HW245809   2.030   6.019   2.825  1.3498 -0.5586 -0.9790
14913SOL     OW45810   2.022   2.786   7.034  0.4853 -0.5577  0.3041
14913SOL    HW145811   2.013   2.880   7.020 -0.1989 -0.6080  0.3995
14913SOL    HW245812   2.022   2.748   6.946 -0.7517 -0.6009  0.3150
14914SOL     OW45813   6.346   7.371   4.377 -0.0648 -0.2606  0.0496
14914SOL    HW145814   6.396   7.425   4.438 -1.0599 -0.0105  0.6806
14914SOL    HW245815   6.381   7.393   4.291  0.3660  0.4943  0.4071
14915SOL     OW45816   1.420   4.508   2.647  0.1046 -0.0228 -0.3927
14915SOL    HW145817   1.465   4.462   2.575  0.6176  1.1103 -0.8129
14915SOL    HW245818   1.411   4.441   2.715  1.2133 -0.6514 -0.8234
14916SOL     OW45819   1.779   3.969   2.119  0.4362  0.0199 -0.2485
14916SOL    HW145820   1.709   3.922   2.075 -1.8714  1.4175  1.6560
14916SOL    HW245821   1.797   4.045   2.063 -0.7422  0.4785 -0.0478
14917SOL     OW45822   7.987   7.297   6.727 -0.0832 -0.4058  0.0436
14917SOL    HW145823   7.931   7.222   6.748  1.3319 -1.2515  1.0011
14917SOL    HW245824   8.015   7.282   6.637  0.2353 -1.0755  0.2482
14918SOL     OW45825   2.960   5.762   5.452 -0.3059  0.0093 -0.1094
14918SOL    HW145826   2.990   5.851   5.471  1.2792 -0.6413  0.6422
14918SOL    HW245827   2.911   5.736   5.530  0.5071 -0.2899  0.3124
14919SOL     OW45828   6.843   0.186   7.257 -0.5280 -0.0851 -0.0799
14919SOL    HW145829   6.915   0.184   7.320  0.0362  1.5961 -0.5916
14919SOL    HW245830   6.879   0.144   7.179 -0.4741 -0.2140  0.0141
14920SOL     OW45831   0.834   0.484   5.765  0.5287  0.6557  0.1921
14920SOL    HW145832   0.796   0.540   5.833 -0.2025 -0.6075  0.8753
14920SOL    HW245833   0.893   0.541   5.717 -1.5482  2.5140 -0.3382
14921SOL     OW45834   2.693   0.894   6.348  0.0902  0.1055 -0.2530
14921SOL    HW145835   2.760   0.828   6.328 -0.3044 -0.5284  0.4703
14921SOL    HW245836   2.741   0.977   6.347  0.7016 -0.2424 -0.6538
14922SOL     OW45837   5.310   1.977   6.906 -0.2693 -0.9630  0.4468
14922SOL    HW145838   5.224   1.980   6.949 -0.2248 -0.6087  0.5124
14922SOL    HW245839   5.289   1.983   6.812 -0.1931  2.1920  0.5421
14923SOL     OW45840   1.122   5.062   3.314  0.5306 -0.3049 -0.0019
14923SOL    HW145841   1.199   5.040   3.261 -1.4099  0.4839 -3.3988
14923SOL    HW245842   1.051   5.071   3.252 -1.9201  1.1556  2.7378
14924SOL     OW45843   4.444   6.687   4.723  0.6755  0.0548  0.1900
14924SOL    HW145844   4.537   6.691   4.700  0.4791 -0.5143 -0.7367
14924SOL    HW245845   4.399   6.730   4.650  0.1428 -0.4432  0.2203
14925SOL     OW45846   3.014   2.292   2.240 -0.5476 -0.0895 -0.5395
14925SOL    HW145847   2.938   2.344   2.216  0.7849  1.8671 -0.7216
14925SOL    HW245848   3.012   2.287   2.335 -2.4299 -2.5666 -0.6034
14926SOL     OW45849   3.687   1.312   7.034  0.3025  0.0055 -0.2813
14926SOL    HW145850   3.600   1.320   7.072 -0.4402 -1.8883 -1.4711
14926SOL    HW245851   3.723   1.231   7.070  0.1848 -1.0179 -2.3600
14927SOL     OW45852   0.476   4.617   3.409  0.2385 -0.4843  0.0801
14927SOL    HW145853   0.530   4.671   3.467  1.8111  0.0730 -1.7815
14927SOL    HW245854   0.386   4.645   3.426  0.7614  0.4831  1.3866
14928SOL     OW45855   4.464   7.314   5.120  0.2837  0.2686 -0.4381
14928SOL    HW145856   4.413   7.390   5.149 -0.1921  0.8959 -2.7255
14928SOL    HW245857   4.413   7.238   5.149 -0.5248  0.8487 -0.3125
14929SOL     OW45858   4.823   1.299   8.039 -0.0124  0.0210 -0.2783
14929SOL    HW145859   4.916   1.305   8.015 -0.0027 -1.5250 -0.7084
14929SOL    HW245860   4.823   1.259   8.126 -0.2475  1.3626  0.3728
14930SOL     OW45861   1.990   3.388   7.786 -0.4542  0.4677 -0.3351
14930SOL    HW145862   1.895   3.383   7.795 -0.5966  2.8692  0.1786
14930SOL    HW245863   2.023   3.396   7.876  0.1344  0.6961 -0.5607
14931SOL     OW45864   6.009   4.312   3.209 -0.4046  0.1515  0.5017
14931SOL    HW145865   5.958   4.367   3.269  0.1130  0.6059  0.5332
14931SOL    HW245866   6.067   4.262   3.266  0.2805  0.7830  0.3727
14932SOL     OW45867   6.216   3.381   4.638 -0.4523 -0.1551  0.6142
14932SOL    HW145868   6.186   3.399   4.727  1.3780 -0.4930  1.3580
14932SOL    HW245869   6.210   3.466   4.594  2.5168  1.1199  2.3484
14933SOL     OW45870   2.158   6.623   0.356  0.3540 -0.5025 -0.2949
14933SOL    HW145871   2.239   6.619   0.305  0.5011  0.7405 -0.1858
14933SOL    HW245872   2.164   6.548   0.416  1.6060 -0.2235 -0.0317
14934SOL     OW45873   2.035   6.083   3.191  0.0568  0.1728 -0.7271
14934SOL    HW145874   2.011   6.000   3.233  2.9225 -0.2579  0.3504
14934SOL    HW245875   2.051   6.060   3.100 -1.8352  0.1601 -1.0817
14935SOL     OW45876   4.260   2.084   1.826 -0.2863 -0.1567 -0.5755
14935SOL    HW145877   4.293   2.000   1.795 -0.3783 -0.5547  0.3774
14935SOL    HW245878   4.329   2.147   1.804 -0.7108 -0.2625 -2.3344
14936SOL     OW45879   2.657   1.736   5.555  0.9347  0.0103 -0.3921
14936SOL    HW145880   2.674   1.646   5.582 -1.6230  0.1112  2.0947
14936SOL    HW245881   2.641   1.783   5.637  0.4631  2.3343 -1.7230
14937SOL     OW45882   3.921   0.103   2.702  0.1113 -0.3639  0.3394
14937SOL    HW145883   3.998   0.101   2.758 -0.4346  2.3219  1.3459
14937SOL    HW245884   3.847   0.101   2.763 -0.5073  2.1558 -0.1912
14938SOL     OW45885   5.567   6.433   1.028 -0.0286 -0.7013 -0.4985
14938SOL    HW145886   5.631   6.441   0.958 -0.0582 -0.5626 -0.5092
14938SOL    HW245887   5.482   6.437   0.984 -0.0500 -0.4277 -0.4355
14939SOL     OW45888   5.392   6.289   2.102 -0.7633  0.1683 -0.6264
14939SOL    HW145889   5.368   6.202   2.072 -1.3703  0.0548  0.1479
14939SOL    HW245890   5.337   6.348   2.052 -0.4636  0.1039 -1.0380
14940SOL     OW45891   4.070   6.357   4.489 -0.5131  0.5375  0.0802
14940SOL    HW145892   4.024   6.322   4.565 -1.1317 -0.5138 -0.7385
14940SOL    HW245893   4.058   6.290   4.421  1.4196  0.6941 -0.4638
14941SOL     OW45894   1.763   1.480   5.786 -0.1209 -0.5236 -0.4584
14941SOL    HW145895   1.797   1.537   5.854 -1.2731  0.9180 -1.0281
14941SOL    HW245896   1.836   1.423   5.763  1.5384  1.6355 -0.8327
14942SOL     OW45897   6.718   2.729   2.442 -0.5474 -0.1605  0.1022
14942SOL    HW145898   6.629   2.763   2.442  0.4223  2.6111  0.6992
14942SOL    HW245899   6.724   2.676   2.522 -1.2865  0.7739  0.7982
14943SOL     OW45900   3.470   5.155   4.651 -0.0686  0.2030  0.0523
14943SOL    HW145901   3.401   5.133   4.587 -0.9617  0.5748  0.8665
14943SOL    HW245902   3.549   5.113   4.615 -0.2921  1.2834 -1.8387
14944SOL     OW45903   5.148   4.922   4.949 -0.2491  0.0235 -0.3633
14944SOL    HW145904   5.070   4.977   4.960  0.9873  1.6376  0.9892
14944SOL    HW245905   5.209   4.954   5.016  1.7124 -0.9397 -1.5978
14945SOL     OW45906   3.994   0.670   7.913  0.0419  0.1598 -0.0950
14945SOL    HW145907   4.032   0.696   7.997 -0.8914  1.5118 -0.0657
14945SOL    HW245908   3.991   0.574   7.917  2.1082  0.0695  0.4552
14946SOL     OW45909   3.383   5.897   1.953  0.0852 -0.0961 -0.2853
14946SOL    HW145910   3.329   5.969   1.986  0.3003 -0.3343  0.6150
14946SOL    HW245911   3.462   5.939   1.920 -0.8623  0.3172 -2.1640
14947SOL     OW45912   2.548   1.754   6.366 -0.2178 -0.5502 -0.1745
14947SOL    HW145913   2.474   1.781   6.311  0.0618 -0.0803 -0.3316
14947SOL    HW245914   2.544   1.659   6.367 -0.7975 -0.5283 -0.2199
14948SOL     OW45915   6.724   3.387   6.345  0.1699  0.0881  0.1603
14948SOL    HW145916   6.680   3.330   6.408 -0.2986  1.6759  1.3241
14948SOL    HW245917   6.714   3.341   6.261  1.5334 -2.4813  1.2907
14949SOL     OW45918   2.728   0.548   0.778 -0.1414 -0.0529 -0.6395
14949SOL    HW145919   2.790   0.478   0.759 -0.4157 -0.1555 -1.1672
14949SOL    HW245920   2.709   0.538   0.871  0.2283 -0.3486 -0.5915
14950SOL     OW45921   4.444   2.173   2.079  0.2057 -0.3197  0.4987
14950SOL    HW145922   4.454   2.108   2.149 -0.4921 -0.8652  0.1095
14950SOL    HW245923   4.349   2.190   2.076  0.3718  0.7208  0.5903
14951SOL     OW45924   1.843   2.276   0.099 -0.2860  0.1168 -0.2620
14951SOL    HW145925   1.772   2.308   0.043 -0.2244 -0.7316 -0.8402
14951SOL    HW245926   1.875   2.197   0.055  1.1044  0.5472 -0.0888
14952SOL     OW45927   6.366   0.627   4.929  0.5799 -0.1827 -0.2807
14952SOL    HW145928   6.282   0.648   4.969  0.8755  1.8264 -0.6470
14952SOL    HW245929   6.343   0.575   4.852 -0.2320 -0.5555  0.1928
14953SOL     OW45930   2.638   2.967   5.122 -0.8476  0.0056 -0.1955
14953SOL    HW145931   2.572   2.966   5.191 -0.7671  1.2529 -0.0772
14953SOL    HW245932   2.628   2.882   5.078 -1.7012 -0.3151  0.5804
14954SOL     OW45933   5.010   5.464   1.397 -0.1041 -0.2856  0.7716
14954SOL    HW145934   5.080   5.403   1.373  1.0771  1.0728  0.5815
14954SOL    HW245935   5.025   5.540   1.340 -1.4790  0.2158  1.0473
14955SOL     OW45936   3.982   7.384   2.484 -0.1327 -0.3317 -0.0462
14955SOL    HW145937   3.906   7.442   2.477  0.5728  0.7197  0.8545
14955SOL    HW245938   3.945   7.296   2.472 -1.4896  0.1597  0.3039
14956SOL     OW45939   5.618   3.888   6.097 -0.0079 -0.2819  0.2919
14956SOL    HW145940   5.633   3.983   6.097  2.9404 -0.6512 -0.9602
14956SOL    HW245941   5.644   3.860   6.185 -0.6013  0.0179  0.5687
14957SOL     OW45942   7.398   5.239   1.811 -0.6184  0.3592 -0.1813
14957SOL    HW145943   7.358   5.300   1.872 -1.2287 -0.9196  0.7305
14957SOL    HW245944   7.480   5.214   1.852  0.0974  1.2717 -1.0075
14958SOL     OW45945   1.942   4.790   2.889  1.2095 -0.0654 -0.2075
14958SOL    HW145946   1.868   4.744   2.929  0.0095  3.1804  1.6608
14958SOL    HW245947   1.978   4.727   2.826 -2.4057 -2.2315 -0.3798
14959SOL     OW45948   4.491   4.138   6.895 -0.2947 -0.5445  0.1885
14959SOL    HW145949   4.474   4.098   6.810 -2.3345  0.1839  0.2106
14959SOL    HW245950   4.506   4.064   6.953 -0.7405 -1.1395 -0.4302
14960SOL     OW45951   1.833   2.910   2.571  0.8650 -0.2140  0.2900
14960SOL    HW145952   1.857   2.876   2.657  0.9397 -1.3964 -0.1760
14960SOL    HW245953   1.740   2.933   2.579  0.5761 -1.3702  0.3818
14961SOL     OW45954   1.849   2.271   7.329  0.2478 -0.0536 -0.1928
14961SOL    HW145955   1.768   2.305   7.368  0.3026 -1.3361  1.1148
14961SOL    HW245956   1.820   2.195   7.278  0.6930 -0.8777  0.7694
14962SOL     OW45957   4.574   5.535   4.786 -0.9426  0.1980 -0.4431
14962SOL    HW145958   4.587   5.442   4.766 -0.1588  0.1279  0.3196
14962SOL    HW245959   4.605   5.582   4.709  3.9786  0.0494  1.0744
14963SOL     OW45960   3.866   1.793   4.447  0.2965  0.4035  0.0966
14963SOL    HW145961   3.854   1.777   4.541  2.0898 -1.2912  0.1018
14963SOL    HW245962   3.793   1.747   4.406  0.4220 -0.2794  0.6092
14964SOL     OW45963   1.721   2.107   2.043  0.9560 -0.1334  0.0110
14964SOL    HW145964   1.748   2.154   1.964 -0.6350  0.5602 -0.1589
14964SOL    HW245965   1.783   2.136   2.110  2.4511 -0.8804 -0.9758
14965SOL     OW45966   7.055   1.319   0.430 -0.4987  0.3491  0.1518
14965SOL    HW145967   7.065   1.300   0.524  2.5581 -2.1272 -0.5029
14965SOL    HW245968   7.015   1.240   0.394  0.6717  0.2064 -0.9145
14966SOL     OW45969   6.836   6.870   3.851  0.3638 -0.2090 -0.1825
14966SOL    HW145970   6.748   6.894   3.878 -0.1653 -1.9000 -0.3248
14966SOL    HW245971   6.829   6.781   3.819  2.0402 -0.2115 -0.6777
14967SOL     OW45972   3.059   1.855   2.268 -0.1229 -0.7236  0.3523
14967SOL    HW145973   3.152   1.848   2.246 -0.4600 -1.4877 -0.9350
14967SOL    HW245974   3.053   1.820   2.357  1.2549  2.2410  1.7657
14968SOL     OW45975   3.754   3.996   6.228 -0.4342 -0.4002 -0.1095
14968SOL    HW145976   3.836   4.044   6.214 -1.5813  1.0117 -2.6822
14968SOL    HW245977   3.772   3.908   6.194  0.1792 -0.2442 -0.2042
14969SOL     OW45978   4.231   3.352   4.295  0.1606 -0.0136  0.2393
14969SOL    HW145979   4.196   3.276   4.249 -1.0849  0.5533  0.1892
14969SOL    HW245980   4.242   3.322   4.386  3.4330 -1.3902 -0.4811
14970SOL     OW45981   2.552   7.702   6.878  0.2397 -0.5221 -0.8429
14970SOL    HW145982   2.478   7.645   6.897  1.5611 -2.3286 -0.8310
14970SOL    HW245983   2.569   7.748   6.961  0.2400 -1.4259 -0.3350
14971SOL     OW45984   7.661   2.122   4.678 -0.3434  0.5232  0.1416
14971SOL    HW145985   7.583   2.154   4.724 -1.3829 -0.7185 -0.7117
14971SOL    HW245986   7.632   2.042   4.634  1.8569 -0.9462  1.1981
14972SOL     OW45987   3.716   5.179   6.639  0.1147  0.1683 -0.0799
14972SOL    HW145988   3.749   5.266   6.616 -2.0880  0.7890 -1.2440
14972SOL    HW245989   3.745   5.123   6.566 -0.7838  0.5691 -0.7699
14973SOL     OW45990   2.228   2.127   7.692  0.1508 -0.2254  0.1633
14973SOL    HW145991   2.241   2.157   7.602  0.2454 -1.8101 -0.3816
14973SOL    HW245992   2.139   2.092   7.692 -0.1053  0.3914  0.8964
14974SOL     OW45993   3.619   7.399   6.491  0.1426  0.4613  0.0359
14974SOL    HW145994   3.550   7.462   6.470 -1.5373  0.1199  3.6686
14974SOL    HW245995   3.584   7.314   6.463  0.9961  0.6876 -1.8815
14975SOL     OW45996   1.585   3.640   6.908  0.6917 -0.8247  0.1159
14975SOL    HW145997   1.494   3.669   6.899  0.3982 -1.3134  1.3152
14975SOL    HW245998   1.629   3.675   6.831 -0.4690 -0.4091 -0.3810
14976SOL     OW45999   7.152   0.022   4.672  0.3772  0.0189  0.0547
14976SOL    HW146000   7.228   0.079   4.672  0.4190 -0.0341  0.3972
14976SOL    HW246001   7.180  -0.056   4.720 -0.2315  0.4644  1.1824
14977SOL     OW46002   0.579   5.386   0.374 -0.3446  0.0611  0.0934
14977SOL    HW146003   0.559   5.473   0.338  0.2991  0.1566 -0.0448
14977SOL    HW246004   0.573   5.328   0.298  1.4984  0.3329 -0.3122
14978SOL     OW46005   7.715   6.417   6.811  0.1880  0.3138 -0.2313
14978SOL    HW146006   7.756   6.386   6.891  0.0290 -0.9204 -0.6172
14978SOL    HW246007   7.629   6.449   6.838  0.0462 -0.3109  0.0552
14979SOL     OW46008   1.702   3.916   0.938  0.1511  0.1088 -0.4119
14979SOL    HW146009   1.634   3.867   0.984  0.0906 -0.3109 -0.9476
14979SOL    HW246010   1.746   3.966   1.007  0.0779 -0.5360  0.1078
14980SOL     OW46011   2.185   8.125   1.142  0.3952 -0.0570  0.2762
14980SOL    HW146012   2.136   8.046   1.119 -0.5575  0.5455  0.1926
14980SOL    HW246013   2.124   8.197   1.127  0.5875  0.5645  2.1773
14981SOL     OW46014   4.629   2.890   4.356 -0.3003 -0.2351 -0.2766
14981SOL    HW146015   4.549   2.843   4.332  0.0463 -1.9359  1.6489
14981SOL    HW246016   4.654   2.853   4.440  1.4070  1.7233  0.1490
14982SOL     OW46017   0.330   5.131   8.082 -0.4834 -0.1082 -0.3604
14982SOL    HW146018   0.380   5.209   8.057 -0.4375 -0.1157 -0.2901
14982SOL    HW246019   0.359   5.111   8.171 -1.2489  0.4084  0.0160
14983SOL     OW46020   7.853   5.042   1.827 -0.1547  0.6030 -0.4154
14983SOL    HW146021   7.897   4.960   1.846 -0.8071  0.4777  0.6088
14983SOL    HW246022   7.862   5.052   1.732 -0.6360 -0.9784 -0.6556
14984SOL     OW46023   2.768   5.241   2.004  0.4457  0.1297  0.0148
14984SOL    HW146024   2.788   5.244   1.910 -0.8474 -0.6880 -0.3217
14984SOL    HW246025   2.785   5.150   2.029  0.3544  0.2347  0.4611
14985SOL     OW46026   0.139   2.528   6.514  0.2264  0.3564  0.0229
14985SOL    HW146027   0.205   2.593   6.538  1.0522 -0.1689 -0.7512
14985SOL    HW246028   0.152   2.456   6.576 -1.4494  1.3422  1.6365
14986SOL     OW46029   2.175   4.604   5.880  0.7600  0.1383 -0.2986
14986SOL    HW146030   2.165   4.697   5.859  0.8743  0.0664 -0.6658
14986SOL    HW246031   2.269   4.587   5.874  1.1240  0.6338  2.4432
14987SOL     OW46032   3.495   0.430   4.290 -0.4505 -0.2146  0.5013
14987SOL    HW146033   3.589   0.446   4.277 -0.5942  0.5786  0.3747
14987SOL    HW246034   3.454   0.465   4.210 -0.7940 -1.2185  0.2272
14988SOL     OW46035   5.136   4.867   1.055 -0.3769 -0.4974 -0.2359
14988SOL    HW146036   5.071   4.936   1.043  0.0818 -0.2153 -1.2301
14988SOL    HW246037   5.086   4.792   1.087 -0.9050  0.2414  0.7366
14989SOL     OW46038   7.914   0.739   1.609  0.0318  0.0982  0.6756
14989SOL    HW146039   7.922   0.650   1.575 -0.0583  0.2463  0.2641
14989SOL    HW246040   7.983   0.788   1.565 -0.1074  0.2976  0.6790
14990SOL     OW46041   2.602   7.186   1.185 -0.1391 -0.4056  0.3163
14990SOL    HW146042   2.654   7.116   1.225  1.6683  1.4489  1.4840
14990SOL    HW246043   2.592   7.251   1.255 -1.4014  0.6807 -0.8162
14991SOL     OW46044   2.764   6.969   0.617  0.2890 -0.5784  0.5881
14991SOL    HW146045   2.681   7.016   0.626  0.1473 -1.1003  2.3985
14991SOL    HW246046   2.769   6.913   0.695  0.5636 -3.4428 -1.3395
14992SOL     OW46047   7.308   5.235   0.883 -0.6977 -0.1523 -0.1887
14992SOL    HW146048   7.273   5.220   0.971 -0.2797  1.4626  0.2871
14992SOL    HW246049   7.261   5.311   0.851  1.1361  1.0385 -0.1979
14993SOL     OW46050   3.562   8.150   1.342  0.0218  0.2175 -0.2978
14993SOL    HW146051   3.557   8.213   1.414 -2.6390  0.7128 -0.8034
14993SOL    HW246052   3.567   8.203   1.263  1.4959 -0.3080 -0.5889
14994SOL     OW46053   2.359   2.859   7.674  0.0522  0.7138 -0.1523
14994SOL    HW146054   2.318   2.837   7.591  0.3296  1.3544 -0.4655
14994SOL    HW246055   2.447   2.890   7.651 -0.2077  1.8281  0.2728
14995SOL     OW46056   3.160   7.349   5.119  0.2307  0.1074 -0.5851
14995SOL    HW146057   3.205   7.433   5.129  1.1894 -0.4323 -0.2207
14995SOL    HW246058   3.216   7.300   5.059  0.0531 -0.5301 -0.2297
14996SOL     OW46059   1.998   0.898   2.349 -0.4374  0.4062  0.5502
14996SOL    HW146060   2.036   0.855   2.272  1.6598  0.7538  1.3032
14996SOL    HW246061   1.914   0.855   2.362  0.5925 -1.9882 -0.0151
14997SOL     OW46062   3.461   3.533   3.663  0.6068  0.4583 -0.4119
14997SOL    HW146063   3.372   3.500   3.679 -0.1700  0.8910 -3.2048
14997SOL    HW246064   3.510   3.509   3.741 -1.7651 -0.5247  0.8918
14998SOL     OW46065   6.535   5.527   3.049 -0.5519 -0.0821 -0.3749
14998SOL    HW146066   6.561   5.500   3.138  0.1377 -0.1432 -0.5849
14998SOL    HW246067   6.618   5.532   3.001 -0.9457 -0.3137 -1.0911
14999SOL     OW46068   7.264   1.143   7.596  0.3556 -0.0503  0.0057
14999SOL    HW146069   7.195   1.169   7.534 -0.4132  0.5620  1.0981
14999SOL    HW246070   7.233   1.059   7.631  0.2600  0.1327  0.3570
15000SOL     OW46071   4.282   0.603   4.213  0.1002 -0.2457 -0.5046
15000SOL    HW146072   4.364   0.651   4.226  0.0236 -0.1306 -0.4445
15000SOL    HW246073   4.281   0.584   4.119 -0.1112  0.3170 -0.6235
15001SOL     OW46074   0.645   3.298   5.316  0.0702  0.3713 -0.1254
15001SOL    HW146075   0.715   3.327   5.258  0.8144 -2.3646 -0.7411
15001SOL    HW246076   0.565   3.334   5.278  0.5818 -0.9003 -2.6514
15002SOL     OW46077   1.569   3.564   4.417  0.0718 -1.0383 -0.0126
15002SOL    HW146078   1.487   3.559   4.465  0.4531  1.2398  1.0352
15002SOL    HW246079   1.621   3.490   4.448 -0.7946 -1.2703  0.9029
15003SOL     OW46080   1.699   7.540   7.099  0.0687 -0.4987 -0.8808
15003SOL    HW146081   1.787   7.551   7.136 -1.6337  1.2382  3.1940
15003SOL    HW246082   1.675   7.627   7.069 -0.9882 -0.4796 -0.0255
15004SOL     OW46083   5.050   3.677   3.733  0.5015 -0.3470 -0.3792
15004SOL    HW146084   4.985   3.721   3.787  0.5317  0.1362 -0.7277
15004SOL    HW246085   5.130   3.728   3.746  0.8564 -1.0515  0.1968
15005SOL     OW46086   1.860   8.054   2.119 -0.2879 -0.1207  0.2751
15005SOL    HW146087   1.830   8.131   2.167  2.9908  0.9306  0.8760
15005SOL    HW246088   1.894   8.089   2.037  1.3207 -0.8677  0.5850
15006SOL     OW46089   8.007   2.495   2.213 -0.1975 -0.3105  0.5742
15006SOL    HW146090   8.069   2.514   2.142 -0.8133  0.7978  0.3186
15006SOL    HW246091   7.934   2.452   2.170 -0.7902  0.8030  0.4450
15007SOL     OW46092   1.454   6.059   3.582 -0.2604 -0.5352 -0.0254
15007SOL    HW146093   1.514   5.987   3.599  1.4083  1.0001  1.0474
15007SOL    HW246094   1.485   6.130   3.638 -1.7980  1.0387 -1.0300
15008SOL     OW46095   0.647   2.124   2.190 -0.3228 -0.5532  0.2263
15008SOL    HW146096   0.719   2.185   2.175 -0.6008 -0.4813 -0.8899
15008SOL    HW246097   0.689   2.039   2.199 -0.1887 -0.8747 -2.6453
15009SOL     OW46098   2.231   1.529   7.269 -0.1714 -0.9867 -0.3917
15009SOL    HW146099   2.176   1.572   7.204 -0.5106  1.0545  1.1543
15009SOL    HW246100   2.218   1.579   7.349  0.3505 -3.3047  1.2661
15010SOL     OW46101   2.664   4.525   7.092  0.2652 -0.2255  0.4222
15010SOL    HW146102   2.629   4.601   7.046 -1.3162 -1.5960 -0.7563
15010SOL    HW246103   2.758   4.541   7.099  0.1149  1.3093 -0.7873
15011SOL     OW46104   7.062   1.418   4.409  0.4293 -0.2786 -0.2943
15011SOL    HW146105   7.041   1.327   4.431 -0.6625  0.4844  2.1949
15011SOL    HW246106   7.137   1.439   4.464  1.7106 -0.0605 -2.0181
15012SOL     OW46107   1.720   2.105   6.460  0.7412 -0.4791 -0.1346
15012SOL    HW146108   1.794   2.147   6.502  1.5636 -3.1280  1.2759
15012SOL    HW246109   1.643   2.141   6.505  1.3761 -0.1441  0.7038
15013SOL     OW46110   7.586   7.229   3.174 -0.4499  0.1122  0.2124
15013SOL    HW146111   7.623   7.308   3.136  1.2267 -1.5348 -1.8843
15013SOL    HW246112   7.583   7.166   3.102 -0.4153 -2.1514  2.0303
15014SOL     OW46113   2.675   0.541   7.909 -0.1694 -0.2547 -0.5691
15014SOL    HW146114   2.606   0.605   7.928  0.0644 -0.1316 -0.1081
15014SOL    HW246115   2.637   0.483   7.843 -0.0275  0.9638 -1.7752
15015SOL     OW46116   7.723   0.147   1.393  0.0742  0.5762 -0.1527
15015SOL    HW146117   7.703   0.108   1.308 -4.1279  0.9314  0.4658
15015SOL    HW246118   7.777   0.224   1.372 -0.4051  0.3611 -2.4311
15016SOL     OW46119   8.139   7.344   1.794  0.1782  0.0820  0.2818
15016SOL    HW146120   8.092   7.351   1.877 -0.9361  1.0566 -0.3993
15016SOL    HW246121   8.188   7.426   1.787 -0.4797  0.4317 -0.4348
15017SOL     OW46122   0.719   8.030   4.637 -0.0355 -0.0349 -0.1512
15017SOL    HW146123   0.754   7.968   4.573  0.4748  0.8211 -0.7376
15017SOL    HW246124   0.781   8.103   4.635 -0.4669  0.3677  0.7248
15018SOL     OW46125   6.784   5.678   7.444 -0.1783 -0.5540 -0.4940
15018SOL    HW146126   6.710   5.629   7.480 -0.1297 -0.6611 -0.5397
15018SOL    HW246127   6.850   5.612   7.425  0.3238 -0.3613  0.4832
15019SOL     OW46128   2.040   2.890   6.408 -0.3181  0.1274  0.7855
15019SOL    HW146129   2.047   2.976   6.368  1.6192 -0.8373 -1.0947
15019SOL    HW246130   2.120   2.881   6.459  0.0331 -0.9862  0.0548
15020SOL     OW46131   4.473   4.016   0.080  0.6957 -0.0448 -0.1730
15020SOL    HW146132   4.387   4.048   0.109  1.2922  2.0827 -0.6002
15020SOL    HW246133   4.460   3.922   0.068 -1.1225 -0.0516  1.3601
15021SOL     OW46134   3.769   7.392   1.116 -0.4629  0.1958 -0.2722
15021SOL    HW146135   3.812   7.457   1.172 -3.3920  1.0811  1.1521
15021SOL    HW246136   3.759   7.437   1.032 -0.3775  0.7138 -0.0138
15022SOL     OW46137   4.909   1.400   5.708 -0.3260  0.1035 -0.9698
15022SOL    HW146138   4.817   1.373   5.708 -0.4515  0.4631  0.3560
15022SOL    HW246139   4.951   1.341   5.771  0.6424 -0.8898 -2.4700
15023SOL     OW46140   2.279   4.952   2.008  0.2252 -0.5092 -0.4213
15023SOL    HW146141   2.368   4.984   2.025  0.4992 -1.8759  0.9503
15023SOL    HW246142   2.231   4.970   2.089  0.1314 -2.5623  0.0290
15024SOL     OW46143   0.933   2.476   0.965 -0.4926  0.5391 -0.1560
15024SOL    HW146144   1.016   2.475   1.013 -0.7893 -1.9071  0.4073
15024SOL    HW246145   0.884   2.548   1.004  0.0553 -0.1395  1.8664
15025SOL     OW46146   5.098   7.949   2.016  0.1431  0.7794  0.1502
15025SOL    HW146147   5.115   7.972   2.108  1.7760 -0.5185  0.2265
15025SOL    HW246148   5.005   7.965   2.004  0.0346  1.6870  1.8168
15026SOL     OW46149   0.800   2.071   1.250 -0.3552 -0.4862 -0.0305
15026SOL    HW146150   0.824   1.988   1.292  1.0130 -0.7342 -1.2610
15026SOL    HW246151   0.870   2.132   1.275 -0.4286 -0.1739 -0.5795
15027SOL     OW46152   1.704   3.044   7.326  0.2480  0.1640 -0.1190
15027SOL    HW146153   1.776   2.983   7.338  0.0690  0.1882  1.3039
15027SOL    HW246154   1.631   3.005   7.375 -0.1141  1.0769  0.0975
15028SOL     OW46155   0.358   7.497   3.732  0.4509  0.4178  0.4241
15028SOL    HW146156   0.264   7.477   3.740  0.2449  0.5892 -1.3578
15028SOL    HW246157   0.399   7.437   3.795 -0.8727  0.7930  1.7241
15029SOL     OW46158   3.205   8.053   6.041 -0.0290  0.6522 -0.1401
15029SOL    HW146159   3.174   7.992   6.107 -0.3999  2.4853  1.4541
15029SOL    HW246160   3.267   8.002   5.988 -0.2044 -1.0276  1.1991
15030SOL     OW46161   0.801   6.519   5.356 -0.1880 -0.2441 -0.3695
15030SOL    HW146162   0.745   6.595   5.372  0.7958  0.7683 -1.5361
15030SOL    HW246163   0.870   6.552   5.299  0.2724 -2.0241 -0.8979
15031SOL     OW46164   3.310   4.940   1.279 -0.5030  0.0739  0.7864
15031SOL    HW146165   3.355   4.937   1.194 -0.3990 -0.0220  0.8452
15031SOL    HW246166   3.363   5.000   1.332 -1.0726  0.8587  0.4906
15032SOL     OW46167   3.888   5.066   6.170 -0.3676 -0.0336 -0.6361
15032SOL    HW146168   3.852   5.154   6.158  1.1765  0.5685 -1.0339
15032SOL    HW246169   3.964   5.063   6.113  1.0497 -0.7553  1.1951
15033SOL     OW46170   1.392   7.031   6.265  0.2518  0.8922  0.6924
15033SOL    HW146171   1.484   7.049   6.286  1.1183  0.0039 -1.9444
15033SOL    HW246172   1.390   6.937   6.246 -0.9246  1.1103 -0.4138
15034SOL     OW46173   3.864   5.905   0.720 -0.6385 -0.1094  0.6817
15034SOL    HW146174   3.859   5.935   0.811  0.6761  1.5448  0.2486
15034SOL    HW246175   3.934   5.839   0.721 -0.5709 -0.0351  0.8582
15035SOL     OW46176   3.719   1.626   2.691  0.0577 -0.5257 -0.3671
15035SOL    HW146177   3.771   1.552   2.662 -0.8896 -0.5786 -2.0456
15035SOL    HW246178   3.775   1.672   2.753  1.4935 -1.4150 -0.9568
15036SOL     OW46179   2.859   6.805   6.097 -0.0626  0.2473  0.0077
15036SOL    HW146180   2.940   6.855   6.087 -1.0632  1.9845  0.2167
15036SOL    HW246181   2.877   6.744   6.169  1.5214 -0.4711 -0.9319
15037SOL     OW46182   0.233   4.508   4.356  0.3378 -0.0808  0.0407
15037SOL    HW146183   0.233   4.432   4.298  1.0521 -0.1775  0.1539
15037SOL    HW246184   0.293   4.570   4.315  0.0862  0.2507  0.1694
15038SOL     OW46185   1.135   0.034   3.834 -0.1578 -0.4549 -0.4170
15038SOL    HW146186   1.168   0.029   3.744 -0.6441  0.4803 -0.6503
15038SOL    HW246187   1.076   0.108   3.835 -0.2998 -0.5580  0.6416
15039SOL     OW46188   1.040   6.088   7.361  0.7390 -0.4022 -0.3113
15039SOL    HW146189   0.971   6.095   7.295  2.3198  1.0383 -1.8834
15039SOL    HW246190   1.018   6.156   7.425  0.2769 -0.5001 -0.3604
15040SOL     OW46191   4.277   4.252   6.523  0.1195  0.0401 -0.3829
15040SOL    HW146192   4.215   4.280   6.591 -0.3637  2.0039 -1.5588
15040SOL    HW246193   4.312   4.334   6.487  2.7668 -0.9872 -0.3769
15041SOL     OW46194   7.470   6.033   6.126 -0.6181  0.0255 -0.7699
15041SOL    HW146195   7.457   6.041   6.221 -2.7887  0.0389 -1.0195
15041SOL    HW246196   7.483   5.939   6.112 -1.0489 -0.0741 -0.5282
15042SOL     OW46197   1.710   6.753   1.763 -0.7647 -0.1404  0.0542
15042SOL    HW146198   1.709   6.701   1.843  0.6661  1.6767  1.3392
15042SOL    HW246199   1.801   6.746   1.732 -0.5849  1.3845  0.1607
15043SOL     OW46200   7.780   6.712   6.290  0.4300 -0.4169 -0.0487
15043SOL    HW146201   7.727   6.773   6.340  0.8472 -0.2833  0.2426
15043SOL    HW246202   7.855   6.693   6.347  0.5384 -0.8377 -0.3226
15044SOL     OW46203   0.119   4.065   4.020 -0.2127 -0.5136 -0.1730
15044SOL    HW146204   0.035   4.072   4.066 -0.1944  1.1611 -0.3075
15044SOL    HW246205   0.098   4.020   3.938 -0.8611 -0.6606  0.0691
15045SOL     OW46206   4.651   3.079   0.479  1.0105  0.5033 -0.2715
15045SOL    HW146207   4.558   3.102   0.473  0.8122  1.1330  3.3908
15045SOL    HW246208   4.657   2.995   0.432 -1.9646 -0.8527  1.4425
15046SOL     OW46209   1.259   3.752   5.145  0.0067 -0.1298  0.9390
15046SOL    HW146210   1.338   3.786   5.188 -0.2247 -0.4107  1.5945
15046SOL    HW246211   1.273   3.658   5.141 -0.2515 -0.1669  0.9555
15047SOL     OW46212   2.566   3.058   0.198  0.0384  0.1575 -0.1048
15047SOL    HW146213   2.564   3.072   0.103 -1.5454  0.2464 -0.0872
15047SOL    HW246214   2.474   3.066   0.225  0.4787  0.1922  1.4498
15048SOL     OW46215   5.694   5.990   3.229 -0.4166  0.5320  0.0663
15048SOL    HW146216   5.716   5.898   3.247 -0.2998  0.3555 -0.9532
15048SOL    HW246217   5.651   5.989   3.144  0.8479  1.5799 -0.6182
15049SOL     OW46218   2.759   3.873   7.765 -0.6106  0.2942  0.1769
15049SOL    HW146219   2.701   3.837   7.832  0.4445 -0.1229  0.9020
15049SOL    HW246220   2.719   3.847   7.682 -2.2341  1.2865  0.6130
15050SOL     OW46221   6.255   1.102   3.498  0.3228  0.0413 -0.4516
15050SOL    HW146222   6.335   1.137   3.460  1.3156  0.4716  1.8410
15050SOL    HW246223   6.202   1.077   3.423  2.6998 -0.5202 -2.0831
15051SOL     OW46224   0.019   4.865   3.328 -0.0015  0.0094 -0.7382
15051SOL    HW146225   0.108   4.880   3.361 -0.1163 -0.6700 -0.1111
15051SOL    HW246226   0.026   4.882   3.234  0.9020 -0.4993 -0.7763
15052SOL     OW46227   3.299   2.111   0.235  0.1026  0.1830  0.4480
15052SOL    HW146228   3.206   2.090   0.237  0.1237  0.1314  1.3208
15052SOL    HW246229   3.302   2.202   0.205 -0.1361 -0.2256 -0.8779
15053SOL     OW46230   3.656   1.817   4.955  0.2945  0.1339 -0.2801
15053SOL    HW146231   3.657   1.730   4.995  1.3308  0.1413 -0.2636
15053SOL    HW246232   3.669   1.877   5.028 -0.5562  0.3298 -0.2713
15054SOL     OW46233   7.951   3.008   0.594 -0.0278  0.5119 -0.0340
15054SOL    HW146234   7.987   2.919   0.594 -1.4631 -0.1183  1.3180
15054SOL    HW246235   8.004   3.055   0.658 -0.7804 -0.0631  1.0357
15055SOL     OW46236   7.959   7.876   0.632  0.1446  0.0433  0.2383
15055SOL    HW146237   8.005   7.954   0.601  2.7776 -0.9896  1.2962
15055SOL    HW246238   8.027   7.821   0.670 -2.2764 -0.1304  5.1201
15056SOL     OW46239   3.142   5.707   0.689 -0.4112 -0.0469  0.5533
15056SOL    HW146240   3.187   5.730   0.608  1.2963 -1.4402  1.0372
15056SOL    HW246241   3.171   5.773   0.752  0.9729 -0.8770  0.8367
15057SOL     OW46242   2.974   7.248   5.597 -0.1228 -0.2510  0.3076
15057SOL    HW146243   2.990   7.331   5.643 -0.5486  0.3814 -0.6498
15057SOL    HW246244   2.997   7.267   5.506  2.2228 -1.9231  0.4624
15058SOL     OW46245   3.145   5.183   8.032 -0.0535 -0.1474 -0.0965
15058SOL    HW146246   3.237   5.207   8.021 -0.0684  0.0072  0.1129
15058SOL    HW246247   3.147   5.088   8.049  0.1826  0.0997  1.3750
15059SOL     OW46248   1.791   5.284   4.483 -0.1584 -0.7432  0.1931
15059SOL    HW146249   1.750   5.365   4.513 -0.6312 -1.1530  0.6709
15059SOL    HW246250   1.885   5.298   4.498 -0.0016  0.4998 -1.6188
15060SOL     OW46251   1.147   6.376   5.579  0.1768  0.2067 -0.4274
15060SOL    HW146252   1.152   6.308   5.511  0.7962  1.6984 -1.9703
15060SOL    HW246253   1.058   6.371   5.612 -0.6485  0.4155 -2.4843
15061SOL     OW46254   1.134   3.575   2.802 -0.1210 -0.7689 -0.0429
15061SOL    HW146255   1.183   3.637   2.749 -0.1603 -1.8920 -1.4572
15061SOL    HW246256   1.169   3.587   2.891 -0.3227  1.4174 -0.2049
15062SOL     OW46257   3.162   3.096   7.284  0.4288  0.3540 -0.2298
15062SOL    HW146258   3.220   3.116   7.357 -0.4873 -1.0073  0.9218
15062SOL    HW246259   3.217   3.104   7.206  1.5074  1.5226  0.6107
15063SOL     OW46260   8.004   1.095   0.555 -0.1093  0.1235 -0.3590
15063SOL    HW146261   7.916   1.060   0.544  0.3421 -1.5804  1.0469
15063SOL    HW246262   8.061   1.032   0.510  0.8474 -1.9554  3.3769
15064SOL     OW46263   7.411   1.486   2.020  0.3719 -0.0538 -0.0918
15064SOL    HW146264   7.357   1.479   1.941 -0.9881 -0.7739  0.8476
15064SOL    HW246265   7.407   1.578   2.044  2.0905  0.4896 -1.6871
15065SOL     OW46266   0.597   0.871   8.091 -0.0626 -0.1138  0.5982
15065SOL    HW146267   0.681   0.873   8.044 -0.5890  1.1997 -0.3544
15065SOL    HW246268   0.612   0.810   8.163  1.0403 -1.5387 -0.7669
15066SOL     OW46269   2.256   2.252   1.406  0.2349 -0.4957  0.5291
15066SOL    HW146270   2.178   2.268   1.352 -0.8189  0.0340  2.1273
15066SOL    HW246271   2.287   2.340   1.429  1.5716 -0.6979 -0.4203
15067SOL     OW46272   2.631   3.732   4.937  0.3168 -0.9796 -0.3322
15067SOL    HW146273   2.666   3.794   5.000  0.9608 -1.6030 -0.0635
15067SOL    HW246274   2.585   3.667   4.990  0.4425 -1.2387 -0.5378
15068SOL     OW46275   4.052   3.752   5.250 -0.2905  0.1247 -0.4671
15068SOL    HW146276   4.131   3.777   5.296  0.2141  0.1860 -1.3510
15068SOL    HW246277   4.080   3.736   5.160 -1.1426 -0.5967 -0.6206
15069SOL     OW46278   3.830   7.195   3.548 -0.5648  0.1650  0.0603
15069SOL    HW146279   3.784   7.117   3.517  0.6940 -0.8556  0.7048
15069SOL    HW246280   3.888   7.220   3.476 -1.4347  0.9312 -0.4045
15070SOL     OW46281   1.392   7.198   2.779 -0.0459  0.1839  0.5304
15070SOL    HW146282   1.419   7.131   2.716 -2.9031 -0.9061  0.2706
15070SOL    HW246283   1.415   7.281   2.737  1.6645 -0.5671 -0.1168
15071SOL     OW46284   8.024   1.932   5.236 -0.1284 -0.2243 -0.4226
15071SOL    HW146285   8.068   1.895   5.160  1.0444  1.0452 -0.3971
15071SOL    HW246286   8.085   1.999   5.269  0.0534 -1.6606  2.4552
15072SOL     OW46287   4.995   4.079   2.027 -0.3917 -0.1582  0.0265
15072SOL    HW146288   4.934   4.070   2.099  0.2252  0.2485  0.6108
15072SOL    HW246289   5.056   4.006   2.037 -0.5547 -0.3457 -0.3320
15073SOL     OW46290   1.569   5.317   7.773 -0.0246  0.1152 -0.2632
15073SOL    HW146291   1.532   5.368   7.845  1.6890 -1.0153  1.5052
15073SOL    HW246292   1.611   5.243   7.815 -1.3972 -2.1980 -2.6649
15074SOL     OW46293   2.331   0.631   0.426 -0.3940 -0.4177 -0.1427
15074SOL    HW146294   2.418   0.624   0.466 -0.0402  0.3546 -0.7512
15074SOL    HW246295   2.287   0.699   0.476  1.0635  2.6951 -2.7072
15075SOL     OW46296   0.613   0.970   0.330 -0.6121  0.2448 -0.0509
15075SOL    HW146297   0.675   0.998   0.262 -1.4722  1.5681 -0.3226
15075SOL    HW246298   0.648   1.006   0.411 -1.7373  2.2778 -0.4047
15076SOL     OW46299   0.502   4.147   6.252  0.1012  0.6923  0.7858
15076SOL    HW146300   0.461   4.104   6.327 -0.2024 -0.7800 -0.1737
15076SOL    HW246301   0.590   4.170   6.282  0.6119 -1.4395  1.1098
15077SOL     OW46302   0.432   7.864   3.887 -0.0296  0.1634 -0.1230
15077SOL    HW146303   0.377   7.831   3.817 -2.4872  1.9109  0.8456
15077SOL    HW246304   0.370   7.899   3.952  2.0772 -1.2011  2.8743
15078SOL     OW46305   4.713   7.016   3.276 -0.4131 -0.0747 -0.3503
15078SOL    HW146306   4.685   6.931   3.311 -2.4531  0.3869 -0.7476
15078SOL    HW246307   4.682   7.079   3.341  0.1546  0.4360 -0.5782
15079SOL     OW46308   6.242   1.001   1.490 -0.3146 -0.1880 -0.1686
15079SOL    HW146309   6.193   0.927   1.526  2.2118 -1.7331  0.3542
15079SOL    HW246310   6.286   1.040   1.566 -0.7727  1.2225 -0.5942
15080SOL     OW46311   7.589   5.493   4.918  0.1604  0.4334 -0.0107
15080SOL    HW146312   7.596   5.407   4.877  0.2149 -0.3773  1.6331
15080SOL    HW246313   7.627   5.553   4.854  1.8095 -1.0090 -0.4568
15081SOL     OW46314   0.421   0.858   6.984 -0.1611 -0.0251 -0.3809
15081SOL    HW146315   0.457   0.848   6.896  0.0057 -0.7788 -0.2397
15081SOL    HW246316   0.496   0.852   7.042 -0.3995 -0.8035 -0.1296
15082SOL     OW46317   8.099   0.061   6.318 -0.1982  0.3297  0.0458
15082SOL    HW146318   8.152   0.120   6.264 -0.8528 -0.0074 -0.9986
15082SOL    HW246319   8.162   0.005   6.362  0.3344 -0.1264 -1.2502
15083SOL     OW46320   4.616   7.366   3.268 -0.1541 -0.7260  0.3114
15083SOL    HW146321   4.561   7.363   3.190 -1.2171 -1.1204  1.0364
15083SOL    HW246322   4.577   7.300   3.326  0.6572 -0.4966  1.1349
15084SOL     OW46323   2.216   8.150   8.141 -0.2192  0.6664  0.1766
15084SOL    HW146324   2.275   8.082   8.173  0.5168  1.5204  0.6946
15084SOL    HW246325   2.137   8.140   8.195 -0.1722  0.1413  0.1532
15085SOL     OW46326   4.121   5.556   7.975  0.7451 -0.0159 -0.5481
15085SOL    HW146327   4.149   5.639   7.937  2.4555  0.6227  1.8516
15085SOL    HW246328   4.172   5.548   8.056 -0.7448 -2.5132  0.2679
15086SOL     OW46329   5.532   0.659   0.194 -0.5241  0.0791  0.3985
15086SOL    HW146330   5.615   0.686   0.234 -0.3071 -1.8325  1.3856
15086SOL    HW246331   5.547   0.667   0.100  0.3560  0.8912  0.5875
15087SOL     OW46332   8.024   2.947   1.199  0.2531 -0.2676 -0.1641
15087SOL    HW146333   8.120   2.941   1.204  0.1291 -1.6315  1.2842
15087SOL    HW246334   8.004   2.928   1.107  1.4568  2.5087 -1.1127
15088SOL     OW46335   0.430   4.520   0.720  0.4522 -0.3647 -0.0518
15088SOL    HW146336   0.457   4.576   0.793  0.4821 -0.3816 -0.0498
15088SOL    HW246337   0.489   4.445   0.725  0.2746 -0.4988  0.0780
15089SOL     OW46338   4.326   1.789   1.347  0.4023 -0.1844 -0.3986
15089SOL    HW146339   4.260   1.767   1.281 -0.4859  0.8194  0.1292
15089SOL    HW246340   4.284   1.769   1.431  1.3817 -1.0913 -0.0980
15090SOL     OW46341   0.093   6.425   5.165  0.0141  0.7127 -0.4108
15090SOL    HW146342   0.105   6.514   5.199  0.0734  1.0557 -1.3025
15090SOL    HW246343  -0.002   6.412   5.163  0.0146  0.5915  0.1084
15091SOL     OW46344   3.918   1.795   2.035  0.3354  0.4943  0.3743
15091SOL    HW146345   3.944   1.704   2.046  1.5466  0.3506 -2.5863
15091SOL    HW246346   3.839   1.792   1.981  0.1936  1.1582  0.5341
15092SOL     OW46347   7.354   7.051   2.867 -0.0403 -0.7738 -0.2172
15092SOL    HW146348   7.326   7.139   2.892  0.7447 -0.0438 -1.7689
15092SOL    HW246349   7.431   7.034   2.921  0.4909 -0.0269 -0.7291
15093SOL     OW46350   1.428   3.298   3.916  0.3676  0.4661 -0.2739
15093SOL    HW146351   1.508   3.254   3.944 -0.3593 -0.9022 -0.2414
15093SOL    HW246352   1.444   3.391   3.932  0.8594 -0.0079  2.4969
15094SOL     OW46353   6.897   7.977   3.494  0.3396 -0.4773  0.1038
15094SOL    HW146354   6.814   7.993   3.539  0.4718  1.3310 -0.2242
15094SOL    HW246355   6.957   8.041   3.533  1.1854 -0.7787 -0.6936
15095SOL     OW46356   0.654   8.049   4.914 -0.1005 -0.2500  0.3499
15095SOL    HW146357   0.570   8.006   4.929  1.5830 -3.3875  1.7873
15095SOL    HW246358   0.685   8.014   4.831 -0.1771  0.9092 -0.1868
15096SOL     OW46359   7.233   2.504   4.202 -0.4182 -0.2937  0.3166
15096SOL    HW146360   7.254   2.438   4.267 -2.5909 -1.4628 -0.0831
15096SOL    HW246361   7.316   2.525   4.161  0.4527 -2.1565  1.0406
15097SOL     OW46362   2.275   5.889   0.675 -0.3055 -0.0010 -0.2982
15097SOL    HW146363   2.359   5.934   0.671  0.6539 -1.7590 -1.6481
15097SOL    HW246364   2.290   5.816   0.735 -0.7563 -0.5134 -0.7977
15098SOL     OW46365   0.065   5.140   2.075 -0.3077  0.0208  0.4418
15098SOL    HW146366   0.070   5.086   2.154 -2.6739 -1.0629 -0.0533
15098SOL    HW246367   0.091   5.080   2.004  0.4704  0.5926  0.2257
15099SOL     OW46368   2.343   6.248   1.973  0.1286 -0.4787 -0.7403
15099SOL    HW146369   2.374   6.244   1.883 -0.5240 -0.0802 -0.9953
15099SOL    HW246370   2.337   6.341   1.992  0.0409 -0.5603 -0.3669
15100SOL     OW46371   5.846   7.357   1.489 -0.4252 -0.0479 -0.2815
15100SOL    HW146372   5.916   7.375   1.551  0.5393 -1.2781 -0.9725
15100SOL    HW246373   5.821   7.266   1.506 -0.6073 -0.1877 -1.2505
15101SOL     OW46374   1.183   0.922   7.525 -0.0190 -0.2635  0.5753
15101SOL    HW146375   1.232   0.932   7.443  0.1211 -0.7714  0.5899
15101SOL    HW246376   1.238   0.961   7.592 -0.4790  0.8574  0.3216
15102SOL     OW46377   5.296   7.450   6.273 -0.1267 -0.4191  0.1555
15102SOL    HW146378   5.263   7.440   6.184  0.8867 -0.7979 -0.2028
15102SOL    HW246379   5.220   7.473   6.326 -1.0969 -2.0129 -0.4808
15103SOL     OW46380   3.059   3.953   5.207 -0.4259  0.2158  0.5867
15103SOL    HW146381   2.974   3.963   5.251 -0.2654 -0.5729  1.0831
15103SOL    HW246382   3.054   3.867   5.165 -0.4140  0.7766 -0.6067
15104SOL     OW46383   7.593   5.418   2.014  0.3208  0.3129 -0.1113
15104SOL    HW146384   7.677   5.463   2.014  1.1778 -1.2104  0.6038
15104SOL    HW246385   7.543   5.458   2.085  1.6667 -0.8370  1.5686
15105SOL     OW46386   5.464   3.807   6.317 -0.1715  0.4843 -0.3199
15105SOL    HW146387   5.410   3.783   6.393  1.2149  0.1736  0.5953
15105SOL    HW246388   5.461   3.729   6.261  0.4707 -0.0735  0.4036
15106SOL     OW46389   4.084   3.610   5.822 -0.2014 -0.6373 -0.7435
15106SOL    HW146390   4.112   3.554   5.750  0.0813  0.2246 -1.3259
15106SOL    HW246391   4.123   3.695   5.803 -1.3262 -0.0047 -0.3594
15107SOL     OW46392   7.542   2.670   1.779  0.3349  0.7584 -0.3374
15107SOL    HW146393   7.472   2.716   1.826 -0.7605  1.0091 -2.1135
15107SOL    HW246394   7.547   2.584   1.821 -0.7008  0.9121  0.1420
15108SOL     OW46395   3.682   2.114   3.815  0.1229  0.3935  0.0294
15108SOL    HW146396   3.669   2.049   3.884 -0.9751 -2.0412 -2.3029
15108SOL    HW246397   3.777   2.126   3.811  0.4241 -1.6794  0.0723
15109SOL     OW46398   1.912   8.140   1.237 -0.1555  0.4712  0.3044
15109SOL    HW146399   1.961   8.170   1.313  1.2799  2.6385 -1.3617
15109SOL    HW246400   1.843   8.205   1.225  1.5697  2.0249 -2.0048
15110SOL     OW46401   7.304   2.867   2.187 -0.0070  0.6907 -0.3927
15110SOL    HW146402   7.376   2.856   2.124 -1.0078 -1.2931 -1.2782
15110SOL    HW246403   7.338   2.827   2.267 -0.5578 -1.5853 -1.2176
15111SOL     OW46404   4.071   4.116   4.394  0.7478 -0.1045  0.4928
15111SOL    HW146405   4.059   4.059   4.471 -0.2673  1.1541  1.3225
15111SOL    HW246406   4.118   4.061   4.331  0.3016 -1.6757  1.4443
15112SOL     OW46407   3.425   6.816   3.889  0.5256  0.1924  0.9687
15112SOL    HW146408   3.506   6.857   3.919  0.7276  1.1910 -0.8341
15112SOL    HW246409   3.359   6.885   3.895  0.3151  0.0590  0.2950
15113SOL     OW46410   2.965   6.570   3.621  0.2636  0.0190  0.3672
15113SOL    HW146411   2.882   6.597   3.582  0.8804 -0.7558 -1.6196
15113SOL    HW246412   2.941   6.502   3.683 -0.7480  1.1496  1.2487
15114SOL     OW46413   5.365   1.895   3.503 -0.2328 -0.1144 -0.6431
15114SOL    HW146414   5.382   1.808   3.539 -2.2336 -0.4618 -0.4284
15114SOL    HW246415   5.314   1.940   3.570 -2.9134 -0.3218 -2.3805
15115SOL     OW46416   2.842   7.670   0.286  0.2976 -0.2330  0.8422
15115SOL    HW146417   2.820   7.586   0.326 -1.2474 -0.1388  0.2723
15115SOL    HW246418   2.771   7.729   0.313 -0.6133 -0.0668 -1.6243
15116SOL     OW46419   6.348   1.812   3.191  0.0954  0.2672  0.0245
15116SOL    HW146420   6.259   1.791   3.221 -0.8112  3.5735 -0.0294
15116SOL    HW246421   6.404   1.796   3.267 -0.6096 -1.1822  0.2759
15117SOL     OW46422   3.230   7.286   8.050  0.2369  0.8276 -0.8117
15117SOL    HW146423   3.162   7.229   8.086 -0.7512  0.9650 -2.3718
15117SOL    HW246424   3.205   7.298   7.959  2.4193  0.8135 -1.4701
15118SOL     OW46425   1.531   5.479   0.032  0.4063  0.7890 -0.2121
15118SOL    HW146426   1.591   5.489   0.106  0.7228 -2.4323  0.1080
15118SOL    HW246427   1.444   5.491   0.069  0.6176  0.2620  0.4599
15119SOL     OW46428   2.441   2.789   2.078  0.5795 -0.0420 -0.2207
15119SOL    HW146429   2.502   2.860   2.063 -0.1013  0.4403 -0.7855
15119SOL    HW246430   2.354   2.830   2.077  0.1972 -0.8100 -0.1670
15120SOL     OW46431   2.605   3.029   1.986  0.1031  0.6651  0.2930
15120SOL    HW146432   2.577   3.095   2.050 -0.1121  1.5239 -0.6726
15120SOL    HW246433   2.642   3.079   1.914  2.1625 -0.3662  0.5559
15121SOL     OW46434   6.613   2.974   1.675  0.0057  0.2909 -0.2807
15121SOL    HW146435   6.531   2.972   1.723  0.1090  0.2891 -0.1037
15121SOL    HW246436   6.594   2.930   1.592 -0.0294 -0.1811 -0.0246
15122SOL     OW46437   7.580   1.585   6.954  0.1108 -0.6972  0.2267
15122SOL    HW146438   7.556   1.529   6.881  0.3045 -0.4687 -0.0125
15122SOL    HW246439   7.499   1.629   6.979  0.8452  2.9171 -2.9575
15123SOL     OW46440   0.676   6.041   7.560 -0.3094 -0.4989  0.4862
15123SOL    HW146441   0.600   5.994   7.527  0.3611 -1.6492  0.5411
15123SOL    HW246442   0.747   5.978   7.557  0.2322 -0.0269  2.2031
15124SOL     OW46443   0.145   5.390   2.140 -0.3278 -0.4062  0.3553
15124SOL    HW146444   0.129   5.296   2.127  0.4060 -0.2184 -2.6909
15124SOL    HW246445   0.217   5.410   2.079 -0.0604  2.0332  1.3884
15125SOL     OW46446   6.721   6.760   0.428  0.3937 -0.7161  0.1405
15125SOL    HW146447   6.712   6.771   0.522  0.3991 -3.1260  0.5077
15125SOL    HW246448   6.636   6.785   0.392  1.0182  2.1700  0.4963
15126SOL     OW46449   0.713   2.483   8.013  0.4472  0.2570 -0.2055
15126SOL    HW146450   0.759   2.407   8.051 -0.9794  0.7590  2.7703
15126SOL    HW246451   0.628   2.448   7.986 -0.5022  0.8392  1.8475
15127SOL     OW46452   7.541   4.432   4.990  0.5538 -0.3265  0.0109
15127SOL    HW146453   7.549   4.527   4.986  0.4000 -0.2846  0.6062
15127SOL    HW246454   7.538   4.404   4.899  0.5236  0.2470 -0.1653
15128SOL     OW46455   7.044   8.129   7.683  0.0808  0.0502 -0.3705
15128SOL    HW146456   6.994   8.081   7.748  0.7783 -0.2941 -0.0753
15128SOL    HW246457   7.130   8.087   7.683  1.1012  2.0011  0.7227
15129SOL     OW46458   0.598   3.388   2.315  0.3939  0.9820  0.3190
15129SOL    HW146459   0.652   3.346   2.383  1.9211 -0.4087 -1.6345
15129SOL    HW246460   0.659   3.447   2.270  0.0688  0.1514 -1.2818
15130SOL     OW46461   7.645   6.161   3.097 -0.2000 -0.3183  0.2175
15130SOL    HW146462   7.672   6.118   3.178  3.2805  1.1345 -0.0113
15130SOL    HW246463   7.663   6.096   3.028 -1.4867 -0.8987  0.3926
15131SOL     OW46464   5.094   5.438   3.724  0.1286 -0.2987  0.0306
15131SOL    HW146465   5.088   5.368   3.659  0.7133 -0.3115 -0.0142
15131SOL    HW246466   5.005   5.445   3.760 -0.4480  0.3195 -1.4116
15132SOL     OW46467   0.238   4.739   4.688  0.6932 -0.0439 -0.5722
15132SOL    HW146468   0.311   4.722   4.628  0.9873 -0.5723 -0.0654
15132SOL    HW246469   0.248   4.674   4.758  1.5721  1.8298  1.1571
15133SOL     OW46470   0.821   2.433   3.532 -0.2781  0.1601  0.0262
15133SOL    HW146471   0.908   2.405   3.503  0.2685  2.5527 -0.8720
15133SOL    HW246472   0.764   2.415   3.457 -0.3917 -0.5567  0.2768
15134SOL     OW46473   6.797   7.749   1.522  0.2395 -0.0036 -0.2669
15134SOL    HW146474   6.718   7.801   1.538 -0.0489 -0.6938  0.6469
15134SOL    HW246475   6.862   7.784   1.584  0.2572 -0.2768 -0.1313
15135SOL     OW46476   6.230   8.149   4.895  0.1657  0.3694  0.2024
15135SOL    HW146477   6.256   8.069   4.849  1.4503  0.7387  0.2508
15135SOL    HW246478   6.135   8.153   4.884  0.0777 -1.1706  0.2147
15136SOL     OW46479   1.553   3.453   6.133  0.4989 -0.2821  0.0014
15136SOL    HW146480   1.597   3.376   6.095  1.2646 -0.0322  0.3553
15136SOL    HW246481   1.618   3.490   6.193  0.0277  0.4772  0.0538
15137SOL     OW46482   5.805   6.892   4.322 -0.2816 -0.2111  0.1523
15137SOL    HW146483   5.845   6.979   4.326  2.4531 -1.3466  0.0602
15137SOL    HW246484   5.790   6.868   4.414  0.9208 -0.3986  0.3272
15138SOL     OW46485   6.657   5.157   3.780 -0.5011  0.1658 -0.1905
15138SOL    HW146486   6.684   5.185   3.868 -0.4365  0.9680 -0.4500
15138SOL    HW246487   6.639   5.239   3.734 -1.9184 -0.2778 -0.4995
15139SOL     OW46488   5.246   4.667   8.048  0.3314 -0.4789 -0.5176
15139SOL    HW146489   5.177   4.613   8.086  1.2600 -1.3663 -0.0429
15139SOL    HW246490   5.248   4.642   7.955 -0.3541 -0.0347 -0.6565
15140SOL     OW46491   4.506   0.143   2.290  0.1761 -0.2828  0.4581
15140SOL    HW146492   4.544   0.158   2.204 -1.2580 -1.1045 -0.3596
15140SOL    HW246493   4.549   0.207   2.347 -1.0552  2.5026 -1.5052
15141SOL     OW46494   4.702   1.008   4.340  0.3710 -0.8627  0.1094
15141SOL    HW146495   4.795   1.031   4.344  0.5672 -1.6432  0.2725
15141SOL    HW246496   4.696   0.923   4.384 -0.3810 -0.9421 -0.1237
15142SOL     OW46497   5.595   7.735   4.080  0.0327 -0.2444  0.1948
15142SOL    HW146498   5.522   7.688   4.121  0.3181  0.4395  1.5104
15142SOL    HW246499   5.669   7.722   4.139 -0.1624  2.7907  1.2652
15143SOL     OW46500   0.183   0.254   4.382  0.2015  0.4558 -0.2948
15143SOL    HW146501   0.194   0.298   4.466  0.4113 -1.3498  0.6761
15143SOL    HW246502   0.272   0.240   4.349  0.1222  1.1203 -0.8097
15144SOL     OW46503   2.301   0.225   4.586 -0.3154  0.3586  0.2525
15144SOL    HW146504   2.288   0.134   4.559  1.9671  0.1008 -0.2212
15144SOL    HW246505   2.365   0.260   4.524 -0.7266  2.1303  0.7649
15145SOL     OW46506   3.257   0.993   4.920  0.0094 -0.0343  0.4160
15145SOL    HW146507   3.162   0.994   4.930  0.0764  1.1466  1.0776
15145SOL    HW246508   3.277   1.073   4.871  0.6597 -0.2699  0.2892
15146SOL     OW46509   1.096   5.856   2.336 -0.5662 -0.4021 -0.1434
15146SOL    HW146510   1.150   5.931   2.309 -0.4037 -0.3895  0.2114
15146SOL    HW246511   1.006   5.887   2.328 -0.4783  0.3996  1.5935
15147SOL     OW46512   0.174   2.344   5.119 -0.2382 -0.4259 -0.8375
15147SOL    HW146513   0.180   2.283   5.193  0.2772 -0.8219 -1.1959
15147SOL    HW246514   0.110   2.305   5.060 -1.2066  0.2618 -0.2736
15148SOL     OW46515   3.590   0.934   7.796 -0.0457  0.3583 -0.8196
15148SOL    HW146516   3.515   0.948   7.853  0.6012  1.6991 -0.2414
15148SOL    HW246517   3.614   0.842   7.808 -0.5554  0.3599  0.2805
15149SOL     OW46518   4.528   6.304   4.687  0.1511  0.1875 -0.0011
15149SOL    HW146519   4.547   6.354   4.608  1.6743  0.0049  0.2075
15149SOL    HW246520   4.614   6.271   4.715 -0.5328 -0.7732  1.0373
15150SOL     OW46521   6.688   2.932   0.327  0.0219  0.2267  0.2107
15150SOL    HW146522   6.673   2.838   0.324 -1.9765  0.5323 -1.8476
15150SOL    HW246523   6.672   2.962   0.238  0.9217  2.4956  0.7313
15151SOL     OW46524   7.732   7.194   7.960 -0.2175  0.5026 -0.3206
15151SOL    HW146525   7.778   7.209   7.878 -1.5121 -0.1508 -1.2173
15151SOL    HW246526   7.709   7.101   7.957  2.2428 -0.3185  2.1695
15152SOL     OW46527   2.625   3.829   3.774 -0.2600  0.0948 -0.5216
15152SOL    HW146528   2.709   3.866   3.745 -0.5896  1.6729  0.3984
15152SOL    HW246529   2.648   3.772   3.847  0.1293 -0.4355 -1.0540
15153SOL     OW46530   4.654   6.188   3.332 -0.0111  0.0206  0.3506
15153SOL    HW146531   4.687   6.265   3.379 -0.3088 -1.1858  2.6568
15153SOL    HW246532   4.711   6.116   3.359 -0.7193 -0.9021 -0.5070
15154SOL     OW46533   1.571   2.510   0.234  0.3961 -0.6724 -0.6227
15154SOL    HW146534   1.503   2.572   0.262 -0.5619 -2.1110  0.3769
15154SOL    HW246535   1.630   2.563   0.181 -0.2172  1.1752  0.4130
15155SOL     OW46536   0.001   2.202   3.039 -0.2989 -0.0122  0.2605
15155SOL    HW146537  -0.093   2.220   3.042 -0.4652 -0.9951  1.5377
15155SOL    HW246538   0.011   2.131   2.976 -0.3653  0.2352 -0.0365
15156SOL     OW46539   5.481   6.179   3.647 -0.3098  0.2636  0.0303
15156SOL    HW146540   5.545   6.234   3.693 -0.9894  2.2753 -1.2823
15156SOL    HW246541   5.504   6.188   3.554 -1.2008 -0.6893 -0.2967
15157SOL     OW46542   4.819   4.712   4.780 -0.1655  0.1504 -0.1705
15157SOL    HW146543   4.913   4.707   4.762 -0.1065  0.9261 -0.1427
15157SOL    HW246544   4.778   4.662   4.710  0.1965  0.9766 -0.9884
15158SOL     OW46545   8.010   6.149   2.642  0.0161  0.4063 -0.0054
15158SOL    HW146546   8.077   6.218   2.647  0.4408  0.0844 -1.0258
15158SOL    HW246547   8.058   6.067   2.652 -0.4285  0.2195  0.7165
15159SOL     OW46548   1.843   5.662   0.899  0.2021  0.1675  0.0209
15159SOL    HW146549   1.816   5.724   0.832  1.5350  0.2913 -0.4236
15159SOL    HW246550   1.800   5.580   0.874 -0.4344  0.5472 -0.1729
15160SOL     OW46551   3.375   2.913   1.846 -0.5772  0.3318 -0.4886
15160SOL    HW146552   3.357   2.829   1.888 -1.4563  0.5452 -0.4236
15160SOL    HW246553   3.358   2.978   1.914  0.1992  0.5639 -0.5071
15161SOL     OW46554   1.318   0.891   3.355 -0.1751 -0.3931  0.1888
15161SOL    HW146555   1.319   0.956   3.426 -1.3141 -1.6804  1.4497
15161SOL    HW246556   1.253   0.923   3.294  0.8462  0.7538 -0.3402
15162SOL     OW46557   3.059   1.714   1.496 -0.0353 -0.2569  0.1047
15162SOL    HW146558   3.093   1.797   1.529 -1.6078  1.1213 -1.5121
15162SOL    HW246559   2.990   1.739   1.434 -1.5683 -2.7981  0.6248
15163SOL     OW46560   1.668   6.654   3.579 -0.0105 -0.1564 -0.3209
15163SOL    HW146561   1.702   6.643   3.668  0.4969  1.2289 -0.3288
15163SOL    HW246562   1.644   6.565   3.552  1.4372 -0.8534  0.5465
15164SOL     OW46563   5.937   6.948   6.248  0.7437  0.0467 -0.0572
15164SOL    HW146564   5.963   7.024   6.300 -0.0849  0.3634 -0.0913
15164SOL    HW246565   5.859   6.914   6.292  0.5264 -0.1827 -0.6101
15165SOL     OW46566   7.053   4.242   8.109 -0.6421 -0.3181 -0.2777
15165SOL    HW146567   6.980   4.205   8.060 -1.0977 -0.5759  0.5666
15165SOL    HW246568   7.083   4.171   8.166 -1.0615  0.3781  0.8422
15166SOL     OW46569   1.343   2.130   0.453  0.2226 -0.0622 -0.1022
15166SOL    HW146570   1.390   2.205   0.416  0.1136 -0.6563 -1.4984
15166SOL    HW246571   1.407   2.089   0.512  0.8855  0.1058 -0.6916
15167SOL     OW46572   5.758   0.727   4.603 -0.1536 -0.2835 -0.1218
15167SOL    HW146573   5.781   0.753   4.514  0.3385 -1.3272 -0.3118
15167SOL    HW246574   5.667   0.698   4.596 -1.2555  2.7374  0.3992
15168SOL     OW46575   3.195   6.143   0.030 -0.0818  0.8719 -0.1086
15168SOL    HW146576   3.262   6.125   0.095 -1.1536 -0.0580  0.7898
15168SOL    HW246577   3.148   6.218   0.065  0.9994  2.0766 -1.1670
15169SOL     OW46578   7.620   3.308   2.913 -0.1170  0.5849 -0.4103
15169SOL    HW146579   7.578   3.362   2.980 -0.9466 -0.0913 -0.3521
15169SOL    HW246580   7.689   3.261   2.960  0.1283  1.0522 -0.3040
15170SOL     OW46581   3.554   2.474   5.917  0.2093 -0.2263 -0.0649
15170SOL    HW146582   3.502   2.442   5.843 -1.0360  1.4106  0.0496
15170SOL    HW246583   3.602   2.549   5.882 -0.8950  0.9764  0.8987
15171SOL     OW46584   3.288   5.589   4.103 -0.3222 -0.5071 -0.3795
15171SOL    HW146585   3.360   5.542   4.060  0.4251  0.1154  0.1737
15171SOL    HW246586   3.301   5.574   4.196 -0.5208  0.1680 -0.2377
15172SOL     OW46587   5.674   0.325   7.492 -0.6009 -0.9377 -0.4819
15172SOL    HW146588   5.737   0.255   7.474 -1.5335 -1.9805  0.2212
15172SOL    HW246589   5.705   0.398   7.439  0.9487 -1.5619 -0.4955
15173SOL     OW46590   7.428   8.030   7.829  0.1045 -0.4860  0.2020
15173SOL    HW146591   7.497   8.095   7.816 -0.1614 -0.4629 -1.2067
15173SOL    HW246592   7.365   8.074   7.887  1.6693 -0.8422  2.2694
15174SOL     OW46593   2.498   0.962   6.566 -0.3181 -0.2239  0.3771
15174SOL    HW146594   2.549   1.013   6.503 -0.4918  0.4391  0.7730
15174SOL    HW246595   2.514   1.004   6.650 -0.9287 -0.4698  0.6183
15175SOL     OW46596   4.149   1.418   3.080 -0.0555 -0.1632  0.4253
15175SOL    HW146597   4.157   1.343   3.138 -1.9645 -0.5157  0.2706
15175SOL    HW246598   4.184   1.492   3.130  0.6768 -0.9088  1.0338
15176SOL     OW46599   7.238   3.952   7.979 -0.3307  0.0425  0.3966
15176SOL    HW146600   7.325   3.958   8.017 -0.1585  0.7669 -0.0861
15176SOL    HW246601   7.230   4.031   7.926 -0.2211 -1.3193 -1.7645
15177SOL     OW46602   2.275   3.337   3.366  0.2457 -0.4794  0.4040
15177SOL    HW146603   2.276   3.327   3.271 -1.0726 -2.1542  0.5375
15177SOL    HW246604   2.327   3.263   3.398 -1.0509 -1.1446  1.0381
15178SOL     OW46605   1.764   6.319   5.084  0.7391  0.0397  0.1573
15178SOL    HW146606   1.811   6.271   5.016 -1.8839 -1.5930 -0.6425
15178SOL    HW246607   1.696   6.366   5.037 -0.4127 -0.1855  1.5321
15179SOL     OW46608   7.666   7.985   6.325  0.2670 -0.1160 -0.7986
15179SOL    HW146609   7.741   7.963   6.380  0.5321  2.1607 -0.1688
15179SOL    HW246610   7.704   8.025   6.247 -0.1942 -1.7418 -1.9051
15180SOL     OW46611   3.874   0.650   5.659  0.5126 -0.0390 -0.0210
15180SOL    HW146612   3.821   0.662   5.738  1.2329  0.3106  0.4197
15180SOL    HW246613   3.848   0.721   5.601  0.4230  0.0702  0.1536
15181SOL     OW46614   3.482   3.954   5.452 -0.2175  0.4920  0.2172
15181SOL    HW146615   3.558   3.950   5.510 -0.7597 -0.6556  0.8958
15181SOL    HW246616   3.411   3.987   5.507 -0.0112  2.5707 -0.6837
15182SOL     OW46617   1.707   2.039   7.250 -0.3076 -0.4937  0.3503
15182SOL    HW146618   1.698   1.977   7.178 -0.5444  0.6248 -0.6060
15182SOL    HW246619   1.633   2.098   7.240  1.7133  2.0052 -0.8279
15183SOL     OW46620   0.610   2.044   4.419  0.1638 -0.1981 -0.0116
15183SOL    HW146621   0.549   2.116   4.402 -0.4526 -1.0008 -1.3563
15183SOL    HW246622   0.554   1.968   4.432  0.8637 -0.8190 -0.5956
15184SOL     OW46623   3.794   2.898   5.396 -0.0760 -0.4239  0.1393
15184SOL    HW146624   3.722   2.960   5.384  0.5464  0.2163 -0.4509
15184SOL    HW246625   3.818   2.906   5.488  0.7811  1.1396 -0.1832
15185SOL     OW46626   4.707   3.972   7.861  0.1382  0.6949 -0.1050
15185SOL    HW146627   4.785   3.947   7.911 -0.5463  1.9976  1.7617
15185SOL    HW246628   4.705   3.912   7.787  1.5411 -1.0164  1.1544
15186SOL     OW46629   7.604   5.267   7.651 -0.2030 -0.0633  0.0737
15186SOL    HW146630   7.653   5.345   7.625 -0.7868 -0.1547 -1.3917
15186SOL    HW246631   7.636   5.246   7.738  0.2253  1.5994  0.3372
15187SOL     OW46632   6.763   4.899   7.543 -0.4842 -0.0492 -0.3975
15187SOL    HW146633   6.802   4.834   7.602  1.1909  0.9117 -0.3970
15187SOL    HW246634   6.819   4.976   7.551 -2.0481  1.1951 -0.8900
15188SOL     OW46635   5.943   3.534   1.218 -0.3111  0.1002 -0.1925
15188SOL    HW146636   5.967   3.602   1.282 -0.3694 -0.1150  0.0591
15188SOL    HW246637   5.892   3.581   1.152  1.1858  0.6620 -0.9915
15189SOL     OW46638   2.373   3.991   4.580  0.7883  0.0964  0.1841
15189SOL    HW146639   2.439   3.924   4.599 -0.7750 -1.0999  1.6772
15189SOL    HW246640   2.367   4.042   4.660 -1.5415 -1.1631  0.9084
15190SOL     OW46641   0.138   0.903   3.904  0.4845 -0.1653 -0.1082
15190SOL    HW146642   0.152   0.868   3.817 -0.0283 -0.1063 -0.2182
15190SOL    HW246643   0.210   0.964   3.918  0.3379  0.1319 -0.6538
15191SOL     OW46644   1.049   0.163   8.026 -0.3825  0.2540  0.1867
15191SOL    HW146645   1.005   0.240   7.989 -0.6029  0.0132 -0.0550
15191SOL    HW246646   1.133   0.160   7.982 -0.2897  0.4776  0.3473
15192SOL     OW46647   5.669   0.280   4.672 -0.6748  0.0239 -0.6141
15192SOL    HW146648   5.601   0.213   4.674  0.7471 -1.4457  1.0778
15192SOL    HW246649   5.696   0.283   4.580 -2.2388 -0.1210 -1.1179
15193SOL     OW46650   5.309   0.445   4.988  0.0236 -0.5505  0.3103
15193SOL    HW146651   5.275   0.532   5.007 -0.0067 -0.3783 -0.5365
15193SOL    HW246652   5.385   0.460   4.933  1.1746 -0.9658  1.7256
15194SOL     OW46653   4.425   1.857   6.286  0.0219 -0.3615  0.2585
15194SOL    HW146654   4.424   1.762   6.283 -0.4128 -0.4516  2.0046
15194SOL    HW246655   4.392   1.879   6.373  1.1209  1.3631  0.2948
15195SOL     OW46656   3.669   0.391   3.661  0.7409  0.1756  0.0935
15195SOL    HW146657   3.763   0.410   3.658  0.9128 -0.6909 -0.3010
15195SOL    HW246658   3.640   0.399   3.570  0.1175  1.8739  0.4065
15196SOL     OW46659   2.797   0.170   7.366  0.5447  0.3456 -0.0304
15196SOL    HW146660   2.812   0.077   7.346 -2.8892 -0.4785  0.6399
15196SOL    HW246661   2.744   0.169   7.445 -1.0721  2.8064 -0.9885
15197SOL     OW46662   8.077   3.847   2.941  0.4092 -0.4462 -0.5322
15197SOL    HW146663   8.032   3.876   2.861  1.5145 -2.4872 -2.0058
15197SOL    HW246664   8.152   3.905   2.948 -0.2695  0.4348 -0.3279
15198SOL     OW46665   2.524   4.835   6.393  0.1867 -0.0492  0.1206
15198SOL    HW146666   2.509   4.774   6.465  1.4363  0.3768  0.7612
15198SOL    HW246667   2.617   4.857   6.399 -0.3156  2.2879  0.1866
15199SOL     OW46668   4.543   7.267   1.796  0.6189  0.1881 -1.0486
15199SOL    HW146669   4.636   7.265   1.818  0.5817  0.5685 -0.8486
15199SOL    HW246670   4.505   7.197   1.847  0.5548  0.9850  0.0293
15200SOL     OW46671   2.527   3.069   2.637  0.0030 -0.2870  0.1055
15200SOL    HW146672   2.461   3.093   2.701  1.1195 -0.0112  1.1949
15200SOL    HW246673   2.542   2.975   2.653 -0.0514 -0.3270 -0.0755
15201SOL     OW46674   1.675   7.549   3.289  0.6037  0.0631 -0.3154
15201SOL    HW146675   1.682   7.564   3.383  2.3595  0.1388 -0.4245
15201SOL    HW246676   1.643   7.631   3.253 -0.8527 -0.2147  0.2696
15202SOL     OW46677   2.080   2.632   6.612  0.1582  0.0818  0.2066
15202SOL    HW146678   2.138   2.586   6.673  0.5662  1.5223  0.9481
15202SOL    HW246679   2.122   2.717   6.598 -0.2453  0.0303 -1.6228
15203SOL     OW46680   2.075   8.138   7.344 -0.1407  0.3116  0.5135
15203SOL    HW146681   2.014   8.067   7.363 -0.2488 -0.4518 -2.2525
15203SOL    HW246682   2.035   8.186   7.272  1.3431  1.3308  0.3175
15204SOL     OW46683   6.004   0.736   5.832  0.2278  0.0659  0.0752
15204SOL    HW146684   6.060   0.743   5.910  1.6746 -2.0259 -0.6704
15204SOL    HW246685   6.066   0.731   5.759 -0.8492 -2.6026 -0.7806
15205SOL     OW46686   0.535   6.976   4.344 -0.0551  0.6355 -0.4567
15205SOL    HW146687   0.602   6.957   4.278  0.1020  1.0614 -0.4224
15205SOL    HW246688   0.566   7.055   4.387 -0.3986  0.6271 -0.1898
15206SOL     OW46689   6.037   5.636   1.415 -0.5650  0.3217  0.6735
15206SOL    HW146690   5.948   5.630   1.451 -1.4396 -0.0216 -1.3684
15206SOL    HW246691   6.086   5.568   1.460 -2.1548 -1.5329 -0.2032
15207SOL     OW46692   7.929   7.900   5.557 -0.1724  0.4620 -0.1851
15207SOL    HW146693   7.862   7.901   5.625 -0.7274 -0.7551 -0.6816
15207SOL    HW246694   7.954   7.808   5.549  2.4394  0.9788  0.8098
15208SOL     OW46695   1.678   0.926   0.956  0.4331  0.0895  0.6978
15208SOL    HW146696   1.609   0.909   0.892  1.0752 -1.0760  0.3074
15208SOL    HW246697   1.702   1.018   0.941 -0.1085  0.1148 -0.0494
15209SOL     OW46698   5.099   0.239   4.988 -0.0779 -0.1351  0.1338
15209SOL    HW146699   5.154   0.317   4.998 -0.0246 -0.1107 -0.3070
15209SOL    HW246700   5.070   0.242   4.896  0.2840 -0.8673 -0.0111
15210SOL     OW46701   6.980   2.719   4.983 -0.4949 -0.0933 -0.0683
15210SOL    HW146702   7.022   2.673   5.056 -1.5378  0.4503  0.9189
15210SOL    HW246703   7.029   2.692   4.906  0.5248 -0.8473  0.8073
15211SOL     OW46704   6.201   0.368   1.975 -0.6537 -0.4347 -0.5109
15211SOL    HW146705   6.296   0.382   1.970 -0.6534  0.1927  0.8063
15211SOL    HW246706   6.170   0.389   1.887  0.1129  2.2440 -0.2523
15212SOL     OW46707   2.738   7.116   5.683 -0.4981 -0.5769  0.4949
15212SOL    HW146708   2.809   7.171   5.650 -1.5722  1.6270  1.6337
15212SOL    HW246709   2.732   7.044   5.621 -0.8371  2.0311 -2.7656
15213SOL     OW46710   1.540   6.168   4.543  0.3211 -0.9442  0.0499
15213SOL    HW146711   1.486   6.089   4.539  0.4353 -1.0529  0.5231
15213SOL    HW246712   1.557   6.180   4.637  1.0997 -0.8989 -0.0957
15214SOL     OW46713   5.058   3.935   4.464  0.1082 -0.1798  0.4138
15214SOL    HW146714   5.013   3.989   4.399  1.4917  0.4375 -0.0838
15214SOL    HW246715   5.135   3.902   4.418  0.5422 -0.6315  1.4281
15215SOL     OW46716   0.153   0.675   0.989  0.0688 -0.1149  0.1384
15215SOL    HW146717   0.228   0.711   1.037 -1.3174  2.0430  0.8372
15215SOL    HW246718   0.127   0.598   1.039  0.3814  0.4815  1.2581
15216SOL     OW46719   5.236   3.221   1.560  0.0873 -0.1195 -0.6468
15216SOL    HW146720   5.299   3.260   1.620  0.1798  3.4276 -2.7489
15216SOL    HW246721   5.277   3.140   1.531  3.4989  1.6958 -1.4331
15217SOL     OW46722   0.288   1.900   3.223 -0.0027  0.2944 -0.5225
15217SOL    HW146723   0.231   1.858   3.287 -0.5647  1.8226  0.0325
15217SOL    HW246724   0.315   1.829   3.164  0.4750 -1.1538  1.3253
15218SOL     OW46725   1.720   6.112   2.922 -0.0736 -0.0482  0.2045
15218SOL    HW146726   1.739   6.020   2.940  2.9440 -0.4026 -3.5821
15218SOL    HW246727   1.777   6.160   2.983  0.5720 -0.8026  0.2143
15219SOL     OW46728   3.638   3.335   0.706  0.3747  0.4385 -0.0648
15219SOL    HW146729   3.676   3.260   0.661 -0.4479  0.0491 -0.1183
15219SOL    HW246730   3.547   3.337   0.678 -0.0765  0.3637  1.3367
15220SOL     OW46731   5.569   5.285   1.368  0.0603  0.3349  0.3089
15220SOL    HW146732   5.498   5.229   1.399 -0.2955  1.2816  1.2435
15220SOL    HW246733   5.550   5.298   1.275  0.4353 -1.4945 -0.0612
15221SOL     OW46734   2.115   5.738   2.673 -0.2461  0.8230  0.0702
15221SOL    HW146735   2.097   5.680   2.599 -1.0368  1.4584 -0.2622
15221SOL    HW246736   2.029   5.753   2.713  0.2366  0.1331  1.3995
15222SOL     OW46737   5.326   1.289   4.955  0.0965  0.2079  0.0668
15222SOL    HW146738   5.328   1.368   4.900 -0.5244  0.8443  0.9322
15222SOL    HW246739   5.418   1.270   4.971  0.3588 -0.6692 -2.0965
15223SOL     OW46740   0.790   2.342   6.697 -0.2775  0.3602 -0.6724
15223SOL    HW146741   0.849   2.410   6.664 -0.1296  0.2310 -0.6753
15223SOL    HW246742   0.714   2.390   6.729 -0.4887  0.4783 -1.3361
15224SOL     OW46743   5.703   0.698   4.196  0.6975  0.1483 -0.2427
15224SOL    HW146744   5.665   0.610   4.199 -1.9090  1.0332 -2.6214
15224SOL    HW246745   5.724   0.713   4.104  2.6884  1.4406  0.3608
15225SOL     OW46746   6.555   7.014   7.747 -0.0850 -0.5076  0.6846
15225SOL    HW146747   6.633   7.035   7.696  0.0143 -0.0289  1.0376
15225SOL    HW246748   6.588   6.972   7.826 -0.2523 -1.4639  0.2581
15226SOL     OW46749   1.375   6.908   4.427  0.6475 -0.1936 -0.5149
15226SOL    HW146750   1.402   6.860   4.349  1.1559 -0.4753 -0.1697
15226SOL    HW246751   1.302   6.963   4.398  2.8623  2.1901 -2.0162
15227SOL     OW46752   4.327   3.616   4.487 -0.5394 -0.1880  0.2316
15227SOL    HW146753   4.240   3.625   4.450  0.7786  0.2347 -3.0659
15227SOL    HW246754   4.386   3.615   4.412  2.2824 -1.1955  2.2672
15228SOL     OW46755   0.598   3.711   2.406 -0.3825  0.2102  0.0348
15228SOL    HW146756   0.559   3.767   2.472  2.8500  2.7305  0.0424
15228SOL    HW246757   0.622   3.631   2.454  1.2175  1.6741  1.8021
15229SOL     OW46758   5.703   2.249   5.451  0.1120  0.0824 -0.0979
15229SOL    HW146759   5.686   2.188   5.523  0.4031 -0.2621 -0.3226
15229SOL    HW246760   5.675   2.334   5.486 -2.4679 -0.4746 -0.5549
15230SOL     OW46761   5.956   1.192   5.438 -0.4262 -0.3601 -0.4003
15230SOL    HW146762   5.873   1.167   5.479 -0.4622  1.9830  1.1267
15230SOL    HW246763   5.935   1.270   5.388  0.2830 -1.4887 -2.6029
15231SOL     OW46764   6.343   6.120   6.262 -0.4810  0.6950 -0.1547
15231SOL    HW146765   6.427   6.082   6.237 -0.5718  0.9842 -0.9162
15231SOL    HW246766   6.365   6.179   6.335 -0.6738 -2.5657  2.8289
15232SOL     OW46767   3.137   6.230   0.759  0.2455  0.0222  0.1840
15232SOL    HW146768   3.198   6.301   0.781  1.4230 -0.9403  0.1057
15232SOL    HW246769   3.164   6.202   0.672 -2.1285  1.4277 -1.1039
15233SOL     OW46770   3.497   6.875   0.958  0.1534 -0.3274  0.3514
15233SOL    HW146771   3.534   6.953   1.000  3.2940 -1.4792  0.0221
15233SOL    HW246772   3.403   6.892   0.953  0.6284  3.1219  0.8812
15234SOL     OW46773   3.124   7.125   2.047 -0.1743 -1.2545  0.7743
15234SOL    HW146774   3.185   7.062   2.008 -0.9040 -1.6027  0.1676
15234SOL    HW246775   3.165   7.150   2.130  1.6563 -0.1530 -0.3938
15235SOL     OW46776   4.542   2.174   1.780  0.2272  0.8574  0.1628
15235SOL    HW146777   4.514   2.218   1.700 -1.2020 -1.8389 -0.9455
15235SOL    HW246778   4.592   2.098   1.750 -0.6195 -0.3961  1.7675
15236SOL     OW46779   1.417   0.657   2.351  0.2820 -0.0595 -0.1150
15236SOL    HW146780   1.360   0.701   2.414  1.1715 -0.8086  1.2760
15236SOL    HW246781   1.466   0.728   2.309 -0.8570  0.5056 -0.5292
15237SOL     OW46782   4.837   5.920   3.851 -0.6515  0.0552 -0.5890
15237SOL    HW146783   4.838   6.005   3.807  2.4606 -0.0437 -0.9616
15237SOL    HW246784   4.899   5.931   3.924 -0.0455 -1.9039 -0.7626
15238SOL     OW46785   1.523   2.096   7.941 -0.3506 -0.5964  0.5044
15238SOL    HW146786   1.447   2.152   7.925  0.4254  0.9274  1.7806
15238SOL    HW246787   1.507   2.057   8.026  1.4045  1.9108  2.1396
15239SOL     OW46788   0.420   7.979   2.129  0.1223  0.4970  0.6021
15239SOL    HW146789   0.476   8.028   2.070  0.5140  0.6176  1.0646
15239SOL    HW246790   0.331   7.997   2.100  0.3028  0.7575  0.2147
15240SOL     OW46791   6.878   4.838   5.767 -0.0965  0.2415  0.3476
15240SOL    HW146792   6.966   4.811   5.739 -0.7107 -0.3814 -1.1038
15240SOL    HW246793   6.893   4.912   5.826  1.4125  0.0008  0.3029
15241SOL     OW46794   3.004   6.064   3.415 -0.1891 -0.1710 -0.2409
15241SOL    HW146795   2.961   6.022   3.341 -0.8532  0.2814 -0.1257
15241SOL    HW246796   2.936   6.119   3.454  0.3939  0.2653  0.1826
15242SOL     OW46797   0.325   6.370   0.610  0.2994  0.7114 -0.5636
15242SOL    HW146798   0.296   6.399   0.696 -0.6966  2.3732 -1.3894
15242SOL    HW246799   0.375   6.445   0.576  0.5223  0.1595 -1.4818
15243SOL     OW46800   7.734   2.070   2.270  0.5062  0.1302  0.3663
15243SOL    HW146801   7.723   2.024   2.353  0.1957 -0.6883 -0.1189
15243SOL    HW246802   7.829   2.075   2.258  0.6388  1.9447  1.6671
15244SOL     OW46803   6.005   0.760   5.088 -0.0843 -0.5388  0.1504
15244SOL    HW146804   6.002   0.843   5.137  0.3476  0.2699 -1.1393
15244SOL    HW246805   5.914   0.732   5.083 -0.5016  0.9277 -1.1183
15245SOL     OW46806   5.335   4.966   7.835 -0.4400 -0.7715  0.3312
15245SOL    HW146807   5.293   4.902   7.777  1.9066 -1.3326 -0.8438
15245SOL    HW246808   5.371   4.913   7.907  1.8203 -0.9218 -0.8274
15246SOL     OW46809   7.989   7.309   1.154 -0.5271  0.0627 -0.2048
15246SOL    HW146810   8.036   7.357   1.223  1.8586 -2.1280 -0.1542
15246SOL    HW246811   7.998   7.365   1.076 -0.3787  1.0359  0.4893
15247SOL     OW46812   7.982   5.699   2.776 -0.3153 -0.7154 -0.5075
15247SOL    HW146813   7.944   5.616   2.805 -1.9678  0.2799  0.2713
15247SOL    HW246814   7.958   5.705   2.684 -0.3319 -1.0054 -0.5259
15248SOL     OW46815   3.254   2.188   8.053  0.1192 -0.0778 -0.0013
15248SOL    HW146816   3.234   2.278   8.078  0.4736  0.1298 -0.4306
15248SOL    HW246817   3.336   2.169   8.098 -0.7302 -0.7350  1.3233
15249SOL     OW46818   1.802   2.964   6.932  0.6493  0.3905  0.1381
15249SOL    HW146819   1.751   2.896   6.975  2.2223 -1.7915 -1.2369
15249SOL    HW246820   1.828   2.926   6.848  3.8373  1.6103  0.4047
15250SOL     OW46821   3.979   0.165   7.706 -0.0001 -0.3732  0.3621
15250SOL    HW146822   3.994   0.099   7.638 -2.5053 -0.9953  0.2969
15250SOL    HW246823   4.054   0.224   7.700 -0.8938  0.7014 -4.2614
15251SOL     OW46824   6.961   6.400   2.655  0.4336 -0.0423 -0.1348
15251SOL    HW146825   6.998   6.320   2.617 -0.8314 -1.0210  0.6160
15251SOL    HW246826   7.020   6.422   2.727  2.1912  1.1678 -1.8375
15252SOL     OW46827   2.779   0.043   2.803 -0.3045  0.4336 -0.0403
15252SOL    HW146828   2.794  -0.026   2.738  1.1225  1.1995 -0.5672
15252SOL    HW246829   2.858   0.097   2.799 -1.3413  2.0526  0.4091
15253SOL     OW46830   5.577   2.914   2.940 -0.3386  0.2488 -0.2060
15253SOL    HW146831   5.494   2.953   2.915  0.1267  2.5180  1.5158
15253SOL    HW246832   5.633   2.988   2.964  2.3167 -1.1457 -1.5415
15254SOL     OW46833   5.732   6.523   3.678  0.2470 -0.3037 -0.0096
15254SOL    HW146834   5.773   6.552   3.759 -1.4795 -2.0227  1.5715
15254SOL    HW246835   5.806   6.501   3.621  1.5058  0.4426  1.2700
15255SOL     OW46836   4.182   6.265   5.097 -0.0144 -0.3614 -0.0391
15255SOL    HW146837   4.114   6.249   5.031 -0.2764 -0.7250  0.3114
15255SOL    HW246838   4.262   6.280   5.047 -0.1179 -1.0800 -0.4289
15256SOL     OW46839   2.807   5.892   6.726 -0.3191 -0.6323 -0.0496
15256SOL    HW146840   2.797   5.797   6.721 -1.3928 -0.4586 -3.1934
15256SOL    HW246841   2.885   5.910   6.674 -0.1699  0.2365  0.4587
15257SOL     OW46842   4.218   5.081   2.933  0.1212 -0.0727 -0.2184
15257SOL    HW146843   4.162   5.036   2.871  0.4493 -1.1756  0.2510
15257SOL    HW246844   4.301   5.033   2.930  0.7292  0.9458 -0.2155
15258SOL     OW46845   6.316   3.415   7.906 -0.0959 -0.7484 -0.3736
15258SOL    HW146846   6.392   3.392   7.959  1.2755 -1.1018 -2.3452
15258SOL    HW246847   6.245   3.361   7.941  0.6561 -0.7592  1.2226
15259SOL     OW46848   2.598   7.804   2.815  0.0354  0.7142 -0.2247
15259SOL    HW146849   2.528   7.856   2.853  0.4446  0.6990  0.5665
15259SOL    HW246850   2.676   7.829   2.864  0.3805 -0.0596 -0.3658
15260SOL     OW46851   4.499   1.920   7.383  0.4309 -0.1794  0.0803
15260SOL    HW146852   4.506   1.862   7.459  1.8094  0.3435  0.3737
15260SOL    HW246853   4.490   1.861   7.308  1.4835 -0.7696  0.4065
15261SOL     OW46854   7.735   7.770   0.879  0.5493  0.3129  0.2283
15261SOL    HW146855   7.685   7.754   0.800  0.1648  0.6270  0.4060
15261SOL    HW246856   7.814   7.815   0.849  1.7191 -1.9319 -0.3007
15262SOL     OW46857   5.485   7.765   5.286 -0.6691 -0.6537  0.1168
15262SOL    HW146858   5.500   7.705   5.213  2.2435 -2.5877  2.1027
15262SOL    HW246859   5.413   7.725   5.334 -0.4014 -1.1940  0.0799
15263SOL     OW46860   2.427   2.695   2.361  0.5351  0.0618  0.1884
15263SOL    HW146861   2.430   2.704   2.265 -0.4372 -1.4368 -0.0088
15263SOL    HW246862   2.517   2.714   2.389  1.2180 -0.9530 -1.1809
15264SOL     OW46863   4.037   7.919   4.138 -0.4251 -0.1612 -0.0279
15264SOL    HW146864   3.978   7.919   4.063 -0.1873  0.4983 -0.2160
15264SOL    HW246865   3.985   7.955   4.210  0.1898  1.8499 -0.5541
15265SOL     OW46866   1.358   5.305   6.139 -0.1644 -0.2557  0.1665
15265SOL    HW146867   1.352   5.210   6.144  0.3442 -0.4037 -1.3975
15265SOL    HW246868   1.325   5.336   6.223 -2.0549 -1.7391  0.0342
15266SOL     OW46869   6.640   7.849   7.130 -0.1781  0.3901  0.0472
15266SOL    HW146870   6.623   7.759   7.158 -1.4773  0.6632  0.2082
15266SOL    HW246871   6.707   7.880   7.191 -0.8609  0.0303  1.0175
15267SOL     OW46872   5.317   2.126   2.614 -0.3689  0.2065  0.0025
15267SOL    HW146873   5.326   2.130   2.709 -0.4742 -0.6139  0.0579
15267SOL    HW246874   5.355   2.041   2.590  2.0529  1.4767 -0.9965
15268SOL     OW46875   1.465   2.364   5.934  0.1847  0.1051 -0.2583
15268SOL    HW146876   1.537   2.415   5.899 -0.4346  0.4810 -1.0053
15268SOL    HW246877   1.388   2.419   5.921 -0.1831 -0.0866  0.9531
15269SOL     OW46878   2.025   7.839   2.836  0.6729  0.5961 -0.2630
15269SOL    HW146879   2.023   7.756   2.883 -0.5700  0.4802 -0.4850
15269SOL    HW246880   2.090   7.826   2.767 -0.1011 -0.4981 -0.8198
15270SOL     OW46881   6.361   0.109   5.116  0.2235 -0.4621 -0.4039
15270SOL    HW146882   6.299   0.182   5.116  0.8401  0.0668 -0.6673
15270SOL    HW246883   6.354   0.071   5.029 -0.9221 -1.4462  0.0842
15271SOL     OW46884   0.667   5.814   7.804 -0.7401 -0.7188  0.0274
15271SOL    HW146885   0.583   5.858   7.791  0.6971  2.2260 -0.0288
15271SOL    HW246886   0.693   5.838   7.893 -0.2862 -2.2897  0.3480
15272SOL     OW46887   3.994   7.582   2.960  0.2484 -0.4740  0.2386
15272SOL    HW146888   4.041   7.664   2.976 -1.7038  0.3428  2.2446
15272SOL    HW246889   3.934   7.602   2.888  0.7715 -0.5909 -0.2352
15273SOL     OW46890   0.563   2.006   6.624  0.4830 -0.4391  0.0499
15273SOL    HW146891   0.626   1.947   6.665 -0.3328 -1.0286  0.5053
15273SOL    HW246892   0.572   1.990   6.530 -1.7010 -3.5471  0.1876
15274SOL     OW46893   0.688   6.689   1.529 -0.1779  0.7842  0.2902
15274SOL    HW146894   0.693   6.645   1.444 -0.4882  0.2709  0.5321
15274SOL    HW246895   0.673   6.781   1.508  2.7902  1.2452 -0.3214
15275SOL     OW46896   0.719   0.074   2.152 -0.2967  0.1243 -0.1891
15275SOL    HW146897   0.791   0.017   2.179 -1.6884 -1.2956  0.7741
15275SOL    HW246898   0.736   0.157   2.196 -0.2942 -0.8398  1.7482
15276SOL     OW46899   6.326   5.686   0.245  0.1791 -0.2375 -0.4270
15276SOL    HW146900   6.322   5.773   0.205 -0.2309  0.2775  0.7259
15276SOL    HW246901   6.272   5.631   0.188 -3.3306  1.2161  1.2153
15277SOL     OW46902   3.644   7.126   6.980  0.6004 -0.6156  0.1881
15277SOL    HW146903   3.614   7.035   6.971 -0.4589 -0.4000  1.3012
15277SOL    HW246904   3.721   7.131   6.924  0.8673 -2.2941  0.3455
15278SOL     OW46905   6.669   2.182   0.728 -0.3702  0.0898  0.2581
15278SOL    HW146906   6.697   2.266   0.692 -0.0314 -1.1723 -2.7453
15278SOL    HW246907   6.750   2.142   0.760 -0.3580  0.4895  0.7206
15279SOL     OW46908   2.678   1.922   4.417  0.1169 -0.0355 -0.7817
15279SOL    HW146909   2.733   1.896   4.343 -0.5252 -2.3144 -0.5400
15279SOL    HW246910   2.738   1.921   4.492 -0.0306 -1.8612 -0.6291
15280SOL     OW46911   3.685   7.379   7.564  0.1986 -0.6720 -0.8384
15280SOL    HW146912   3.629   7.384   7.642 -0.9966  1.1340 -1.7496
15280SOL    HW246913   3.686   7.286   7.542  0.0785 -1.1467  0.9698
15281SOL     OW46914   2.117   0.894   2.604 -0.1545  0.2011  0.0341
15281SOL    HW146915   2.078   0.935   2.527 -0.7706  2.0908  1.2796
15281SOL    HW246916   2.083   0.805   2.604 -3.0748  1.2085  0.0259
15282SOL     OW46917   5.052   3.248   6.601  0.0829 -0.1389 -0.0739
15282SOL    HW146918   5.008   3.203   6.673  0.2941 -0.3525 -0.0772
15282SOL    HW246919   4.982   3.271   6.540  0.0215 -0.8481 -0.2818
15283SOL     OW46920   0.391   5.267   4.848  0.1146 -0.0873 -0.6898
15283SOL    HW146921   0.339   5.303   4.919  1.8773 -0.1717  0.7045
15283SOL    HW246922   0.400   5.174   4.868  0.9412 -0.0415 -0.8020
15284SOL     OW46923   0.083   4.657   5.528  0.1373 -0.6624  0.2155
15284SOL    HW146924   0.071   4.683   5.619  3.4920 -1.7982  1.1312
15284SOL    HW246925   0.088   4.561   5.531  0.6641 -0.7052 -1.0917
15285SOL     OW46926   7.985   5.469   1.102 -0.4253 -0.2478 -0.0211
15285SOL    HW146927   8.014   5.514   1.181  0.0484 -1.8204  0.7517
15285SOL    HW246928   7.931   5.397   1.134  0.1062 -1.1549 -1.0969
15286SOL     OW46929   0.718   4.393   1.462  0.7318 -0.1387  0.6328
15286SOL    HW146930   0.789   4.443   1.422 -0.1382  1.0872  0.5743
15286SOL    HW246931   0.761   4.337   1.526  1.8992 -0.4882 -0.4233
15287SOL     OW46932   4.354   4.614   1.524  0.2097 -0.1091 -0.1812
15287SOL    HW146933   4.441   4.588   1.553  0.1083 -0.5091 -0.2341
15287SOL    HW246934   4.315   4.535   1.488  0.0106  0.1820 -0.6211
15288SOL     OW46935   2.174   7.874   6.934  0.1806 -0.4317  0.1862
15288SOL    HW146936   2.258   7.885   6.977  1.3468 -1.6483 -1.6071
15288SOL    HW246937   2.110   7.904   6.998  1.9251 -0.0002  1.8304
15289SOL     OW46938   3.438   5.675   5.213 -0.5016 -0.0568  0.1369
15289SOL    HW146939   3.511   5.735   5.222 -0.1950 -0.5529  1.0933
15289SOL    HW246940   3.442   5.645   5.122 -1.0140  1.7785 -0.5185
15290SOL     OW46941   4.147   4.413   3.025 -0.1594 -0.1820  0.2389
15290SOL    HW146942   4.156   4.321   3.000 -2.6606  0.0801 -2.0456
15290SOL    HW246943   4.174   4.462   2.947  0.3027  1.0243  1.1238
15291SOL     OW46944   7.125   2.931   8.149  0.3588  0.2914 -0.3565
15291SOL    HW146945   7.174   2.936   8.231  0.1187 -0.5948 -0.1514
15291SOL    HW246946   7.170   2.863   8.098 -1.6821 -1.8745  0.5689
15292SOL     OW46947   3.617   5.777   6.472  0.1353 -0.3112  0.4722
15292SOL    HW146948   3.645   5.692   6.439  0.4184  0.3499 -1.0700
15292SOL    HW246949   3.688   5.804   6.531  0.7449 -0.4987 -0.1606
15293SOL     OW46950   3.734   6.391   0.440  0.3340  0.2269 -0.1533
15293SOL    HW146951   3.806   6.448   0.413  1.1176 -0.3916  0.5957
15293SOL    HW246952   3.775   6.308   0.462 -0.8850 -0.9622 -2.0703
15294SOL     OW46953   6.030   1.601   2.995  0.5716 -0.2666  0.4022
15294SOL    HW146954   6.122   1.575   2.991  1.0367  1.2109  0.8625
15294SOL    HW246955   6.027   1.686   2.950 -0.2267  0.5023  1.8252
15295SOL     OW46956   5.693   6.267   6.023 -0.5158  0.2904  0.7589
15295SOL    HW146957   5.774   6.217   6.038  0.4320  1.8615  1.0482
15295SOL    HW246958   5.668   6.297   6.110  0.2514  2.2746  0.3350
15296SOL     OW46959   2.721   4.443   7.638  0.3210 -0.0873 -0.0057
15296SOL    HW146960   2.718   4.484   7.551  0.6149 -1.0588 -0.4876
15296SOL    HW246961   2.768   4.361   7.624 -1.0751 -1.0593  0.7300
15297SOL     OW46962   4.924   2.567   5.971 -0.1925  0.3963 -0.2972
15297SOL    HW146963   4.947   2.659   5.955  0.5543  0.1752 -0.5008
15297SOL    HW246964   4.836   2.571   6.008  0.2369  1.2603  0.6712
15298SOL     OW46965   6.302   7.898   4.738  0.0419 -0.5891 -0.2845
15298SOL    HW146966   6.228   7.851   4.777  2.1072 -2.7565  1.3021
15298SOL    HW246967   6.349   7.831   4.689  0.8636  0.8102 -1.4967
15299SOL     OW46968   2.251   7.491   0.467 -0.7624 -0.4682 -0.5410
15299SOL    HW146969   2.260   7.467   0.375  0.8378  0.4636 -0.6700
15299SOL    HW246970   2.222   7.410   0.510 -1.0940 -1.0383 -1.7813
15300SOL     OW46971   6.822   0.833   3.530 -0.1241  0.0319  0.2888
15300SOL    HW146972   6.890   0.875   3.583  0.2337 -1.0763  0.7463
15300SOL    HW246973   6.859   0.748   3.506 -1.0855 -0.3216 -0.0160
15301SOL     OW46974   7.936   4.919   1.055  0.5664 -0.3516  0.1774
15301SOL    HW146975   8.018   4.957   1.089  0.7519 -0.4235 -0.1862
15301SOL    HW246976   7.875   4.993   1.052  1.1804  0.1266 -1.3486
15302SOL     OW46977   4.635   0.518   7.334 -0.3078 -0.4042  0.0099
15302SOL    HW146978   4.651   0.495   7.426  1.1720 -0.8566 -0.3333
15302SOL    HW246979   4.574   0.592   7.338  0.9813  0.6353  1.4339
15303SOL     OW46980   4.406   4.548   2.164  0.5019  0.4583  0.8084
15303SOL    HW146981   4.330   4.499   2.134  0.2922  1.0576  0.3342
15303SOL    HW246982   4.369   4.619   2.217  0.8474 -0.4183  2.2941
15304SOL     OW46983   5.935   2.671   2.844 -0.5965 -0.2197  0.0837
15304SOL    HW146984   5.870   2.672   2.914 -0.7111  1.8725  0.0184
15304SOL    HW246985   5.914   2.748   2.791  1.5530  0.1812 -0.2718
15305SOL     OW46986   5.560   1.898   6.598  0.2255  0.1938 -0.0911
15305SOL    HW146987   5.534   1.825   6.655 -0.4038  0.4256 -0.0743
15305SOL    HW246988   5.621   1.859   6.536  0.7462 -0.1137  0.5940
15306SOL     OW46989   0.978   5.424   2.946  0.3105 -0.6395  0.5914
15306SOL    HW146990   1.060   5.413   2.995 -0.3571 -0.2738  1.8518
15306SOL    HW246991   0.916   5.457   3.011 -0.8019 -0.7564 -0.3757
15307SOL     OW46992   6.478   1.134   0.310 -0.5284 -0.2423  0.1420
15307SOL    HW146993   6.544   1.161   0.247 -2.0103  0.1753 -1.3232
15307SOL    HW246994   6.500   1.044   0.332  0.9853  0.1561  0.3640
15308SOL     OW46995   7.233   1.470   1.341 -0.2404 -0.0969 -0.6699
15308SOL    HW146996   7.165   1.427   1.394 -1.1044  0.9117 -0.9197
15308SOL    HW246997   7.296   1.502   1.405 -0.1081 -0.8527 -0.4134
15309SOL     OW46998   6.608   5.158   0.449 -0.1198 -0.7256  0.0850
15309SOL    HW146999   6.650   5.197   0.525 -0.4876  0.0518 -0.0938
15309SOL    HW247000   6.628   5.064   0.455 -1.2700 -0.8981  1.8781
15310SOL     OW47001   6.742   2.362   8.111 -0.6696 -0.5619 -0.2150
15310SOL    HW147002   6.788   2.358   8.195  0.0031 -0.6055 -0.5812
15310SOL    HW247003   6.791   2.303   8.054  0.1687  1.0417 -1.2539
15311SOL     OW47004   6.875   3.863   3.308  0.1140 -0.2581  0.0023
15311SOL    HW147005   6.788   3.902   3.301  0.3820  0.0822 -1.9516
15311SOL    HW247006   6.877   3.825   3.396 -1.5644  0.7545  0.5288
15312SOL     OW47007   5.643   4.790   2.047  0.3754  0.9919  0.9197
15312SOL    HW147008   5.708   4.850   2.012  0.1996  1.1351  0.8343
15312SOL    HW247009   5.595   4.759   1.970  0.7464  0.4052  0.9170
15313SOL     OW47010   6.906   4.516   6.876 -0.0461  0.2197 -0.5287
15313SOL    HW147011   6.900   4.457   6.801 -1.6099 -0.2012 -0.1151
15313SOL    HW247012   6.839   4.582   6.860 -0.5542 -0.0027  0.5788
15314SOL     OW47013   3.690   0.209   3.897  0.0835 -0.1057 -0.0623
15314SOL    HW147014   3.705   0.261   3.817  0.0897  1.0921  0.6863
15314SOL    HW247015   3.610   0.246   3.934  0.0676 -0.6702  0.4754
15315SOL     OW47016   0.854   1.686   3.994  0.2459  0.1124  0.0402
15315SOL    HW147017   0.780   1.631   3.967  0.6279 -1.0615  1.2805
15315SOL    HW247018   0.828   1.720   4.079  0.8873  0.1887  0.2061
15316SOL     OW47019   7.868   3.768   1.198 -0.2146  0.1675  0.2728
15316SOL    HW147020   7.775   3.751   1.216 -0.3463  1.8498  1.4124
15316SOL    HW247021   7.915   3.703   1.250 -0.7238 -1.2428 -0.9534
15317SOL     OW47022   0.439   3.132   1.760  0.1712 -0.2731 -0.7278
15317SOL    HW147023   0.424   3.039   1.746 -0.8886 -0.2443  0.1076
15317SOL    HW247024   0.510   3.154   1.699  1.2172 -1.8450 -0.1414
15318SOL     OW47025   6.865   3.110   6.538  0.1945 -0.2362 -0.0327
15318SOL    HW147026   6.873   3.022   6.500  0.1945 -0.0239 -0.5283
15318SOL    HW247027   6.954   3.144   6.539  0.1607 -0.1468 -0.0676
15319SOL     OW47028   1.791   0.994   5.135  0.4221 -0.4913 -0.4081
15319SOL    HW147029   1.864   0.944   5.171  0.5934 -3.0672 -3.8163
15319SOL    HW247030   1.713   0.945   5.162  0.1098  0.5964  0.7675
15320SOL     OW47031   6.004   2.162   7.936 -0.6046 -1.0468  0.2267
15320SOL    HW147032   6.082   2.106   7.946  0.6804  0.4286 -1.0370
15320SOL    HW247033   6.030   2.246   7.972 -1.9532 -0.7622  0.5928
15321SOL     OW47034   1.455   4.677   5.979  0.0201  0.1813  0.0275
15321SOL    HW147035   1.387   4.702   5.916  0.1549  1.6857  0.4313
15321SOL    HW247036   1.533   4.666   5.925 -0.0514  0.6463 -0.1827
15322SOL     OW47037   4.290   7.070   7.095 -0.0071  0.0102 -0.3278
15322SOL    HW147038   4.234   7.062   7.172 -0.7177  1.0402 -0.7135
15322SOL    HW247039   4.231   7.057   7.021  0.3041  0.8872 -0.7382
15323SOL     OW47040   4.716   3.020   8.025  0.4705 -0.1260 -0.2064
15323SOL    HW147041   4.780   3.084   7.993  0.2249  0.7827  1.0587
15323SOL    HW247042   4.761   2.936   8.019  1.9973  0.5567  1.1552
15324SOL     OW47043   0.160   1.310   1.421  0.0893  0.2036  0.1649
15324SOL    HW147044   0.238   1.362   1.439 -0.3323  0.5762  1.0232
15324SOL    HW247045   0.102   1.369   1.373  0.6706 -0.3539 -1.2465
15325SOL     OW47046   0.724   3.694   4.347  0.1871 -0.5411 -0.0847
15325SOL    HW147047   0.795   3.644   4.306  0.3356 -0.3648 -0.0485
15325SOL    HW247048   0.704   3.646   4.427  0.8480 -0.1354  0.3308
15326SOL     OW47049   5.967   2.874   0.926 -0.2122  0.2074  0.1967
15326SOL    HW147050   5.934   2.796   0.971 -0.1135 -0.0087 -0.1071
15326SOL    HW247051   5.938   2.947   0.982  0.0838 -0.0673  0.7156
15327SOL     OW47052   0.366   7.850   2.812 -0.5238 -0.3277 -0.3230
15327SOL    HW147053   0.280   7.878   2.778 -0.2822  1.4824  0.4114
15327SOL    HW247054   0.395   7.924   2.865  0.7511 -1.6086  0.8266
15328SOL     OW47055   7.628   1.793   1.585 -0.0832 -0.0472  0.7272
15328SOL    HW147056   7.636   1.875   1.634  0.5664 -0.6389  1.6397
15328SOL    HW247057   7.715   1.779   1.547 -0.4353  0.1321 -0.1715
15329SOL     OW47058   7.096   3.842   3.560 -0.0543  0.5414 -0.1021
15329SOL    HW147059   7.044   3.819   3.637  0.2691 -0.4291 -0.1708
15329SOL    HW247060   7.104   3.938   3.565  1.3607  0.3801  1.9719
15330SOL     OW47061   2.296   1.457   3.012  0.2809  0.1728  0.7644
15330SOL    HW147062   2.272   1.428   3.100 -0.0552 -0.1496  0.5639
15330SOL    HW247063   2.354   1.532   3.028  1.9185 -1.1358  1.3062
15331SOL     OW47064   2.584   0.077   6.450  0.3613 -0.1416  0.3599
15331SOL    HW147065   2.617   0.124   6.527 -0.2604 -0.2668  0.7009
15331SOL    HW247066   2.509   0.128   6.421  0.7907  0.0950 -0.3744
15332SOL     OW47067   1.672   3.326   0.412  0.4983  0.2663  0.2229
15332SOL    HW147068   1.624   3.287   0.339  2.3055 -1.4059 -0.1771
15332SOL    HW247069   1.717   3.402   0.374 -0.0105  0.4815  0.0501
15333SOL     OW47070   4.950   2.996   7.212 -0.2840  0.7711 -0.1720
15333SOL    HW147071   4.923   2.918   7.164 -0.1767  0.1091  0.8240
15333SOL    HW247072   5.030   3.025   7.167 -0.6300  0.6465 -0.8870
15334SOL     OW47073   7.088   0.276   4.381 -0.0813  0.5790  0.5206
15334SOL    HW147074   7.099   0.328   4.461 -0.8239  1.4103  0.0998
15334SOL    HW247075   7.171   0.230   4.370 -0.2465 -0.2149  2.2243
15335SOL     OW47076   2.559   4.656   3.127 -0.2139  0.0146  0.2326
15335SOL    HW147077   2.632   4.655   3.065 -0.8492  2.7104 -0.6740
15335SOL    HW247078   2.592   4.707   3.201 -0.8184  0.2801  0.3204
15336SOL     OW47079   7.144   0.229   6.412 -0.1991  0.2926  0.6475
15336SOL    HW147080   7.101   0.313   6.428 -0.4767  0.0400  1.2506
15336SOL    HW247081   7.108   0.199   6.329  0.1363  0.9148  0.2698
15337SOL     OW47082   2.819   6.306   5.226  0.5145  0.1201 -0.9080
15337SOL    HW147083   2.816   6.370   5.297  2.5921 -2.4366  1.6600
15337SOL    HW247084   2.739   6.255   5.236  0.2701  0.4401 -1.1661
15338SOL     OW47085   0.926   7.167   6.212 -0.2292  0.1274 -0.0962
15338SOL    HW147086   0.836   7.139   6.194 -0.2746 -0.2008  0.5918
15338SOL    HW247087   0.918   7.225   6.287  0.0039  1.1062 -0.8126
15339SOL     OW47088   1.961   5.385   1.148  0.0266 -0.3815  0.3222
15339SOL    HW147089   2.048   5.346   1.138  0.2743  0.5769 -2.1147
15339SOL    HW247090   1.901   5.317   1.117  0.1550 -0.1612 -0.4417
15340SOL     OW47091   2.006   3.986   4.315  0.5990  0.8653 -0.2236
15340SOL    HW147092   1.951   4.045   4.264  0.9711  0.8373 -0.6592
15340SOL    HW247093   2.024   3.913   4.256  1.3468  1.0118 -0.1871
15341SOL     OW47094   3.526   0.493   0.215 -0.3838  0.0380  0.3981
15341SOL    HW147095   3.612   0.462   0.243 -0.4837  0.3472  1.0792
15341SOL    HW247096   3.514   0.575   0.262  0.0265  1.3403 -1.6373
15342SOL     OW47097   4.189   5.785   1.582  0.3899 -0.2962 -0.2194
15342SOL    HW147098   4.165   5.736   1.660  0.3662 -0.4086 -0.2965
15342SOL    HW247099   4.276   5.820   1.601  0.1854  0.0678  0.0411
15343SOL     OW47100   1.380   2.058   5.669  0.0370 -0.2323 -0.1787
15343SOL    HW147101   1.340   1.974   5.692 -2.1541  0.7182 -0.2850
15343SOL    HW247102   1.390   2.054   5.573 -0.5634 -0.1737 -0.2466
15344SOL     OW47103   7.354   5.144   2.469  0.7358  0.0018  0.2878
15344SOL    HW147104   7.312   5.178   2.390  0.7134 -0.7033 -0.0119
15344SOL    HW247105   7.281   5.121   2.527  0.6914 -0.9898 -0.1347
15345SOL     OW47106   4.281   6.882   8.122 -0.4644 -0.4337 -0.1643
15345SOL    HW147107   4.324   6.831   8.053  0.3407 -0.0358  0.0305
15345SOL    HW247108   4.233   6.817   8.174 -0.3104 -0.8524 -0.5375
15346SOL     OW47109   1.797   4.704   1.952  0.2614 -0.2085  0.0908
15346SOL    HW147110   1.709   4.738   1.969 -0.4705 -1.8124 -0.3313
15346SOL    HW247111   1.838   4.772   1.898 -1.1448  0.0329 -0.7320
15347SOL     OW47112   3.288   7.999   4.126  0.1983 -0.4446 -0.4285
15347SOL    HW147113   3.368   7.949   4.114 -0.6766 -2.2406  0.7773
15347SOL    HW247114   3.266   7.988   4.219 -0.0793  2.1840 -0.1041
15348SOL     OW47115   5.240   4.377   6.690  0.2492  0.5720  0.2539
15348SOL    HW147116   5.250   4.472   6.693 -0.1262  0.7053 -1.5861
15348SOL    HW247117   5.325   4.345   6.660  0.1310  0.3926  0.1114
15349SOL     OW47118   2.292   4.371   4.931  0.3920  0.0455 -0.2845
15349SOL    HW147119   2.356   4.369   5.002 -0.4684  1.5051  0.5816
15349SOL    HW247120   2.243   4.452   4.946 -0.2136  0.0686 -2.1990
15350SOL     OW47121   2.163   3.392   5.652 -0.1410  0.0195  0.3946
15350SOL    HW147122   2.111   3.372   5.574  0.1629  0.6538  0.0163
15350SOL    HW247123   2.106   3.448   5.705 -0.2920 -0.2875  0.5569
15351SOL     OW47124   3.956   3.153   0.289 -0.1151 -0.5868 -0.9837
15351SOL    HW147125   3.888   3.087   0.276 -2.1678  0.8577  1.4281
15351SOL    HW247126   4.000   3.125   0.369 -0.3784  0.4023 -0.4775
15352SOL     OW47127   4.544   3.674   5.548  0.1053 -0.5214 -0.2685
15352SOL    HW147128   4.504   3.736   5.608 -1.4624 -3.2387  1.7072
15352SOL    HW247129   4.521   3.706   5.461  0.3247  2.1746  0.5562
15353SOL     OW47130   5.304   6.335   2.500  0.3199  0.4285  0.3099
15353SOL    HW147131   5.375   6.365   2.444  0.7720  0.7214  1.0303
15353SOL    HW247132   5.232   6.316   2.440  1.0395  0.0243 -0.4340
15354SOL     OW47133   3.448   6.636   2.736 -0.1164  0.1240 -1.2146
15354SOL    HW147134   3.528   6.585   2.730 -0.0716 -0.1708  1.1783
15354SOL    HW247135   3.378   6.572   2.745 -0.1634  0.3954  0.7794
15355SOL     OW47136   4.165   4.186   7.800  0.0288  0.6212  0.1444
15355SOL    HW147137   4.171   4.273   7.760 -0.0287  0.7194  0.3511
15355SOL    HW247138   4.201   4.197   7.888  2.0539 -0.0188 -0.5320
15356SOL     OW47139   1.998   2.096   7.949  0.3066  0.2580  0.1946
15356SOL    HW147140   2.093   2.083   7.955  0.1837 -0.5486  0.4160
15356SOL    HW247141   1.960   2.012   7.972 -0.4340 -0.0468 -1.9304
15357SOL     OW47142   4.652   3.733   7.696 -0.1756 -0.4714  0.1670
15357SOL    HW147143   4.563   3.744   7.663 -0.3050 -1.1099  0.2815
15357SOL    HW247144   4.643   3.674   7.771  0.1937  0.4962  0.9944
15358SOL     OW47145   0.054   2.381   6.911 -0.5257 -0.0163  0.2438
15358SOL    HW147146   0.051   2.308   6.973 -0.3301 -1.1399 -1.0342
15358SOL    HW247147  -0.033   2.380   6.869  0.2763 -1.1088 -1.5097
15359SOL     OW47148   6.871   6.496   5.331  0.6651 -0.7490  0.4382
15359SOL    HW147149   6.960   6.511   5.365  0.1726 -0.7546  1.8002
15359SOL    HW247150   6.819   6.478   5.409 -0.8460  0.7680 -0.1542
15360SOL     OW47151   2.785   0.391   1.571  0.0628 -0.1833  0.0560
15360SOL    HW147152   2.862   0.420   1.620  0.5331 -0.8616 -0.2706
15360SOL    HW247153   2.750   0.471   1.531  1.0180  0.0258 -0.3859
15361SOL     OW47154   2.283   0.544   4.635 -0.2893  0.4794  0.1156
15361SOL    HW147155   2.231   0.611   4.678  0.6204  0.5766  1.0888
15361SOL    HW247156   2.368   0.584   4.620 -0.8537  0.8523 -2.8424
15362SOL     OW47157   0.546   2.865   2.885 -0.6609  0.2552 -0.5132
15362SOL    HW147158   0.624   2.820   2.853 -1.3753 -1.2153 -0.2677
15362SOL    HW247159   0.577   2.920   2.957  0.4840  1.3677 -1.7973
15363SOL     OW47160   4.334   5.242   4.761 -0.4504  0.5332  0.2837
15363SOL    HW147161   4.341   5.146   4.763 -2.4106  0.3385 -0.3965
15363SOL    HW247162   4.353   5.269   4.851 -0.5116 -0.5439  0.6373
15364SOL     OW47163   4.088   2.197   6.983  0.4589 -0.1157  0.0003
15364SOL    HW147164   4.107   2.201   6.890 -0.2208 -0.1688 -0.1458
15364SOL    HW247165   4.140   2.123   7.015 -1.8328 -2.3028 -0.9840
15365SOL     OW47166   6.075   7.425   4.329  0.1195 -0.6346 -0.5551
15365SOL    HW147167   6.161   7.388   4.346  1.3149  2.3865  0.6397
15365SOL    HW247168   6.061   7.489   4.399 -3.9200 -2.1851  0.3596
15366SOL     OW47169   7.102   5.195   0.265 -0.6985 -0.3154 -0.1412
15366SOL    HW147170   7.013   5.191   0.232 -1.4957 -1.0893  1.9723
15366SOL    HW247171   7.105   5.274   0.319  0.5585  0.8835 -1.8419
15367SOL     OW47172   6.711   7.709   4.924 -0.4548 -0.2574  0.6334
15367SOL    HW147173   6.717   7.803   4.939 -2.3288 -0.1918  1.2897
15367SOL    HW247174   6.784   7.672   4.972 -1.1028  0.7014  2.4410
15368SOL     OW47175   4.153   2.046   4.019  0.1170  0.4135 -0.4213
15368SOL    HW147176   4.165   2.140   4.007 -0.2195  0.3155 -1.6328
15368SOL    HW247177   4.190   2.006   3.940  1.0035 -0.5401  0.4329
15369SOL     OW47178   3.115   0.758   4.313 -0.1269 -0.3317  0.3360
15369SOL    HW147179   3.179   0.830   4.307 -0.5858  0.0747  0.1892
15369SOL    HW247180   3.112   0.736   4.406  1.8296 -1.8502  0.1070
15370SOL     OW47181   2.776   4.366   3.175 -0.4171 -0.6570  0.1180
15370SOL    HW147182   2.802   4.457   3.191 -0.1092 -0.6039 -0.6386
15370SOL    HW247183   2.731   4.339   3.255  0.1429 -0.0755  0.6373
15371SOL     OW47184   3.690   4.012   3.607 -0.2451 -0.4095  0.0737
15371SOL    HW147185   3.717   4.053   3.689 -0.2973  1.6432 -0.8791
15371SOL    HW247186   3.602   4.047   3.591 -1.7729 -3.4688  0.8191
15372SOL     OW47187   4.855   0.588   1.305  0.2614  0.7765 -0.0154
15372SOL    HW147188   4.907   0.667   1.291  1.1792  0.0546 -0.8823
15372SOL    HW247189   4.912   0.517   1.277 -0.7562 -0.1494  0.1928
15373SOL     OW47190   4.227   3.914   1.108  0.0096 -0.1163 -0.1055
15373SOL    HW147191   4.158   3.850   1.091  0.1563  0.0673 -1.5004
15373SOL    HW247192   4.293   3.865   1.157  0.5003 -1.2929 -1.8679
15374SOL     OW47193   0.097   0.189   2.463 -0.2280  0.3649 -0.3099
15374SOL    HW147194   0.188   0.212   2.445  0.1118 -1.0858 -0.5730
15374SOL    HW247195   0.066   0.258   2.522  1.2353  0.5368  0.2887
15375SOL     OW47196   1.614   2.580   1.668 -0.6352  0.7949  0.3868
15375SOL    HW147197   1.653   2.606   1.584 -0.0150  0.0869  0.4445
15375SOL    HW247198   1.685   2.537   1.715 -0.8820  1.4940  1.4337
15376SOL     OW47199   1.925   6.539   4.077 -0.0272 -0.0392  0.0088
15376SOL    HW147200   1.999   6.599   4.088 -0.9579  0.9366  1.2291
15376SOL    HW247201   1.862   6.567   4.143 -0.9050 -1.7574 -0.0583
15377SOL     OW47202   2.125   7.877   1.586  0.7798  1.0480  0.2146
15377SOL    HW147203   2.179   7.952   1.560 -0.4606  2.0804  0.4563
15377SOL    HW247204   2.104   7.893   1.678  0.3197  0.5308  0.2062
15378SOL     OW47205   0.437   0.262   4.715  0.3136 -0.5233  0.3413
15378SOL    HW147206   0.417   0.197   4.782 -0.1834  0.0971  0.8077
15378SOL    HW247207   0.354   0.307   4.699  0.8370  0.6301  0.7320
15379SOL     OW47208   7.375   5.129   0.114 -0.0201 -0.4196  0.1556
15379SOL    HW147209   7.419   5.175   0.042  0.9296  1.0077  1.5858
15379SOL    HW247210   7.288   5.168   0.118 -0.3392 -1.0127 -0.6439
15380SOL     OW47211   4.247   0.054   0.547 -0.4167  0.0533  0.0290
15380SOL    HW147212   4.274   0.092   0.630 -0.5890  2.0121 -0.7593
15380SOL    HW247213   4.194  -0.022   0.571 -2.3442  1.8379  1.7747
15381SOL     OW47214   4.048   7.598   7.212 -0.4712  0.1856  0.0965
15381SOL    HW147215   4.081   7.687   7.228 -0.7397  0.5423 -1.1393
15381SOL    HW247216   4.114   7.540   7.250  0.5081  0.9133 -0.4272
15382SOL     OW47217   5.839   3.387   3.989  0.3971  0.7533 -0.4151
15382SOL    HW147218   5.872   3.400   3.900  0.1114 -0.5682 -0.7344
15382SOL    HW247219   5.907   3.334   4.031 -0.5785 -0.7235 -0.6220
15383SOL     OW47220   7.346   6.019   3.374 -0.5690 -0.3426 -0.0879
15383SOL    HW147221   7.438   5.996   3.389 -0.2983  1.8012  2.1521
15383SOL    HW247222   7.349   6.085   3.304 -0.5022 -0.7742 -0.4998
15384SOL     OW47223   2.259   1.716   2.454 -0.4288  0.3252  0.3391
15384SOL    HW147224   2.286   1.631   2.419 -0.5559 -0.2527  1.5566
15384SOL    HW247225   2.329   1.776   2.429  0.6107 -0.5465  1.0354
15385SOL     OW47226   2.061   6.664   2.864  0.0683  0.5323 -0.0397
15385SOL    HW147227   1.987   6.726   2.871 -0.2089  0.6569 -2.9136
15385SOL    HW247228   2.021   6.578   2.876 -0.6098  0.5939 -1.6525
15386SOL     OW47229   7.867   2.427   0.363  0.1873  0.6716  0.2035
15386SOL    HW147230   7.775   2.435   0.336 -0.0816 -0.0820  0.8853
15386SOL    HW247231   7.917   2.453   0.285 -0.5969  0.4584 -0.3767
15387SOL     OW47232   2.111   0.154   5.863 -0.3857  0.2847  0.2879
15387SOL    HW147233   2.157   0.165   5.946 -0.6253  2.8035  0.1622
15387SOL    HW247234   2.168   0.098   5.811  0.1539 -0.6719  1.8278
15388SOL     OW47235   7.267   4.750   3.251  0.2235 -0.0144  0.4745
15388SOL    HW147236   7.228   4.828   3.290 -0.7817 -0.0318 -0.4386
15388SOL    HW247237   7.201   4.682   3.263  0.3967 -0.3041 -0.1557
15389SOL     OW47238   0.904   4.668   4.241  0.2915  0.2159 -0.2457
15389SOL    HW147239   0.925   4.613   4.316  0.5434  1.2767  0.4928
15389SOL    HW247240   0.827   4.718   4.268 -0.1695 -0.0388 -1.0464
15390SOL     OW47241   1.880   6.575   4.650  0.4090  0.4202 -0.3923
15390SOL    HW147242   1.876   6.596   4.743  1.9036 -1.4018  0.1309
15390SOL    HW247243   1.951   6.629   4.616  0.3958  0.4870 -0.3129
15391SOL     OW47244   1.606   3.911   3.804 -0.0295 -0.0948 -0.3281
15391SOL    HW147245   1.549   3.880   3.874 -1.0496  0.8128 -0.7278
15391SOL    HW247246   1.625   4.002   3.828  0.5364 -0.1206 -0.6561
15392SOL     OW47247   2.861   4.404   2.514 -0.0713 -0.3756 -0.0192
15392SOL    HW147248   2.853   4.311   2.493 -2.9316 -0.4039  0.7631
15392SOL    HW247249   2.833   4.450   2.435 -0.9913 -0.2599  0.3620
15393SOL     OW47250   1.895   6.141   6.743  0.3316 -0.4652 -0.1566
15393SOL    HW147251   1.925   6.206   6.807 -1.4281  0.0163  0.2157
15393SOL    HW247252   1.900   6.058   6.790  0.3816 -0.2925  0.1464
15394SOL     OW47253   7.998   5.780   7.663  0.4534 -0.2924 -0.3612
15394SOL    HW147254   7.944   5.751   7.590 -1.6209  1.4295  0.3893
15394SOL    HW247255   8.018   5.871   7.644 -0.4718  0.3093  1.3686
15395SOL     OW47256   6.434   5.747   1.392 -0.2251  0.0582 -0.2039
15395SOL    HW147257   6.493   5.689   1.439 -1.0817 -1.4181 -0.8771
15395SOL    HW247258   6.395   5.692   1.324 -0.6493  1.5689 -1.2524
15396SOL     OW47259   3.836   0.720   4.297  0.3529  0.0945 -0.4561
15396SOL    HW147260   3.816   0.758   4.383  1.4328  0.4841 -0.3572
15396SOL    HW247261   3.877   0.636   4.317  0.8589  0.3120 -0.5848
15397SOL     OW47262   0.814   4.662   3.641 -0.0658  0.0827  0.3884
15397SOL    HW147263   0.769   4.599   3.698  0.0548  1.5873  2.2498
15397SOL    HW247264   0.907   4.643   3.655 -0.0084  1.0281  1.4559
15398SOL     OW47265   0.551   4.007   4.730  0.2200  0.2149 -0.3146
15398SOL    HW147266   0.583   4.049   4.810 -0.3741 -0.0498  0.0626
15398SOL    HW247267   0.475   4.059   4.704  0.7622  0.6648 -1.0487
15399SOL     OW47268   6.965   4.478   7.436 -0.0942 -0.0211 -0.1299
15399SOL    HW147269   6.922   4.395   7.415 -3.0562  1.8965 -2.4135
15399SOL    HW247270   7.035   4.486   7.372  0.4909 -0.8996  0.3779
15400SOL     OW47271   4.170   6.634   2.861 -0.4125 -0.6600  0.5103
15400SOL    HW147272   4.203   6.643   2.771 -0.7556 -2.4791  0.1714
15400SOL    HW247273   4.169   6.724   2.894  0.1720  0.0084 -1.1352
15401SOL     OW47274   1.916   1.101   5.771  0.2954  0.1543  0.4783
15401SOL    HW147275   1.982   1.032   5.765 -1.2675 -1.3691 -0.3660
15401SOL    HW247276   1.850   1.066   5.831 -0.4863  0.9586  0.1222
15402SOL     OW47277   3.913   0.928   5.224 -0.1039 -0.2622 -0.3338
15402SOL    HW147278   3.854   0.853   5.219 -0.3784  0.0229 -1.8739
15402SOL    HW247279   3.901   0.973   5.140  1.7607  0.2105 -0.3783
15403SOL     OW47280   5.019   7.376   1.254  0.2824  0.3784  0.6054
15403SOL    HW147281   5.092   7.334   1.209 -1.4247 -1.4093 -0.6252
15403SOL    HW247282   4.990   7.445   1.194  0.3134  0.4139  0.6310
15404SOL     OW47283   2.663   7.013   2.783  0.4214 -0.4738  0.1498
15404SOL    HW147284   2.627   6.945   2.840  2.3592 -0.7571  1.1097
15404SOL    HW247285   2.702   6.965   2.710 -2.4493 -0.0980 -1.7986
15405SOL     OW47286   7.024   0.029   5.432 -0.4367 -0.3521 -0.4227
15405SOL    HW147287   7.088   0.090   5.467 -0.4488  0.3846 -1.6250
15405SOL    HW247288   7.041  -0.053   5.478  2.0429 -0.4739 -1.4432
15406SOL     OW47289   5.850   0.733   5.602  0.7713 -0.1220 -0.4507
15406SOL    HW147290   5.782   0.667   5.615  0.1820  0.5822  0.1377
15406SOL    HW247291   5.900   0.733   5.684 -0.1923  1.2214  0.1688
15407SOL     OW47292   2.630   3.609   6.965  0.1922 -0.1436 -0.2337
15407SOL    HW147293   2.702   3.546   6.972  0.2194 -0.4274 -2.3928
15407SOL    HW247294   2.553   3.555   6.945 -0.2047  0.3371 -0.0193
15408SOL     OW47295   7.211   1.190   4.895 -0.5774 -0.1511  0.0779
15408SOL    HW147296   7.297   1.150   4.884  0.8309  2.2420  1.4714
15408SOL    HW247297   7.205   1.254   4.824 -0.3693  0.9832  1.0572
15409SOL     OW47298   6.947   7.310   2.047 -0.3892  0.5483  0.2897
15409SOL    HW147299   6.932   7.398   2.081 -1.0856 -0.1533  1.9079
15409SOL    HW247300   7.015   7.321   1.981 -0.9794  2.3943 -0.0577
15410SOL     OW47301   2.041   7.461   2.657 -0.2409 -0.3250 -0.7101
15410SOL    HW147302   2.125   7.498   2.630 -0.8322  0.9386 -0.9218
15410SOL    HW247303   2.019   7.399   2.587  0.6559 -0.9382 -0.4750
15411SOL     OW47304   6.365   5.159   4.912  0.6064  0.5043 -0.0924
15411SOL    HW147305   6.318   5.216   4.973  1.2776  0.5504  0.3934
15411SOL    HW247306   6.457   5.165   4.940  0.6363 -1.1731  0.2626
15412SOL     OW47307   7.203   2.294   3.146 -0.0239  0.1725 -0.1966
15412SOL    HW147308   7.123   2.337   3.174 -0.4439 -0.2474 -0.7244
15412SOL    HW247309   7.274   2.349   3.180 -0.5362  1.4564 -1.1232
15413SOL     OW47310   7.526   5.830   5.781  0.6063  0.3331 -0.7986
15413SOL    HW147311   7.490   5.919   5.791  1.4805  0.4804  1.8176
15413SOL    HW247312   7.516   5.791   5.867  3.8329 -0.6895 -0.7761
15414SOL     OW47313   7.091   2.745   1.040  0.1386  0.0554 -0.2987
15414SOL    HW147314   7.045   2.805   0.981  1.7564  0.4287 -1.2679
15414SOL    HW247315   7.162   2.798   1.077 -0.4512 -0.3665  1.4965
15415SOL     OW47316   0.205   1.355   2.599 -0.2401  0.3994 -0.3387
15415SOL    HW147317   0.149   1.430   2.580  1.5233  1.4347 -1.7419
15415SOL    HW247318   0.255   1.341   2.519  2.4877  0.4322  1.2227
15416SOL     OW47319   7.786   0.383   0.015  0.3828  0.2900  0.0810
15416SOL    HW147320   7.827   0.465   0.044  0.4027  0.3552 -0.1259
15416SOL    HW247321   7.740   0.350   0.092 -0.5295  1.0606 -0.1140
15417SOL     OW47322   0.493   6.923   7.325  0.0585  0.2789  0.5441
15417SOL    HW147323   0.569   6.867   7.307  0.7231  0.9597  1.1812
15417SOL    HW247324   0.425   6.889   7.267  0.4662 -1.1386  0.8496
15418SOL     OW47325   3.689   2.411   3.836  0.2122 -0.2902  0.9961
15418SOL    HW147326   3.687   2.322   3.801  1.3112  0.5653 -1.4861
15418SOL    HW247327   3.658   2.466   3.764  3.0701  1.6723  1.0641
15419SOL     OW47328   7.648   3.372   2.635  0.0643 -0.3854  0.4626
15419SOL    HW147329   7.633   3.322   2.716 -2.9221 -0.8692 -0.2503
15419SOL    HW247330   7.562   3.410   2.615  1.8363  4.0216  0.1907
15420SOL     OW47331   0.725   3.290   0.512  0.1554 -0.8922 -0.2776
15420SOL    HW147332   0.780   3.220   0.546 -1.5873 -1.9347  0.5216
15420SOL    HW247333   0.740   3.363   0.571  1.9490 -0.5445 -1.0889
15421SOL     OW47334   0.266   6.573   4.972 -0.8424  0.2720  0.5714
15421SOL    HW147335   0.198   6.562   5.038 -1.6428  1.9544  0.1007
15421SOL    HW247336   0.299   6.662   4.986 -0.4525  0.3715 -0.7638
15422SOL     OW47337   6.764   7.123   1.101  0.3526 -0.3121 -0.6217
15422SOL    HW147338   6.801   7.190   1.158 -2.0856 -0.3799  1.2179
15422SOL    HW247339   6.752   7.047   1.158  0.6423 -1.4496 -2.0235
15423SOL     OW47340   2.490   0.304   7.839 -0.0987  0.5347  0.7641
15423SOL    HW147341   2.447   0.232   7.791  0.4117  0.4255  0.4564
15423SOL    HW247342   2.495   0.273   7.929  1.8578 -0.6878  0.3028
15424SOL     OW47343   2.956   3.778   4.599 -0.4027 -0.5176 -0.1417
15424SOL    HW147344   2.905   3.778   4.518  0.4937 -1.7792 -0.7414
15424SOL    HW247345   2.898   3.735   4.663 -0.2819 -1.5349 -0.6993
15425SOL     OW47346   7.664   7.048   0.318 -0.1644  0.1460  0.3134
15425SOL    HW147347   7.708   7.123   0.278 -1.1393  1.7889  2.1381
15425SOL    HW247348   7.573   7.074   0.325 -0.5754 -1.3162  0.7839
15426SOL     OW47349   7.928   4.147   5.868 -0.3967 -0.2472  0.2445
15426SOL    HW147350   7.905   4.139   5.776  1.1861 -1.7086 -0.0842
15426SOL    HW247351   8.020   4.121   5.872  0.7087  3.2352  1.7333
15427SOL     OW47352   7.280   0.722   5.828 -0.0674 -0.0151  0.1173
15427SOL    HW147353   7.354   0.767   5.869 -0.5008  1.0395 -0.2258
15427SOL    HW247354   7.229   0.792   5.787 -0.0806 -0.9477 -1.5464
15428SOL     OW47355   2.905   3.083   3.510  0.2275  0.3144  0.3676
15428SOL    HW147356   2.988   3.083   3.464  0.7909  0.5679  1.3642
15428SOL    HW247357   2.863   3.000   3.485 -0.3177  1.2180 -2.0167
15429SOL     OW47358   1.092   3.055   5.190 -0.4497  0.0268  0.5522
15429SOL    HW147359   1.038   3.068   5.267 -2.8489 -1.1395 -0.8316
15429SOL    HW247360   1.067   3.126   5.131 -0.7388 -0.7231 -0.2406
15430SOL     OW47361   6.142   7.353   0.119  0.0475  0.5532  0.3239
15430SOL    HW147362   6.144   7.447   0.105  0.3907  0.5968  0.6379
15430SOL    HW247363   6.077   7.320   0.057 -0.4746  1.0608  0.6023
15431SOL     OW47364   2.966   6.325   5.604  0.6602 -0.1689 -0.7692
15431SOL    HW147365   2.878   6.351   5.575  0.5122 -0.1447 -0.2958
15431SOL    HW247366   2.951   6.276   5.685  1.2213  1.5304  0.4197
15432SOL     OW47367   2.006   2.261   0.612 -0.5071  0.0393 -0.0867
15432SOL    HW147368   1.932   2.311   0.647  0.7882 -0.0494  3.0486
15432SOL    HW247369   2.083   2.314   0.631  0.6586 -1.9280  1.0209
15433SOL     OW47370   7.466   4.610   1.772 -0.5604  0.1522 -0.0578
15433SOL    HW147371   7.489   4.663   1.695 -0.5147 -0.4374 -0.4548
15433SOL    HW247372   7.546   4.563   1.794 -0.6102  0.2174  0.2752
15434SOL     OW47373   4.388   2.115   6.165 -0.7899 -0.6158 -0.1199
15434SOL    HW147374   4.311   2.102   6.110 -0.4653 -1.0448 -0.4824
15434SOL    HW247375   4.409   2.027   6.197 -0.0423 -0.6100 -0.5831
15435SOL     OW47376   2.004   7.569   2.930  0.0483 -0.0039 -0.2819
15435SOL    HW147377   1.914   7.553   2.959  0.5437 -0.5626  0.9981
15435SOL    HW247378   2.021   7.500   2.865 -1.1896  1.4734 -2.3194
15436SOL     OW47379   7.825   3.516   3.427 -0.2909 -0.4218  0.1179
15436SOL    HW147380   7.799   3.602   3.395  1.8054  0.3649  0.3975
15436SOL    HW247381   7.825   3.525   3.523  0.6080 -0.5039  0.1307
15437SOL     OW47382   1.799   4.334   2.352 -0.5672 -0.4701  0.0084
15437SOL    HW147383   1.878   4.312   2.401 -0.3573 -1.9077 -0.9178
15437SOL    HW247384   1.829   4.344   2.262 -1.1345  1.0038 -0.0491
15438SOL     OW47385   4.515   1.128   3.285 -0.8695 -0.1361 -0.4033
15438SOL    HW147386   4.439   1.075   3.262  0.1242 -1.6576 -0.3129
15438SOL    HW247387   4.485   1.184   3.356 -2.5667  1.0312 -1.9387
15439SOL     OW47388   5.756   0.328   1.340 -0.4401 -0.3069 -0.1385
15439SOL    HW147389   5.691   0.366   1.400 -0.8071 -3.5787  1.7590
15439SOL    HW247390   5.727   0.357   1.253 -1.9771  1.6933  0.9328
15440SOL     OW47391   1.719   3.412   2.495  0.3086  0.2499 -0.0608
15440SOL    HW147392   1.729   3.317   2.498 -0.1257  0.1909 -0.4369
15440SOL    HW247393   1.790   3.442   2.438 -0.1879  0.0510 -0.7955
15441SOL     OW47394   5.772   4.538   3.689  0.0112  0.0601 -0.4594
15441SOL    HW147395   5.768   4.552   3.784 -0.6848 -1.9026 -0.1575
15441SOL    HW247396   5.832   4.465   3.678  0.3460  0.4852 -1.5937
15442SOL     OW47397   0.130   6.586   6.823 -0.3031  0.0059  0.2694
15442SOL    HW147398   0.112   6.540   6.905  2.8209 -0.7909  0.6659
15442SOL    HW247399   0.059   6.559   6.764 -0.2595 -3.0472  1.4092
15443SOL     OW47400   2.152   7.827   3.903  0.4007 -0.0155 -0.5073
15443SOL    HW147401   2.065   7.848   3.870  0.3311  1.1222  0.3059
15443SOL    HW247402   2.158   7.732   3.898 -0.9897 -0.1333 -0.3582
15444SOL     OW47403   2.485   0.970   1.923  0.4032 -0.0552  0.3052
15444SOL    HW147404   2.515   0.921   1.999 -1.6401 -0.2180  1.0744
15444SOL    HW247405   2.417   1.028   1.957 -0.5327 -0.0980 -1.3772
15445SOL     OW47406   6.167   1.742   7.417  0.4591  0.5020 -0.0174
15445SOL    HW147407   6.238   1.756   7.353 -0.2414  1.4513 -0.6164
15445SOL    HW247408   6.191   1.797   7.492  1.0191 -0.2103  0.3373
15446SOL     OW47409   1.670   3.587   2.099  0.0618  0.4645  0.5777
15446SOL    HW147410   1.587   3.620   2.133 -1.7104 -1.0551 -1.9956
15446SOL    HW247411   1.707   3.661   2.051 -0.4355  0.7644  0.6471
15447SOL     OW47412   4.793   7.785   3.568 -0.2905  0.2688 -0.0110
15447SOL    HW147413   4.806   7.746   3.654 -0.8059  0.4749  0.1675
15447SOL    HW247414   4.701   7.771   3.549 -0.1725  0.1999 -0.5456
15448SOL     OW47415   3.314   3.019   1.440  0.2687 -0.1278  0.1428
15448SOL    HW147416   3.376   3.067   1.385  0.7096 -1.0249 -0.1646
15448SOL    HW247417   3.318   2.930   1.407 -3.7412  0.3471 -2.2404
15449SOL     OW47418   6.326   2.818   6.784 -0.0377  0.3677 -0.3784
15449SOL    HW147419   6.367   2.757   6.846 -0.5713 -0.6155 -0.9724
15449SOL    HW247420   6.398   2.847   6.728  0.5275  1.5814  0.9367
15450SOL     OW47421   1.257   7.232   0.405 -0.5104  0.2517  0.3161
15450SOL    HW147422   1.218   7.223   0.492  1.2248 -1.1144  1.0242
15450SOL    HW247423   1.341   7.276   0.421 -0.5791  0.8071 -0.7883
15451SOL     OW47424   6.234   0.035   0.714 -0.0152  0.8043  0.2964
15451SOL    HW147425   6.326   0.029   0.742  0.2657 -0.6778 -0.8291
15451SOL    HW247426   6.184   0.022   0.794  0.7407  1.0688  0.8310
15452SOL     OW47427   5.078   2.341   3.227 -0.2421  0.0724  0.1691
15452SOL    HW147428   5.063   2.436   3.225  1.0036  0.3600  1.8811
15452SOL    HW247429   5.121   2.322   3.143  2.4954  1.6579  1.0663
15453SOL     OW47430   3.920   5.708   5.954 -0.2813 -0.0631  0.3750
15453SOL    HW147431   3.875   5.641   6.004 -0.0096  1.6373  3.1099
15453SOL    HW247432   3.855   5.777   5.942 -0.7230 -0.8595 -2.8501
15454SOL     OW47433   1.976   4.307   2.622  0.3359 -0.1329  0.0196
15454SOL    HW147434   2.054   4.266   2.659 -0.6492 -2.7099 -0.5016
15454SOL    HW247435   1.903   4.266   2.670 -0.7354  1.6316 -0.0334
15455SOL     OW47436   1.412   7.112   6.669  0.1437 -0.0626 -0.4295
15455SOL    HW147437   1.470   7.086   6.598  2.3472  1.4054  0.7165
15455SOL    HW247438   1.327   7.124   6.627  1.7287  2.6123 -3.3032
15456SOL     OW47439   7.432   4.432   7.446  0.4331 -0.0088  0.7486
15456SOL    HW147440   7.504   4.467   7.498  0.6514 -2.1773  2.0077
15456SOL    HW247441   7.355   4.442   7.502  0.1305  0.3547  0.2707
15457SOL     OW47442   3.332   4.941   4.136  0.4713  0.0109  0.0889
15457SOL    HW147443   3.257   4.945   4.195  0.9717 -0.0673  0.7473
15457SOL    HW247444   3.382   4.865   4.167 -0.0002 -0.9268 -1.3450
15458SOL     OW47445   7.603   3.996   3.872 -0.3980 -0.2818 -0.0618
15458SOL    HW147446   7.585   4.071   3.816 -0.6375 -0.9252 -0.8627
15458SOL    HW247447   7.538   3.930   3.846 -0.0462 -0.8519  0.4644
15459SOL     OW47448   6.545   2.253   1.228  0.0504 -0.3542  0.2326
15459SOL    HW147449   6.557   2.192   1.301 -1.3682  0.4932  1.2332
15459SOL    HW247450   6.595   2.330   1.253  0.3600 -0.4284 -0.1611
15460SOL     OW47451   2.222   2.425   3.041 -0.1594 -0.1585  0.0766
15460SOL    HW147452   2.129   2.417   3.017  0.0346  0.4515 -0.9748
15460SOL    HW247453   2.225   2.404   3.134 -1.2601 -0.8023 -0.0080
15461SOL     OW47454   0.811   1.820   3.551 -0.0251 -0.3518 -0.0195
15461SOL    HW147455   0.768   1.735   3.559  0.0362 -0.5067 -1.1668
15461SOL    HW247456   0.764   1.877   3.612 -0.9116 -0.8919 -0.1841
15462SOL     OW47457   2.335   0.812   4.911  0.3082  0.0522  0.1255
15462SOL    HW147458   2.343   0.900   4.873 -0.5645  0.0028 -0.1984
15462SOL    HW247459   2.421   0.794   4.948  0.6597  0.8213 -0.2906
15463SOL     OW47460   3.260   7.515   4.026  0.1521 -0.1303  0.1161
15463SOL    HW147461   3.172   7.534   4.058 -0.2137  1.0235 -1.4132
15463SOL    HW247462   3.292   7.600   3.993  1.5645 -0.6733  0.0022
15464SOL     OW47463   4.710   2.506   1.763 -0.0421  0.4721  0.0489
15464SOL    HW147464   4.733   2.425   1.717 -1.0189  0.3779 -0.2950
15464SOL    HW247465   4.782   2.520   1.824  0.1812 -0.6171  0.0628
15465SOL     OW47466   3.792   7.004   7.241  0.2961 -0.2902  0.4588
15465SOL    HW147467   3.877   6.960   7.241 -0.4639 -1.8146  0.4398
15465SOL    HW247468   3.770   7.013   7.149  0.1984 -0.3752  0.4739
15466SOL     OW47469   1.562   3.166   0.200  0.2653  0.2904  0.2308
15466SOL    HW147470   1.549   3.225   0.125 -0.2282  0.7256  0.6471
15466SOL    HW247471   1.581   3.081   0.161 -2.4928 -0.0978 -0.4681
15467SOL     OW47472   1.111   4.619   7.132 -0.5200  0.0432  0.0004
15467SOL    HW147473   1.092   4.710   7.157  1.0050 -0.0319  1.6450
15467SOL    HW247474   1.081   4.612   7.041  0.5723  2.6061 -0.6502
15468SOL     OW47475   2.223   5.494   2.393 -0.1686  0.4750 -0.3606
15468SOL    HW147476   2.198   5.550   2.319 -0.9559  0.1235 -0.3722
15468SOL    HW247477   2.195   5.406   2.366  1.1013  0.0583 -0.3631
15469SOL     OW47478   2.578   7.189   4.014 -0.1905 -0.5869  0.9000
15469SOL    HW147479   2.652   7.195   4.074 -0.0103 -1.1624  0.7418
15469SOL    HW247480   2.557   7.095   4.011 -0.6554 -0.4779  0.6174
15470SOL     OW47481   3.072   7.443   3.289  0.8032  0.1309  0.6409
15470SOL    HW147482   3.042   7.376   3.350  0.5807 -0.6119 -0.2677
15470SOL    HW247483   3.167   7.437   3.292  0.7892 -0.0828  0.7124
15471SOL     OW47484   0.928   4.805   5.150 -0.5771 -0.6383  0.0133
15471SOL    HW147485   0.920   4.881   5.209  0.3640 -0.6221  0.1419
15471SOL    HW247486   1.005   4.825   5.097  0.7732 -2.2753  1.2388
15472SOL     OW47487   4.274   7.646   0.913 -0.3170 -0.2784 -0.2662
15472SOL    HW147488   4.354   7.666   0.961 -0.0537 -1.0381 -0.3833
15472SOL    HW247489   4.220   7.725   0.922  0.5286  0.3183 -0.3646
15473SOL     OW47490   7.706   4.522   1.881 -0.4770  0.1555 -0.0687
15473SOL    HW147491   7.754   4.604   1.890 -0.0281 -0.2327  1.5074
15473SOL    HW247492   7.754   4.473   1.814  2.1638 -0.6834  2.2151
15474SOL     OW47493   5.532   5.355   2.799 -0.1884 -0.3859  0.0504
15474SOL    HW147494   5.556   5.328   2.710 -0.3074 -2.0411  0.4945
15474SOL    HW247495   5.545   5.276   2.853 -0.8801  0.3620  1.3646
15475SOL     OW47496   7.484   2.304   5.146 -0.6845 -0.4600  0.1880
15475SOL    HW147497   7.540   2.227   5.156 -1.8390 -1.3916 -0.2271
15475SOL    HW247498   7.516   2.347   5.067 -0.6310 -1.0577 -0.1191
15476SOL     OW47499   6.825   1.448   3.910 -0.1974 -0.6283 -0.0445
15476SOL    HW147500   6.795   1.520   3.854  1.7830 -0.3913 -0.8666
15476SOL    HW247501   6.775   1.458   3.991 -2.1055 -0.1158 -1.2169
15477SOL     OW47502   3.357   4.541   6.799 -0.1601 -0.3033 -0.2599
15477SOL    HW147503   3.427   4.504   6.853  0.8714  0.7232 -0.8561
15477SOL    HW247504   3.353   4.483   6.723 -0.1530 -0.5221 -0.0958
15478SOL     OW47505   7.879   0.350   3.864 -0.0435  0.1313 -0.0403
15478SOL    HW147506   7.785   0.368   3.873  0.0301  0.0888  0.9222
15478SOL    HW247507   7.897   0.362   3.771 -0.9374  0.4707 -0.1787
15479SOL     OW47508   1.194   1.522   0.494 -0.3559  0.0902  0.0429
15479SOL    HW147509   1.109   1.494   0.460  0.4563 -2.7972  0.1319
15479SOL    HW247510   1.173   1.593   0.555 -2.7837 -0.9301  0.5236
15480SOL     OW47511   6.447   4.900   4.732  0.6181  0.4848  0.1716
15480SOL    HW147512   6.470   4.808   4.714  3.0990  1.0529  0.0384
15480SOL    HW247513   6.427   4.902   4.825  1.9800  0.0170  0.5008
15481SOL     OW47514   5.702   0.063   3.176  0.5212 -0.0804 -0.1676
15481SOL    HW147515   5.694   0.130   3.244 -0.2187 -0.1193 -0.2052
15481SOL    HW247516   5.792   0.032   3.183  0.7107  0.5421  0.2056
15482SOL     OW47517   3.304   0.913   0.237  0.1694 -0.1337 -0.1565
15482SOL    HW147518   3.249   0.867   0.301 -1.8645  1.4584 -0.6669
15482SOL    HW247519   3.358   0.971   0.289 -0.3015 -0.0357  0.2309
15483SOL     OW47520   5.961   6.578   0.247  0.3716 -0.4590 -0.8966
15483SOL    HW147521   5.916   6.529   0.177 -0.9922 -0.1023 -0.3085
15483SOL    HW247522   5.994   6.510   0.305  1.6348 -0.7662 -1.9232
15484SOL     OW47523   2.913   1.865   4.265  0.0167 -0.4017 -0.5193
15484SOL    HW147524   2.995   1.893   4.306 -0.0731 -1.2794  0.2788
15484SOL    HW247525   2.927   1.881   4.172  0.1784  1.7411 -0.1853
15485SOL     OW47526   7.489   3.020   6.913 -1.0741 -0.1172 -0.0524
15485SOL    HW147527   7.509   2.996   7.003  1.0643 -1.2729 -0.7592
15485SOL    HW247528   7.544   3.096   6.896  0.3977 -1.3368 -1.0427
15486SOL     OW47529   1.938   0.313   2.468 -0.3888 -0.1812  0.1474
15486SOL    HW147530   1.937   0.282   2.558  0.1948  0.3583  0.3419
15486SOL    HW247531   1.877   0.255   2.422  0.9142 -1.8482  0.4245
15487SOL     OW47532   5.313   1.757   5.696  0.1619  0.3080 -0.2526
15487SOL    HW147533   5.235   1.722   5.653  0.9415  0.0804 -1.5080
15487SOL    HW247534   5.373   1.777   5.625  1.1646  0.7159  0.6852
15488SOL     OW47535   6.205   4.194   1.876 -0.3684  0.2869  0.2996
15488SOL    HW147536   6.269   4.129   1.904 -1.7471 -0.5948  1.5386
15488SOL    HW247537   6.204   4.188   1.780  0.5453 -0.4937  0.3333
15489SOL     OW47538   2.315   5.595   2.860  1.2135 -0.5742 -0.0107
15489SOL    HW147539   2.261   5.531   2.907  0.2471  0.6423  0.6250
15489SOL    HW247540   2.252   5.645   2.808  1.7429  0.6580  0.4827
15490SOL     OW47541   6.917   2.361   2.135  0.0900  0.4498  0.1904
15490SOL    HW147542   6.950   2.427   2.196  1.8687  0.8218 -1.0984
15490SOL    HW247543   6.981   2.360   2.064 -0.2019 -2.2353 -0.1431
15491SOL     OW47544   7.222   0.672   3.007  0.2301  0.0396 -0.0569
15491SOL    HW147545   7.203   0.638   2.919 -3.6873 -1.7217  1.2356
15491SOL    HW247546   7.188   0.761   3.006 -2.2992 -0.8438  0.2753
15492SOL     OW47547   6.335   1.014   7.392  0.3731  0.4878  0.4783
15492SOL    HW147548   6.397   1.041   7.324  1.2655 -2.4214  0.0008
15492SOL    HW247549   6.385   0.951   7.445 -1.4170 -0.0155  1.6248
15493SOL     OW47550   5.143   8.000   4.373 -1.0760 -0.1645 -0.1804
15493SOL    HW147551   5.200   8.060   4.324  2.0860 -1.3616  1.7716
15493SOL    HW247552   5.119   8.048   4.452 -1.0552 -0.4084 -0.0257
15494SOL     OW47553   3.213   0.548   6.526 -0.1334 -0.5802 -0.4948
15494SOL    HW147554   3.235   0.526   6.436 -0.2160 -0.2295 -0.6033
15494SOL    HW247555   3.298   0.567   6.568 -0.1979  0.5544 -0.8542
15495SOL     OW47556   2.920   6.915   5.814 -0.1288  0.2301 -0.2831
15495SOL    HW147557   2.882   6.995   5.779 -2.3294 -0.1448  1.0587
15495SOL    HW247558   2.959   6.941   5.898 -0.9690 -0.1115  0.2198
15496SOL     OW47559   8.030   4.479   1.441 -0.4041 -0.7523  0.5342
15496SOL    HW147560   8.121   4.482   1.470 -0.4834 -3.0088  1.2095
15496SOL    HW247561   8.032   4.428   1.360 -0.7541  1.7677 -1.1912
15497SOL     OW47562   3.286   7.150   0.988  0.0392 -0.3924  0.2001
15497SOL    HW147563   3.267   7.070   0.939  0.6850 -0.9594  0.8507
15497SOL    HW247564   3.256   7.132   1.077 -0.7699  0.4839  0.1168
15498SOL     OW47565   0.512   5.655   6.696  0.6120  0.3771  0.1024
15498SOL    HW147566   0.563   5.624   6.771  0.5931  0.1964  0.0431
15498SOL    HW247567   0.422   5.628   6.715  0.6455  0.1165 -0.0948
15499SOL     OW47568   0.323   7.100   8.017  0.2954  0.4578 -0.5810
15499SOL    HW147569   0.264   7.161   8.061  0.5233 -0.2703  0.7752
15499SOL    HW247570   0.406   7.146   8.012  0.2225  0.6086 -0.4179
15500SOL     OW47571   4.248   6.775   7.452 -0.2932 -0.9973 -0.4285
15500SOL    HW147572   4.258   6.704   7.515 -0.4070 -0.2813  0.4270
15500SOL    HW247573   4.269   6.736   7.367  5.3536 -0.8650  0.4811
15501SOL     OW47574   5.264   0.798   1.145  0.3235 -0.0942  0.0381
15501SOL    HW147575   5.221   0.732   1.091 -1.6480 -0.9453  2.4531
15501SOL    HW247576   5.355   0.768   1.152 -0.1303 -1.6345 -0.2869
15502SOL     OW47577   4.503   6.923   6.008  0.0994 -0.1669  0.3591
15502SOL    HW147578   4.451   6.922   5.928 -1.8752 -0.1335  1.5813
15502SOL    HW247579   4.547   6.837   6.009 -2.2343 -1.4392  0.6814
15503SOL     OW47580   0.155   3.647   7.097  0.4759  0.1994 -0.4558
15503SOL    HW147581   0.221   3.686   7.040 -0.9926  0.6827 -1.9120
15503SOL    HW247582   0.102   3.721   7.127  0.2450 -0.2302  0.2158
15504SOL     OW47583   1.674   1.640   6.339  0.4125 -0.0773 -0.1621
15504SOL    HW147584   1.665   1.706   6.408  1.2769 -0.0159 -0.0901
15504SOL    HW247585   1.761   1.657   6.302 -0.2232  0.1964 -1.5994
15505SOL     OW47586   1.358   3.382   8.034  0.2163 -0.6653  0.1730
15505SOL    HW147587   1.402   3.298   8.024 -0.5314 -1.0014 -0.4649
15505SOL    HW247588   1.424   3.440   8.072  0.1937 -2.0311  2.4556
15506SOL     OW47589   4.963   0.298   0.577  0.4724  0.2033  0.2307
15506SOL    HW147590   4.900   0.240   0.535 -1.2608  0.8699  1.7379
15506SOL    HW247591   4.993   0.250   0.654  1.4260  0.0956 -0.2029
15507SOL     OW47592   2.794   4.724   6.266 -0.3262 -0.0025 -0.2491
15507SOL    HW147593   2.819   4.785   6.336  2.2947 -1.8218  0.5375
15507SOL    HW247594   2.832   4.762   6.187  0.3782 -0.0652  0.0521
15508SOL     OW47595   5.678   3.610   4.247 -0.0085  0.8075 -0.1727
15508SOL    HW147596   5.631   3.555   4.184 -2.3057  1.6722  0.6621
15508SOL    HW247597   5.617   3.681   4.267  1.0641  1.1643  2.1737
15509SOL     OW47598   4.035   3.304   4.719 -0.4290 -0.9981  0.0761
15509SOL    HW147599   4.084   3.373   4.765 -2.5577  1.4848 -1.1168
15509SOL    HW247600   3.955   3.293   4.770 -1.1419 -0.8886 -0.9839
15510SOL     OW47601   6.990   1.280   6.683 -0.5671  0.1235 -0.3965
15510SOL    HW147602   7.021   1.365   6.714 -0.3485 -0.0137 -0.2378
15510SOL    HW247603   6.957   1.297   6.594 -1.4420  0.5748 -0.0032
15511SOL     OW47604   5.612   3.496   0.280 -0.5558 -0.5324  0.3613
15511SOL    HW147605   5.547   3.526   0.217 -3.2549 -4.2850  1.0075
15511SOL    HW247606   5.662   3.429   0.234  0.2150 -0.4691  1.0692
15512SOL     OW47607   3.323   2.174   5.889  0.2192  0.4046 -0.0463
15512SOL    HW147608   3.390   2.235   5.857  1.8663 -0.1226  2.1161
15512SOL    HW247609   3.325   2.185   5.984  1.5848 -3.8580  0.6325
15513SOL     OW47610   6.041   2.546   6.979  0.5279  0.1712 -0.3935
15513SOL    HW147611   6.104   2.617   6.992  0.7485 -0.1356  0.2160
15513SOL    HW247612   5.964   2.574   7.028  0.0533  0.7013 -1.4058
15514SOL     OW47613   0.698   4.673   0.838  0.5129  0.2297 -0.1037
15514SOL    HW147614   0.740   4.758   0.821  0.3949  0.2493 -0.2989
15514SOL    HW247615   0.754   4.609   0.795  1.7578 -0.0272  1.7833
15515SOL     OW47616   6.642   4.151   7.939 -0.4668 -0.3161  0.1129
15515SOL    HW147617   6.624   4.057   7.943 -0.2912 -0.3234  0.9248
15515SOL    HW247618   6.648   4.171   7.846 -2.1148 -0.7983 -0.1229
15516SOL     OW47619   7.273   3.311   4.699  0.1407 -0.1783 -0.3123
15516SOL    HW147620   7.188   3.298   4.740 -0.2952 -0.5275 -1.2969
15516SOL    HW247621   7.336   3.271   4.760 -0.3517  0.3895  0.5840
15517SOL     OW47622   7.618   3.978   5.194  0.2091  0.0486  0.2355
15517SOL    HW147623   7.527   3.952   5.209  0.7032 -1.7306  0.3291
15517SOL    HW247624   7.614   4.073   5.182 -1.8254 -0.1547 -1.1348
15518SOL     OW47625   3.858   5.102   0.054  0.0480 -0.1550  0.3860
15518SOL    HW147626   3.953   5.099   0.069  0.2548  1.1154 -0.4959
15518SOL    HW247627   3.820   5.117   0.141  0.7479  0.4590  0.5989
15519SOL     OW47628   3.544   1.217   4.752 -0.2513  0.0712 -0.1995
15519SOL    HW147629   3.529   1.132   4.712  0.2014 -1.0708  1.8585
15519SOL    HW247630   3.458   1.257   4.758 -0.8838 -1.3744  1.0646
15520SOL     OW47631   1.473   5.701   2.045  0.1795 -0.3180 -0.3203
15520SOL    HW147632   1.451   5.611   2.022  0.0753 -0.6725  1.0806
15520SOL    HW247633   1.515   5.736   1.966 -1.7146 -0.8950 -1.6765
15521SOL     OW47634   1.614   6.967   2.102  0.3507  0.1851  0.1348
15521SOL    HW147635   1.642   6.876   2.111 -0.4112  0.0495  1.4174
15521SOL    HW247636   1.548   6.965   2.033 -0.3583 -0.4042  0.8203
15522SOL     OW47637   7.472   7.382   7.888 -0.0524 -0.7854 -0.2017
15522SOL    HW147638   7.525   7.430   7.825  1.1838  0.0823  1.4147
15522SOL    HW247639   7.507   7.293   7.885  0.7446 -0.4899  0.0237
15523SOL     OW47640   6.344   5.134   5.284 -0.4342  0.0366 -0.0932
15523SOL    HW147641   6.310   5.066   5.342  1.1084  0.9212  1.9845
15523SOL    HW247642   6.439   5.118   5.283 -0.1883  1.4415 -0.5222
15524SOL     OW47643   4.183   7.949   5.464  0.3058  0.4795  0.3567
15524SOL    HW147644   4.132   7.957   5.384  0.6317  0.0164  0.0955
15524SOL    HW247645   4.255   7.889   5.441  0.5540  0.5536  0.9150
15525SOL     OW47646   5.495   5.317   3.595 -0.0694  0.2008 -0.6279
15525SOL    HW147647   5.501   5.251   3.664  0.6321  0.0062 -0.8671
15525SOL    HW247648   5.486   5.400   3.641  0.7275  0.1067 -0.2820
15526SOL     OW47649   5.225   3.695   7.078 -0.1518 -0.5291 -0.2493
15526SOL    HW147650   5.183   3.772   7.115 -0.3525 -0.8278  0.1487
15526SOL    HW247651   5.161   3.659   7.017 -0.3233 -0.7646  0.0692
15527SOL     OW47652   5.584   1.401   2.370  0.2192 -0.6517  0.3033
15527SOL    HW147653   5.585   1.458   2.292  0.5052 -2.6055 -1.2067
15527SOL    HW247654   5.660   1.429   2.421  2.3720 -1.7597 -2.0805
15528SOL     OW47655   3.601   6.731   5.230 -0.1527  0.0173  0.1424
15528SOL    HW147656   3.528   6.690   5.184 -1.2509  1.1513  0.8152
15528SOL    HW247657   3.616   6.812   5.182  1.1712 -0.5247 -0.4184
15529SOL     OW47658   2.321   3.991   1.186 -0.0781  0.3413 -0.7107
15529SOL    HW147659   2.346   3.901   1.166 -0.3205  0.1259 -0.0790
15529SOL    HW247660   2.384   4.045   1.139  0.2426 -0.1660 -0.8652
15530SOL     OW47661   5.404   0.282   1.193 -0.8018  0.0371  0.1352
15530SOL    HW147662   5.468   0.348   1.165 -1.6975  0.7341 -0.3336
15530SOL    HW247663   5.406   0.216   1.124 -1.0832  0.4131 -0.2407
15531SOL     OW47664   6.921   6.198   1.465 -0.2214 -0.3833 -0.4170
15531SOL    HW147665   6.857   6.127   1.479  0.0303 -0.6204 -0.4709
15531SOL    HW247666   6.983   6.162   1.401  0.1073 -0.2407 -0.1775
15532SOL     OW47667   7.484   7.779   1.980  0.5286 -0.1964 -0.0900
15532SOL    HW147668   7.400   7.812   1.946 -0.0030 -0.8343  0.5728
15532SOL    HW247669   7.544   7.854   1.972 -0.2438  0.4385 -0.0747
15533SOL     OW47670   7.452   1.666   1.800 -0.6676 -0.2708 -0.1256
15533SOL    HW147671   7.520   1.665   1.867 -0.4404 -2.8613 -0.3238
15533SOL    HW247672   7.446   1.758   1.774  1.6200  0.2721  1.0141
15534SOL     OW47673   2.395   0.749   6.772  0.0279  0.3914 -0.2560
15534SOL    HW147674   2.482   0.788   6.778 -0.1775  0.9834 -0.9539
15534SOL    HW247675   2.400   0.691   6.696  0.3135 -0.9187  0.7398
15535SOL     OW47676   2.276   8.064   4.737 -0.3852  0.0960 -0.3110
15535SOL    HW147677   2.349   8.022   4.782  1.3216  2.6803 -0.4280
15535SOL    HW247678   2.224   8.103   4.808 -0.1939  0.4054 -0.3372
15536SOL     OW47679   5.391   2.106   5.202 -0.1930  0.2964 -0.7902
15536SOL    HW147680   5.359   2.088   5.114  0.2205 -0.5402 -0.7854
15536SOL    HW247681   5.484   2.126   5.191 -0.2857  0.8390 -0.6123
15537SOL     OW47682   6.151   3.096   5.318  0.1237  0.2739 -0.0281
15537SOL    HW147683   6.148   3.039   5.395 -0.6974  0.4753  0.1041
15537SOL    HW247684   6.194   3.044   5.250 -3.1190 -1.6492 -0.8057
15538SOL     OW47685   7.614   5.858   3.122 -0.5815  0.4089 -0.1805
15538SOL    HW147686   7.519   5.869   3.125 -0.4206  1.7187  0.9514
15538SOL    HW247687   7.630   5.779   3.174 -0.9275  1.3941  1.5132
15539SOL     OW47688   1.498   2.302   3.066  0.4073 -0.2888 -0.4748
15539SOL    HW147689   1.506   2.276   2.974 -0.4728  1.2174 -1.0149
15539SOL    HW247690   1.520   2.395   3.066 -2.0756  0.3777  0.3881
15540SOL     OW47691   5.300   5.158   6.159 -0.9067  0.0838 -0.2014
15540SOL    HW147692   5.369   5.107   6.116 -1.0828  1.1440 -1.8234
15540SOL    HW247693   5.345   5.202   6.231 -0.0386  0.1700 -0.7751
15541SOL     OW47694   1.887   6.086   7.110  0.0487 -0.1369 -0.5235
15541SOL    HW147695   1.872   6.147   7.182  0.7319 -0.2764 -0.2569
15541SOL    HW247696   1.833   6.120   7.038 -2.2916 -1.1724  0.6490
15542SOL     OW47697   4.722   4.284   0.731  0.1566 -0.2899 -0.3296
15542SOL    HW147698   4.664   4.216   0.766  0.0006  0.6118  1.3059
15542SOL    HW247699   4.808   4.243   0.727 -0.1628 -0.9424 -0.5281
15543SOL     OW47700   4.718   7.157   6.275  0.2559 -0.5213  0.2524
15543SOL    HW147701   4.764   7.076   6.254  0.7780  0.1031 -1.1392
15543SOL    HW247702   4.626   7.131   6.281  0.4617 -1.2816  0.2188
15544SOL     OW47703   7.273   2.922   1.162 -0.1202  0.0541 -0.2480
15544SOL    HW147704   7.271   2.843   1.216  0.8675  1.1123  1.4333
15544SOL    HW247705   7.354   2.967   1.188 -0.7183  1.6907 -1.0555
15545SOL     OW47706   2.256   0.088   0.456  0.1696  0.0489  0.2750
15545SOL    HW147707   2.247   0.059   0.546  0.8926  0.4412  0.4780
15545SOL    HW247708   2.334   0.144   0.456  0.5177 -0.4184 -0.7053
15546SOL     OW47709   7.883   6.529   2.524 -0.0442 -0.3688 -0.4981
15546SOL    HW147710   7.845   6.617   2.523  0.4307 -0.0882  1.5760
15546SOL    HW247711   7.968   6.539   2.480 -0.1953  0.1136 -0.6816
15547SOL     OW47712   7.834   0.478   5.454  0.5634 -0.3701  0.2652
15547SOL    HW147713   7.777   0.544   5.493  1.4813  0.4184  0.3133
15547SOL    HW247714   7.831   0.404   5.515  1.6778  0.6956  1.6830
15548SOL     OW47715   7.140   1.065   4.010 -0.0600 -0.2329 -0.1021
15548SOL    HW147716   7.052   1.086   3.978 -0.6530 -1.4826  0.6499
15548SOL    HW247717   7.162   1.137   4.069 -0.7766 -0.1434  0.0683
15549SOL     OW47718   6.679   6.786   2.240 -0.0272 -0.0373 -0.3643
15549SOL    HW147719   6.650   6.700   2.212  0.0079 -0.3569  0.5359
15549SOL    HW247720   6.627   6.848   2.188 -1.4204 -0.6018  0.3181
15550SOL     OW47721   7.579   3.963   4.177 -0.8778 -0.2142 -0.0787
15550SOL    HW147722   7.509   3.902   4.201 -0.1320 -0.6375  1.1715
15550SOL    HW247723   7.595   3.947   4.084 -0.8965 -1.7474  0.1509
15551SOL     OW47724   1.372   5.480   1.918  0.1574 -0.1196  0.2924
15551SOL    HW147725   1.360   5.513   1.829  0.0630 -1.6725 -0.2992
15551SOL    HW247726   1.369   5.385   1.909  1.0122 -0.3247  1.8360
15552SOL     OW47727   4.254   1.724   2.867 -0.3484 -0.2001  0.1875
15552SOL    HW147728   4.296   1.638   2.876  1.1381  0.4317 -0.3046
15552SOL    HW247729   4.327   1.786   2.868 -0.8796  0.7712 -4.0350
15553SOL     OW47730   4.267   4.116   7.208  0.1390  0.0013 -0.5923
15553SOL    HW147731   4.266   4.153   7.119 -0.6215  0.8055 -0.2600
15553SOL    HW247732   4.289   4.190   7.264  1.7762 -0.7453 -0.1883
15554SOL     OW47733   5.570   1.270   3.548  0.0221  0.2113  0.1526
15554SOL    HW147734   5.581   1.179   3.519 -0.8083 -0.3580  1.5012
15554SOL    HW247735   5.572   1.321   3.468 -2.4433 -1.2837 -0.9826
15555SOL     OW47736   7.734   1.580   4.366 -0.4285 -0.5219 -0.4109
15555SOL    HW147737   7.744   1.614   4.455  0.6577  0.5654 -0.9273
15555SOL    HW247738   7.811   1.611   4.319 -0.5796 -1.7567 -1.5396
15556SOL     OW47739   0.936   7.701   3.000  0.6400 -0.3046 -0.2435
15556SOL    HW147740   0.970   7.622   3.043 -0.4518 -0.2858  0.6920
15556SOL    HW247741   1.000   7.720   2.932  1.8571 -0.9809  0.6606
15557SOL     OW47742   5.612   4.100   7.332 -0.3261  0.3200 -0.6368
15557SOL    HW147743   5.649   4.184   7.304  1.9079 -0.0477  0.9425
15557SOL    HW247744   5.575   4.118   7.418 -0.1512 -0.2271 -0.4448
15558SOL     OW47745   1.202   0.575   4.114  0.3563 -0.3984 -0.4293
15558SOL    HW147746   1.170   0.649   4.164  0.1703 -1.9520  1.9086
15558SOL    HW247747   1.287   0.554   4.153  0.1901 -1.6939 -0.7189
15559SOL     OW47748   0.020   8.053   5.147  0.0722 -0.3401 -0.1875
15559SOL    HW147749  -0.030   8.120   5.101 -0.5671  0.2112  1.2229
15559SOL    HW247750   0.076   8.103   5.207  0.3449 -1.0327  0.1440
15560SOL     OW47751   1.784   7.263   6.643  0.0476  0.0066  0.1628
15560SOL    HW147752   1.690   7.269   6.627  0.4008  1.5079 -1.7218
15560SOL    HW247753   1.798   7.312   6.724 -0.8775 -0.9934  0.9499
15561SOL     OW47754   0.934   0.047   4.591 -0.1310 -0.2954  0.0799
15561SOL    HW147755   0.962   0.057   4.500 -1.2829  2.1356 -0.0794
15561SOL    HW247756   0.895   0.131   4.614  1.0764 -0.4499  3.1965
15562SOL     OW47757   4.765   4.893   5.020 -0.2883  0.6236  0.0825
15562SOL    HW147758   4.797   4.809   4.986  1.8697  0.7342  1.6500
15562SOL    HW247759   4.677   4.901   4.985  0.5416 -0.8432 -2.6454
15563SOL     OW47760   6.186   4.071   5.196 -0.2855 -0.6468  0.6244
15563SOL    HW147761   6.175   4.152   5.246  0.7262 -0.0695 -0.0459
15563SOL    HW247762   6.100   4.054   5.158  0.0853  1.6650 -1.4891
15564SOL     OW47763   5.441   5.226   2.221  0.0970  0.2144  0.0379
15564SOL    HW147764   5.390   5.305   2.242 -1.8502 -1.0304  0.2722
15564SOL    HW247765   5.425   5.212   2.128 -0.8764 -0.7278  0.3169
15565SOL     OW47766   4.794   1.763   5.030 -0.0965 -0.0355 -0.5127
15565SOL    HW147767   4.847   1.814   5.091  0.8777 -0.5267 -0.9105
15565SOL    HW247768   4.734   1.713   5.085  0.4326 -0.0988  0.0156
15566SOL     OW47769   5.334   1.756   1.312  0.0075 -0.2359  0.0807
15566SOL    HW147770   5.327   1.663   1.288  0.7282  0.0447 -1.3655
15566SOL    HW247771   5.426   1.777   1.295 -0.3423  0.9450 -0.4381
15567SOL     OW47772   1.038   7.471   3.095 -0.6707 -0.0103  0.5672
15567SOL    HW147773   1.020   7.414   3.020 -1.4100  1.7228 -0.6272
15567SOL    HW247774   1.103   7.423   3.146 -1.1141 -1.8223 -0.4803
15568SOL     OW47775   3.518   0.523   6.987 -0.1231 -0.2116  0.0642
15568SOL    HW147776   3.535   0.432   6.962  2.2203  0.2859 -0.3849
15568SOL    HW247777   3.514   0.570   6.903 -3.0913 -0.0787  0.1758
15569SOL     OW47778   1.282   6.096   6.426  0.2584  0.2034  0.1787
15569SOL    HW147779   1.218   6.145   6.477 -0.0440  0.2183 -0.2075
15569SOL    HW247780   1.286   6.141   6.342  0.1821 -0.2671 -0.0851
15570SOL     OW47781   8.004   2.991   4.524  0.0312  0.0407 -0.3787
15570SOL    HW147782   7.968   2.904   4.504  0.1138  0.0251 -0.4577
15570SOL    HW247783   8.094   2.988   4.492  0.5917 -0.4267  1.1597
15571SOL     OW47784   2.718   2.458   3.792 -0.0449 -0.7210  0.4827
15571SOL    HW147785   2.684   2.368   3.790  2.3142 -1.6847  1.3561
15571SOL    HW247786   2.812   2.449   3.782  0.1139  1.8368 -1.4793
15572SOL     OW47787   0.545   6.580   2.120 -0.2309 -0.4191  0.3623
15572SOL    HW147788   0.549   6.549   2.029  0.5732  1.0234 -0.1286
15572SOL    HW247789   0.451   6.586   2.140 -0.4772  0.8321 -0.9747
15573SOL     OW47790   4.717   5.237   2.227  0.2285 -0.2898  0.0877
15573SOL    HW147791   4.751   5.149   2.246 -0.1444 -0.5441 -0.4289
15573SOL    HW247792   4.653   5.253   2.297  0.6170 -0.2413  0.4412
15574SOL     OW47793   3.101   1.097   2.851 -0.0363  0.8831 -0.4804
15574SOL    HW147794   3.176   1.084   2.909  0.6344  1.2608 -1.2505
15574SOL    HW247795   3.088   1.012   2.809 -0.1318  0.7815 -0.2496
15575SOL     OW47796   3.912   7.840   6.105  0.2499  0.4209  0.1418
15575SOL    HW147797   3.875   7.792   6.180  3.4896 -1.7093  0.5967
15575SOL    HW247798   3.839   7.848   6.043 -1.6351 -0.9773  2.0201
15576SOL     OW47799   4.325   6.379   5.899  0.5618  0.0020 -0.3014
15576SOL    HW147800   4.299   6.345   5.813  0.7219  2.0307 -1.2001
15576SOL    HW247801   4.270   6.331   5.961  0.1704 -1.2392 -1.5480
15577SOL     OW47802   2.866   2.402   7.584 -0.4838  0.9699  0.0421
15577SOL    HW147803   2.899   2.407   7.674 -0.5924  1.6734  0.0477
15577SOL    HW247804   2.771   2.395   7.593 -0.3959 -0.6047  0.0128
15578SOL     OW47805   5.548   4.273   0.516 -0.8561  0.0663  0.5436
15578SOL    HW147806   5.558   4.233   0.603 -1.5436 -0.6478  0.3042
15578SOL    HW247807   5.637   4.292   0.488 -0.6107  0.0604  1.2904
15579SOL     OW47808   2.435   2.857   3.685 -0.1292 -0.8843  0.2686
15579SOL    HW147809   2.476   2.870   3.600 -1.5188  0.7557 -0.2209
15579SOL    HW247810   2.496   2.803   3.734  2.2604  0.8520 -0.6342
15580SOL     OW47811   3.768   5.884   0.428  0.0968 -0.5176 -0.4524
15580SOL    HW147812   3.785   5.904   0.336 -0.2432 -0.5338 -0.5165
15580SOL    HW247813   3.844   5.921   0.474 -0.6831  1.2744 -0.5229
15581SOL     OW47814   5.763   3.514   1.961  0.1309 -0.0742 -0.5650
15581SOL    HW147815   5.803   3.431   1.935 -2.6116 -1.5596 -0.4282
15581SOL    HW247816   5.730   3.498   2.049  0.0347  1.3931 -0.3105
15582SOL     OW47817   3.981   2.825   0.735  0.5931  0.2185  0.2695
15582SOL    HW147818   3.994   2.779   0.818  1.1016  1.1863  0.7429
15582SOL    HW247819   3.984   2.918   0.758 -0.4945  0.4999 -0.6544
15583SOL     OW47820   4.074   5.758   6.883  0.0952  0.4593  0.1399
15583SOL    HW147821   4.149   5.746   6.942  0.0225  5.3335  1.7045
15583SOL    HW247822   4.113   5.761   6.796  1.1366 -0.7607  0.5380
15584SOL     OW47823   3.239   4.760   7.570 -0.0963 -0.4889  0.2419
15584SOL    HW147824   3.152   4.737   7.538 -0.0357 -1.0575  0.4674
15584SOL    HW247825   3.246   4.714   7.654 -0.1749  0.7927  0.9884
15585SOL     OW47826   1.851   4.904   0.363 -0.4980  0.7111  0.6051
15585SOL    HW147827   1.821   4.836   0.422 -1.6523 -0.7281 -1.5446
15585SOL    HW247828   1.772   4.940   0.324  0.2284  1.5349 -0.1740
15586SOL     OW47829   7.579   4.013   1.418 -0.2595 -0.2325  0.5680
15586SOL    HW147830   7.648   3.999   1.483 -0.0201 -0.4259  0.2755
15586SOL    HW247831   7.599   4.098   1.379 -0.9805  0.3663  1.4449
15587SOL     OW47832   6.127   3.566   5.561  0.1114 -0.8272 -0.4643
15587SOL    HW147833   6.182   3.642   5.582 -1.5073  1.1087 -2.7038
15587SOL    HW247834   6.062   3.564   5.632  0.4977 -0.4642 -0.0930
15588SOL     OW47835   3.682   1.690   0.611 -0.7326 -0.5711 -0.0679
15588SOL    HW147836   3.643   1.731   0.534 -0.9510  0.4188  0.5577
15588SOL    HW247837   3.610   1.642   0.652 -1.3726  1.2292  1.0703
15589SOL     OW47838   2.330   0.144   6.124 -0.2706  0.2352  0.1796
15589SOL    HW147839   2.362   0.054   6.125 -0.4862  0.1453 -0.6036
15589SOL    HW247840   2.347   0.176   6.212  1.5025  0.0307 -0.0637
15590SOL     OW47841   7.298   6.799   7.591  0.1848  0.5435 -0.1705
15590SOL    HW147842   7.280   6.890   7.571  0.3063  1.2834  2.6149
15590SOL    HW247843   7.285   6.792   7.686  2.7959 -1.7021  0.1618
15591SOL     OW47844   4.008   0.477   4.619  0.7552  0.0224  0.4513
15591SOL    HW147845   3.920   0.444   4.601 -0.0032  1.4291  1.4613
15591SOL    HW247846   4.047   0.411   4.677  0.0788 -0.2000  0.6610
15592SOL     OW47847   3.584   2.796   4.863 -0.4905  0.1001  0.2596
15592SOL    HW147848   3.578   2.760   4.775 -0.6675  0.9835 -0.1020
15592SOL    HW247849   3.493   2.805   4.891 -0.4800  0.9292  0.0559
15593SOL     OW47850   4.830   7.386   4.614  0.6362 -0.0182 -0.6829
15593SOL    HW147851   4.922   7.378   4.638  0.4194  0.4420  0.3760
15593SOL    HW247852   4.789   7.427   4.691 -0.0648  1.7827 -1.9645
15594SOL     OW47853   5.765   4.515   0.509 -0.3718 -0.0855  0.1339
15594SOL    HW147854   5.677   4.550   0.499  0.2474  2.4081  2.3145
15594SOL    HW247855   5.809   4.536   0.426 -1.2918  0.3821 -0.2488
15595SOL     OW47856   3.043   0.233   2.072 -0.0764 -0.4672 -0.4525
15595SOL    HW147857   2.970   0.185   2.034 -0.4156  0.1026 -0.5376
15595SOL    HW247858   3.022   0.238   2.165  0.2602 -1.0107 -0.3500
15596SOL     OW47859   1.881   1.855   7.657  0.8543 -0.2300  0.3406
15596SOL    HW147860   1.857   1.801   7.581  0.7404  1.2870 -0.7531
15596SOL    HW247861   1.972   1.832   7.675  0.9533 -0.4543 -0.4115
15597SOL     OW47862   3.237   4.132   5.103  0.1009  0.0222 -0.0338
15597SOL    HW147863   3.170   4.068   5.126  0.7922 -0.3384  1.0548
15597SOL    HW247864   3.204   4.215   5.138  0.3693 -0.2152  0.7854
15598SOL     OW47865   5.716   4.186   2.306 -0.4965 -0.3882 -0.1072
15598SOL    HW147866   5.713   4.278   2.280 -0.6962 -0.2258  0.4808
15598SOL    HW247867   5.745   4.140   2.227  0.3238  0.2607 -0.1996
15599SOL     OW47868   4.780   6.820   2.491 -0.1382  0.4691 -0.0474
15599SOL    HW147869   4.774   6.906   2.532 -0.8984 -0.6096  2.2552
15599SOL    HW247870   4.836   6.769   2.549 -1.0122 -1.0614 -0.4866
15600SOL     OW47871   0.103   6.856   3.620 -0.3261 -0.4416 -0.2281
15600SOL    HW147872   0.139   6.937   3.584 -0.2879  0.1129  0.9942
15600SOL    HW247873   0.109   6.793   3.548  1.0179  0.2395 -0.7546
15601SOL     OW47874   6.322   5.021   3.950  0.5265  0.8462 -0.3756
15601SOL    HW147875   6.290   4.997   3.863  0.3497  0.0732 -0.1079
15601SOL    HW247876   6.361   5.107   3.938  0.0103  0.9907 -1.1044
15602SOL     OW47877   5.235   3.501   1.680 -0.7876 -0.0565 -0.4906
15602SOL    HW147878   5.225   3.465   1.592 -0.6325  1.1829 -1.0358
15602SOL    HW247879   5.299   3.444   1.722 -2.1012 -1.6848 -0.5780
15603SOL     OW47880   1.888   5.424   5.717  0.0093 -0.2933  0.7236
15603SOL    HW147881   1.841   5.354   5.671  0.7872 -0.8268  0.7222
15603SOL    HW247882   1.979   5.395   5.718  0.4713  1.0377  0.1219
15604SOL     OW47883   7.688   0.837   3.730 -0.1765  0.0175  0.1803
15604SOL    HW147884   7.678   0.745   3.706  1.3118 -0.4232  1.0988
15604SOL    HW247885   7.695   0.836   3.826 -0.9285  1.1837  0.2717
15605SOL     OW47886   0.933   6.473   7.134 -0.1728  0.1756 -0.2490
15605SOL    HW147887   0.996   6.542   7.112  0.4739 -0.1074  0.6495
15605SOL    HW247888   0.969   6.432   7.213 -1.8180  0.4112  0.6580
15606SOL     OW47889   5.932   5.336   4.344 -0.5284 -0.0681  0.2654
15606SOL    HW147890   5.899   5.280   4.274  0.8159  0.0271 -0.4769
15606SOL    HW247891   5.909   5.425   4.316  0.4215  0.0106 -0.3262
15607SOL     OW47892   1.410   5.128   3.533  0.3324  0.3758 -0.4091
15607SOL    HW147893   1.502   5.145   3.511  0.5269 -0.3995 -0.1953
15607SOL    HW247894   1.397   5.036   3.513 -0.2896  0.3805 -0.0315
15608SOL     OW47895   0.655   6.259   4.118 -0.2682  0.0663  0.3412
15608SOL    HW147896   0.626   6.194   4.183 -1.2312 -1.4661 -1.5085
15608SOL    HW247897   0.732   6.218   4.077 -1.0141 -0.0435 -0.9932
15609SOL     OW47898   1.100   5.208   5.140 -0.2499  0.0123 -0.3623
15609SOL    HW147899   1.121   5.281   5.198  1.3945  0.2439 -1.2091
15609SOL    HW247900   1.088   5.134   5.199  0.8028  0.3667  0.3215
15610SOL     OW47901   1.087   2.151   3.602 -0.4440  0.4314 -0.2900
15610SOL    HW147902   1.162   2.117   3.650 -0.0760 -0.2707 -1.3337
15610SOL    HW247903   1.011   2.126   3.656 -0.1595 -1.6745 -0.7485
15611SOL     OW47904   6.582   1.061   4.938  0.4348 -0.4540  0.0367
15611SOL    HW147905   6.635   0.982   4.949  0.7734 -0.1451  0.7003
15611SOL    HW247906   6.646   1.133   4.940  0.1186 -0.1500 -0.4557
15612SOL     OW47907   6.648   8.121   2.410  0.0214 -1.0808 -0.0544
15612SOL    HW147908   6.694   8.073   2.341 -1.0371 -2.2696  0.0348
15612SOL    HW247909   6.717   8.154   2.467  1.0021  0.7685 -2.1615
15613SOL     OW47910   3.461   5.034   2.053  0.9738 -0.1044  0.2775
15613SOL    HW147911   3.412   4.953   2.070 -1.0316  0.5578 -1.8257
15613SOL    HW247912   3.538   5.005   2.004  0.4764 -0.8131 -0.1106
15614SOL     OW47913   2.504   6.842   6.265  0.1732 -0.2668  0.5717
15614SOL    HW147914   2.561   6.859   6.189  0.8289 -0.3552  1.0392
15614SOL    HW247915   2.562   6.802   6.330 -0.2086  0.4824  1.3971
15615SOL     OW47916   3.090   5.461   4.766 -0.0827  0.1063 -0.1256
15615SOL    HW147917   3.123   5.435   4.852  0.3920 -0.3842 -0.4531
15615SOL    HW247918   2.995   5.459   4.775 -0.0351  0.8199  0.6147
15616SOL     OW47919   0.560   4.255   3.579  0.1829 -0.4637 -0.6123
15616SOL    HW147920   0.536   4.170   3.616 -1.4645 -0.6745 -2.0385
15616SOL    HW247921   0.476   4.298   3.562  0.8336 -0.0452 -3.2135
15617SOL     OW47922   0.509   3.416   4.132  0.3850  0.6052 -0.8316
15617SOL    HW147923   0.484   3.446   4.219  1.5030 -1.4371  0.2806
15617SOL    HW247924   0.551   3.491   4.091  1.9551  0.9779  1.3043
15618SOL     OW47925   2.082   4.050   1.717  0.1464 -1.0738  0.1172
15618SOL    HW147926   2.016   4.078   1.654 -0.3404 -1.3284  0.5067
15618SOL    HW247927   2.060   3.958   1.735 -1.0040 -0.4185  2.2557
15619SOL     OW47928   5.458   3.043   6.121  0.0537  0.0055 -0.2871
15619SOL    HW147929   5.476   3.043   6.215 -2.3808 -1.4431  0.2839
15619SOL    HW247930   5.392   3.110   6.109  0.9035  0.7172 -1.1340
15620SOL     OW47931   4.655   6.572   3.237  0.2247  0.9679  0.1736
15620SOL    HW147932   4.661   6.494   3.182  0.2182  1.4345 -0.5027
15620SOL    HW247933   4.729   6.564   3.298 -1.0460 -0.6497  1.5815
15621SOL     OW47934   6.235   2.865   7.988  0.0159 -0.0343 -0.1790
15621SOL    HW147935   6.231   2.949   8.034 -1.6625 -0.3668  0.3628
15621SOL    HW247936   6.237   2.889   7.895  0.0326  0.6062 -0.0196
15622SOL     OW47937   0.527   6.801   1.288 -0.2832 -0.0290 -0.2568
15622SOL    HW147938   0.547   6.892   1.266 -1.6109  0.4835  0.4907
15622SOL    HW247939   0.465   6.773   1.221 -0.7728  0.0155  0.1690
15623SOL     OW47940   3.219   1.605   5.303 -0.1502 -0.0365  0.2533
15623SOL    HW147941   3.148   1.592   5.365 -0.1631  1.6939  0.6696
15623SOL    HW247942   3.209   1.535   5.239 -1.2068 -0.8085  1.2219
15624SOL     OW47943   0.967   7.253   5.451  0.3057  0.1081  0.0265
15624SOL    HW147944   1.027   7.254   5.377  0.2265 -0.0762 -0.0410
15624SOL    HW247945   0.908   7.327   5.435  0.5767  0.3505  0.1449
15625SOL     OW47946   6.936   2.256   0.915  0.1874  0.2353  0.0187
15625SOL    HW147947   6.968   2.335   0.871  0.2864  0.1917  0.0116
15625SOL    HW247948   6.981   2.184   0.871  0.2562  0.1887  0.1648
15626SOL     OW47949   4.380   3.675   5.946  0.0772  0.2091 -0.1256
15626SOL    HW147950   4.365   3.589   5.907  1.1797 -0.4221  0.7895
15626SOL    HW247951   4.438   3.720   5.884  0.9766 -0.3986  0.2553
15627SOL     OW47952   3.428   7.304   5.539  0.6259 -0.0436  0.5103
15627SOL    HW147953   3.355   7.286   5.480  2.1050 -0.2396 -1.3350
15627SOL    HW247954   3.444   7.398   5.529 -0.1404  0.2580  1.8764
15628SOL     OW47955   2.846   4.039   4.664 -0.1377 -0.3512  0.0346
15628SOL    HW147956   2.882   3.997   4.742 -1.1334 -1.2178  0.0356
15628SOL    HW247957   2.871   4.131   4.674  0.2503 -0.5513  1.0872
15629SOL     OW47958   1.775   7.271   2.352 -0.0162  0.2743  0.0685
15629SOL    HW147959   1.747   7.334   2.285  0.7955  2.9082  2.0121
15629SOL    HW247960   1.870   7.286   2.361 -0.1995  0.5603  2.2135
15630SOL     OW47961   7.612   1.710   7.934 -0.0263 -0.4284 -0.0079
15630SOL    HW147962   7.585   1.801   7.942  0.7792 -0.3190  2.0215
15630SOL    HW247963   7.693   1.712   7.883 -0.1871 -0.0681 -0.2518
15631SOL     OW47964   7.423   5.243   3.653 -0.1768 -0.0124  0.4377
15631SOL    HW147965   7.448   5.243   3.561  0.5188 -1.0062  0.6060
15631SOL    HW247966   7.333   5.210   3.654 -0.2664  0.2159  0.1011
15632SOL     OW47967   5.720   6.941   1.588 -0.0804  0.2735 -0.0872
15632SOL    HW147968   5.809   6.977   1.588  0.1156 -0.1766 -1.2325
15632SOL    HW247969   5.732   6.847   1.600 -0.1735 -0.1909 -2.9556
15633SOL     OW47970   4.952   1.954   0.626  0.4381 -0.5487 -0.6987
15633SOL    HW147971   5.022   1.918   0.573  3.1656 -0.0154  2.2267
15633SOL    HW247972   4.977   2.045   0.641 -1.0739 -0.2234  0.1343
15634SOL     OW47973   1.126   5.613   0.720  0.1673 -0.2826 -0.6758
15634SOL    HW147974   1.086   5.596   0.805 -0.7983  0.6833 -0.9255
15634SOL    HW247975   1.143   5.526   0.683 -2.6402 -0.7743 -0.9914
15635SOL     OW47976   2.947   3.648   1.242 -0.1005 -0.3134 -0.3201
15635SOL    HW147977   2.995   3.586   1.297 -2.0427 -0.6270  1.1365
15635SOL    HW247978   3.001   3.726   1.241  0.7382 -0.8525  0.7380
15636SOL     OW47979   3.692   5.499   3.567 -0.3410 -0.3055  0.5464
15636SOL    HW147980   3.782   5.516   3.540 -0.2138  1.1493  1.7642
15636SOL    HW247981   3.656   5.446   3.496  0.5572  1.6344 -1.4910
15637SOL     OW47982   5.083   3.030   6.109  0.4300  0.0270  0.0549
15637SOL    HW147983   5.088   2.987   6.024 -0.4444 -1.3293  0.6507
15637SOL    HW247984   4.992   3.060   6.116 -0.2565 -2.0939  1.4717
15638SOL     OW47985   4.963   3.962   3.054  0.4589  0.0314  0.2552
15638SOL    HW147986   5.006   3.958   2.969 -0.2174 -3.0790 -0.0593
15638SOL    HW247987   5.032   3.943   3.118  0.4319 -0.5816  0.1132
15639SOL     OW47988   0.681   4.788   4.036  0.5177 -0.4087 -0.8493
15639SOL    HW147989   0.766   4.819   4.066  0.2190 -1.4026  1.2267
15639SOL    HW247990   0.702   4.730   3.963  1.6677 -0.8428 -0.2113
15640SOL     OW47991   3.843   3.487   1.667 -0.2024 -0.0350  0.1539
15640SOL    HW147992   3.839   3.560   1.606 -1.2586 -1.0361 -1.0427
15640SOL    HW247993   3.931   3.450   1.654 -0.5195 -0.4328 -1.0491
15641SOL     OW47994   1.737   1.226   3.277  0.1335 -0.0466  0.6877
15641SOL    HW147995   1.726   1.313   3.315  2.2467  0.5037  0.1445
15641SOL    HW247996   1.703   1.166   3.343 -2.5753  1.1966  0.5439
15642SOL     OW47997   3.849   2.335   7.003  0.9692 -0.3442  0.7722
15642SOL    HW147998   3.810   2.413   7.043  0.1312 -0.4351  0.1648
15642SOL    HW247999   3.943   2.346   7.016  0.8878  0.9145  0.4641
15643SOL     OW48000   6.363   4.680   3.830 -0.0712  0.5370 -0.5365
15643SOL    HW148001   6.446   4.683   3.878 -1.0666  3.1265  1.2445
15643SOL    HW248002   6.375   4.742   3.758 -0.2651  0.5135 -0.5891
15644SOL     OW48003   7.157   2.788   6.995 -0.6273 -0.6521  0.0027
15644SOL    HW148004   7.108   2.721   6.948  0.3130 -1.9604  0.8346
15644SOL    HW248005   7.210   2.830   6.927 -2.5176  0.5124 -0.8337
15645SOL     OW48006   4.322   4.533   1.180 -0.1561  0.3363  0.6651
15645SOL    HW148007   4.294   4.469   1.114  0.5209  0.6053  0.1049
15645SOL    HW248008   4.295   4.494   1.264  1.7980 -1.5466  0.5009
15646SOL     OW48009   1.639   3.736   2.773  0.0770  0.0548  0.4255
15646SOL    HW148010   1.678   3.786   2.845  0.6291  1.4780 -0.7975
15646SOL    HW248011   1.683   3.651   2.776  2.1415  1.0492  0.1285
15647SOL     OW48012   3.668   0.694   7.877 -0.1220 -0.1826  0.3302
15647SOL    HW148013   3.622   0.659   7.954  1.6198 -0.6119  1.2250
15647SOL    HW248014   3.745   0.638   7.868  2.1562  2.5997  1.0754
15648SOL     OW48015   4.371   2.388   6.192  0.2255 -0.5323  0.4152
15648SOL    HW148016   4.389   2.297   6.167 -0.4764  0.2633 -3.5903
15648SOL    HW248017   4.316   2.422   6.122 -2.2937  2.1562  3.3809
15649SOL     OW48018   1.424   5.158   4.027 -0.6793  0.4427  0.4434
15649SOL    HW148019   1.414   5.083   4.086 -0.2304 -0.2198 -0.3020
15649SOL    HW248020   1.378   5.133   3.948  0.3475  0.5173 -0.1971
15650SOL     OW48021   7.895   3.806   6.356 -0.2472  0.0556  0.3363
15650SOL    HW148022   7.879   3.893   6.391  2.8801  0.9167 -0.0497
15650SOL    HW248023   7.930   3.756   6.430 -1.7907 -0.8393  0.4940
15651SOL     OW48024   4.469   2.993   1.113 -0.1845 -0.0346 -0.2110
15651SOL    HW148025   4.437   2.904   1.129 -0.2722 -0.1411 -0.9416
15651SOL    HW248026   4.536   2.983   1.045  0.2222  0.3889  0.1212
15652SOL     OW48027   4.666   7.637   7.872 -0.2410 -0.3684 -0.1386
15652SOL    HW148028   4.606   7.659   7.801  0.4607 -0.3992 -0.7586
15652SOL    HW248029   4.688   7.721   7.912  0.9468 -0.1020 -1.2806
15653SOL     OW48030   7.641   2.385   0.786  0.4301  0.1754  0.6532
15653SOL    HW148031   7.614   2.384   0.694  0.4553 -0.9217  0.6421
15653SOL    HW248032   7.629   2.476   0.814 -3.4349 -0.1731  0.6905
15654SOL     OW48033   1.370   0.555   6.256 -0.1663  0.5563  0.5497
15654SOL    HW148034   1.418   0.596   6.327 -0.0325 -0.4638  1.0643
15654SOL    HW248035   1.431   0.491   6.220 -1.3258 -1.2792  1.6729
15655SOL     OW48036   8.134   2.487   8.006  0.0741 -0.0462 -0.4383
15655SOL    HW148037   8.207   2.484   8.068  1.0705  0.2617 -1.5711
15655SOL    HW248038   8.158   2.425   7.937 -0.3540  0.6388 -1.2258
15656SOL     OW48039   5.594   1.690   6.124 -0.2278  0.4192  0.8999
15656SOL    HW148040   5.511   1.708   6.079  0.8002  2.9390 -0.1829
15656SOL    HW248041   5.617   1.774   6.165  1.1270 -0.6195  2.3861
15657SOL     OW48042   0.093   6.417   6.310  0.4307  0.4280  0.0857
15657SOL    HW148043   0.035   6.479   6.266 -0.2959 -0.0106  0.4046
15657SOL    HW248044   0.099   6.343   6.249 -0.8253 -0.3175  0.7986
15658SOL     OW48045   1.965   7.312   6.103 -0.5051 -0.1377 -0.0845
15658SOL    HW148046   1.870   7.313   6.115 -0.2565 -0.0342  2.4100
15658SOL    HW248047   1.993   7.400   6.130  0.4003 -0.5405  0.3153
15659SOL     OW48048   0.987   5.944   1.674  0.0630  0.5027 -0.5210
15659SOL    HW148049   0.897   5.944   1.707 -0.2076  0.7641 -1.2465
15659SOL    HW248050   1.014   6.035   1.678  0.2012  0.4630 -0.5631
15660SOL     OW48051   3.756   2.502   4.783  0.4995 -0.1604 -0.1288
15660SOL    HW148052   3.687   2.474   4.844  0.1155  0.2153 -0.3909
15660SOL    HW248053   3.790   2.420   4.747  0.3611 -0.3602  0.1887
15661SOL     OW48054   3.911   0.245   4.296  0.1541 -0.0331 -0.4777
15661SOL    HW148055   4.004   0.234   4.318  0.2238  2.2318  0.6556
15661SOL    HW248056   3.891   0.171   4.239  1.4916 -3.1573  2.7292
15662SOL     OW48057   5.403   6.233   6.533  0.0926  0.1633  0.2904
15662SOL    HW148058   5.397   6.181   6.613 -1.6767 -1.0794 -0.5803
15662SOL    HW248059   5.424   6.169   6.465  0.2921  0.9822 -0.4265
15663SOL     OW48060   1.119   0.660   6.186  0.3690  0.1779 -0.7979
15663SOL    HW148061   1.209   0.627   6.177  0.6221  0.1876  1.2420
15663SOL    HW248062   1.125   0.726   6.255 -1.1671  0.4361 -0.8868
15664SOL     OW48063   0.830   6.997   2.948  0.0569  0.3109  0.0578
15664SOL    HW148064   0.820   7.050   2.869  1.4263  0.0420 -0.3118
15664SOL    HW248065   0.773   6.921   2.933  1.6551 -0.6413 -1.4888
15665SOL     OW48066   7.599   4.148   7.478 -0.1997  0.2903  0.3922
15665SOL    HW148067   7.587   4.237   7.444  1.0215 -0.4601 -2.3591
15665SOL    HW248068   7.694   4.136   7.481 -0.3035 -0.4015  2.4016
15666SOL     OW48069   5.537   5.579   3.211  0.3168 -0.2498 -0.5281
15666SOL    HW148070   5.569   5.501   3.165  1.9101  0.9124 -1.5437
15666SOL    HW248071   5.493   5.630   3.142 -0.6058 -0.1888  0.0964
15667SOL     OW48072   7.536   5.182   4.494  0.5427 -0.5018  0.5359
15667SOL    HW148073   7.609   5.219   4.444 -0.5279 -0.4925 -1.0865
15667SOL    HW248074   7.509   5.105   4.444 -0.5248 -0.5364  1.1370
15668SOL     OW48075   7.677   7.067   1.494 -0.3424  0.0982 -0.8960
15668SOL    HW148076   7.704   6.976   1.498 -1.8186 -0.3696 -1.0448
15668SOL    HW248077   7.698   7.095   1.405  0.3695 -0.0094 -0.7617
15669SOL     OW48078   2.422   2.498   6.132 -0.6169  0.2702  0.1411
15669SOL    HW148079   2.402   2.516   6.040 -1.3070 -1.6805 -0.1273
15669SOL    HW248080   2.354   2.545   6.181 -0.8950  0.4386 -0.3996
15670SOL     OW48081   6.786   2.510   1.512  0.7049 -0.0142  0.0643
15670SOL    HW148082   6.761   2.473   1.597  0.0555 -0.8265 -0.4600
15670SOL    HW248083   6.876   2.480   1.499  0.9144  0.3704  0.6004
15671SOL     OW48084   5.637   4.541   5.569 -0.6303  0.0924  0.4538
15671SOL    HW148085   5.559   4.530   5.623 -1.4600  0.5568 -0.6140
15671SOL    HW248086   5.710   4.516   5.626 -1.7020 -2.5686  0.8096
15672SOL     OW48087   6.540   2.724   7.862  0.4558  0.2547  0.1701
15672SOL    HW148088   6.528   2.790   7.931 -0.8658  0.5422 -0.2952
15672SOL    HW248089   6.512   2.768   7.782  1.1801 -0.3428 -0.4249
15673SOL     OW48090   6.245   4.641   7.599  0.0107  0.1613  0.3560
15673SOL    HW148091   6.327   4.689   7.612 -0.6376  1.7633 -1.0771
15673SOL    HW248092   6.271   4.562   7.552  0.6758  1.0397 -0.8126
15674SOL     OW48093   4.468   7.368   0.945 -0.2329  0.8219  0.0801
15674SOL    HW148094   4.379   7.344   0.917 -0.5749  2.6220 -0.5123
15674SOL    HW248095   4.455   7.438   1.009  0.7463  0.4605  0.6947
15675SOL     OW48096   0.904   2.960   6.478  0.2824  0.4974 -0.1924
15675SOL    HW148097   0.819   2.952   6.521 -0.5960  0.7077 -1.8111
15675SOL    HW248098   0.916   2.875   6.435 -1.2987  1.8797 -3.7075
15676SOL     OW48099   3.770   1.170   1.626  0.4854  0.3000  0.6718
15676SOL    HW148100   3.824   1.152   1.550 -1.2741  1.1020 -0.8549
15676SOL    HW248101   3.741   1.084   1.657  0.4238  0.0017 -0.1912
15677SOL     OW48102   4.587   4.425   8.148 -0.5188  0.3794 -0.0792
15677SOL    HW148103   4.510   4.477   8.127 -0.3039  0.4481 -0.7052
15677SOL    HW248104   4.562   4.376   8.227 -0.3848  2.1399  1.1167
15678SOL     OW48105   5.062   0.388   3.673 -0.5779  0.0683 -0.3142
15678SOL    HW148106   5.025   0.476   3.667  0.3679  0.4290 -1.1980
15678SOL    HW248107   5.038   0.346   3.590  0.2436  0.0261 -0.5421
15679SOL     OW48108   6.290   7.680   7.449  0.0288 -0.0113 -0.0118
15679SOL    HW148109   6.348   7.613   7.413  1.3593  0.0340  1.8572
15679SOL    HW248110   6.293   7.666   7.544  0.2784  2.5611  0.4521
15680SOL     OW48111   7.243   8.099   3.434  0.0624 -0.0341  0.5191
15680SOL    HW148112   7.182   8.143   3.494  0.4658 -0.1744  1.0427
15680SOL    HW248113   7.238   8.150   3.353  0.0298  0.5799  0.9021
15681SOL     OW48114   1.418   6.118   5.073 -0.4029  0.0192 -0.6090
15681SOL    HW148115   1.443   6.128   4.981  1.9331 -1.4907 -0.2185
15681SOL    HW248116   1.500   6.115   5.121 -1.5267 -0.2010  1.4352
15682SOL     OW48117   1.532   6.147   6.218  0.9538  0.3953  0.4648
15682SOL    HW148118   1.529   6.111   6.306 -0.6615  2.2712  1.2709
15682SOL    HW248119   1.446   6.127   6.181  1.7417 -0.7162 -0.8955
15683SOL     OW48120   3.620   4.114   6.770 -0.5743 -0.7691  0.1171
15683SOL    HW148121   3.636   4.034   6.820  0.2114 -0.2848  0.6667
15683SOL    HW248122   3.579   4.174   6.832 -1.0310 -0.6971 -0.2511
15684SOL     OW48123   3.750   1.694   0.092 -0.1189  0.4313 -0.5806
15684SOL    HW148124   3.691   1.662   0.024  0.6843 -0.8162 -0.7324
15684SOL    HW248125   3.738   1.632   0.165  1.7067 -0.4718 -0.9972
15685SOL     OW48126   2.862   6.434   7.633  0.0576  0.7165 -0.4042
15685SOL    HW148127   2.900   6.429   7.545  1.4003  1.5075  0.1112
15685SOL    HW248128   2.799   6.506   7.628  0.5751  1.1621 -0.5611
15686SOL     OW48129   7.939   7.613   1.644 -0.7478 -0.2600  0.0781
15686SOL    HW148130   7.918   7.574   1.729 -0.6776  1.6028  0.9921
15686SOL    HW248131   7.853   7.628   1.603 -0.8329 -0.1882  0.2803
15687SOL     OW48132   0.753   7.192   7.311 -0.4023  0.8100  0.1423
15687SOL    HW148133   0.800   7.228   7.236  0.8991  0.2491  0.6740
15687SOL    HW248134   0.666   7.232   7.306 -0.7670 -0.1306 -2.3403
15688SOL     OW48135   3.859   3.547   5.397  0.1780  0.4716  0.5011
15688SOL    HW148136   3.781   3.580   5.442  0.3537  1.0790  0.3695
15688SOL    HW248137   3.913   3.625   5.384  0.5233  0.1539  0.0283
15689SOL     OW48138   0.363   3.527   4.362 -0.2236  0.0230 -0.2928
15689SOL    HW148139   0.290   3.572   4.320  0.4345 -0.4367 -2.0301
15689SOL    HW248140   0.399   3.592   4.423 -0.5582  1.1405 -1.2371
15690SOL     OW48141   2.644   0.438   0.521  0.1631  0.1132 -0.5562
15690SOL    HW148142   2.721   0.405   0.568  0.9923  0.3689 -1.7034
15690SOL    HW248143   2.625   0.522   0.563  1.6685  0.9434 -1.4390
15691SOL     OW48144   6.144   3.644   0.862  0.3221  0.5016  0.0233
15691SOL    HW148145   6.098   3.570   0.902 -1.2715  1.6422  0.4355
15691SOL    HW248146   6.181   3.610   0.781 -3.6087  0.0318 -1.8070
15692SOL     OW48147   2.207   3.202   5.818  0.0695  0.3018 -0.0878
15692SOL    HW148148   2.200   3.279   5.762 -1.4563  0.2577 -0.0221
15692SOL    HW248149   2.142   3.218   5.887 -0.2444 -1.0161 -0.0529
15693SOL     OW48150   2.274   6.734   1.683  0.1655 -0.2365 -0.1181
15693SOL    HW148151   2.349   6.679   1.706 -0.1321 -0.1546  1.1048
15693SOL    HW248152   2.208   6.713   1.749 -0.3880  0.7127 -0.3581
15694SOL     OW48153   0.038   7.466   7.118 -0.5805 -0.7536  0.4822
15694SOL    HW148154   0.017   7.483   7.026 -1.3031 -1.3998  0.5180
15694SOL    HW248155   0.083   7.545   7.147 -0.1604 -0.6258 -0.4814
15695SOL     OW48156   5.818   1.404   3.051 -0.3245  0.2054 -0.6565
15695SOL    HW148157   5.880   1.469   3.018 -0.5798  0.0680 -1.4212
15695SOL    HW248158   5.820   1.415   3.146  0.2080  0.8052 -0.7322
15696SOL     OW48159   2.638   6.539   2.920  0.3412 -0.2936 -0.5122
15696SOL    HW148160   2.693   6.462   2.911 -0.1787 -0.6125 -1.0594
15696SOL    HW248161   2.564   6.510   2.973  1.7788  0.7296  2.2609
15697SOL     OW48162   1.218   1.069   2.772  0.0460 -0.2804 -0.4070
15697SOL    HW148163   1.187   1.126   2.843  0.1363 -2.0466  1.1196
15697SOL    HW248164   1.273   1.004   2.815  2.0815 -0.0572 -2.4339
15698SOL     OW48165   7.202   1.691   2.376 -0.0661 -0.0988  0.0499
15698SOL    HW148166   7.187   1.640   2.297 -1.1954 -1.6363  1.1855
15698SOL    HW248167   7.163   1.776   2.357 -1.0543 -0.7091 -0.7635
15699SOL     OW48168   5.032   5.599   2.319 -0.2233  0.1733  0.8049
15699SOL    HW148169   5.014   5.692   2.336 -0.1400  0.0749  1.4614
15699SOL    HW248170   4.958   5.570   2.266  0.3824  0.9154 -0.4981
15700SOL     OW48171   0.086   6.533   3.044 -0.4422  0.5886 -0.2848
15700SOL    HW148172   0.048   6.509   2.959 -3.3156  1.7211  0.5620
15700SOL    HW248173   0.020   6.589   3.085  1.8379  1.9633  1.7851
15701SOL     OW48174   6.828   2.836   6.806 -0.2385 -0.4495 -0.1217
15701SOL    HW148175   6.846   2.799   6.892 -0.3193 -1.2219 -0.4234
15701SOL    HW248176   6.910   2.876   6.779 -0.1063 -0.5324  0.1587
15702SOL     OW48177   4.721   7.909   5.545 -0.3120 -0.5057  1.2592
15702SOL    HW148178   4.786   7.959   5.594  0.9059 -0.8288  0.0233
15702SOL    HW248179   4.694   7.840   5.606  0.9517 -0.7342  1.5997
15703SOL     OW48180   3.773   6.496   1.471 -0.6973  0.2061 -0.4669
15703SOL    HW148181   3.769   6.424   1.534  1.7149 -0.6791 -1.2138
15703SOL    HW248182   3.689   6.492   1.425  0.1485 -3.7605 -2.1082
15704SOL     OW48183   1.342   0.556   4.386 -0.0587  0.4348 -0.4955
15704SOL    HW148184   1.261   0.519   4.420  1.2358  0.1362  2.5584
15704SOL    HW248185   1.335   0.650   4.405  0.5468  0.3197  0.3006
15705SOL     OW48186   5.621   6.834   4.099 -0.1851 -0.5512 -0.0734
15705SOL    HW148187   5.687   6.850   4.167 -1.0725 -1.4710  1.0619
15705SOL    HW248188   5.611   6.917   4.054 -1.3925  0.8996  2.6128
15706SOL     OW48189   5.404   1.898   0.595 -0.0256 -0.4803 -0.3092
15706SOL    HW148190   5.411   1.859   0.682 -2.1427 -1.4804 -0.5287
15706SOL    HW248191   5.450   1.836   0.538 -0.9321 -1.2315 -0.2509
15707SOL     OW48192   0.306   4.273   6.589 -0.2430  0.0198  0.4943
15707SOL    HW148193   0.214   4.247   6.594 -0.1610 -0.3570  0.0979
15707SOL    HW248194   0.350   4.199   6.546  0.3094  0.0283  1.0268
15708SOL     OW48195   0.632   7.167   1.303 -0.4772 -0.0856  0.1622
15708SOL    HW148196   0.569   7.231   1.268 -1.3998 -1.5215 -0.9225
15708SOL    HW248197   0.597   7.144   1.389 -1.0948 -0.3938 -0.1646
15709SOL     OW48198   2.979   4.453   0.438  0.6515 -0.1461  0.3107
15709SOL    HW148199   2.914   4.385   0.460  2.6239 -2.3137 -0.1724
15709SOL    HW248200   2.937   4.504   0.369 -1.0506 -0.5941  0.9497
15710SOL     OW48201   6.148   3.345   6.786  0.1648 -0.3503 -0.0044
15710SOL    HW148202   6.114   3.429   6.816  1.4712 -0.2092  1.1504
15710SOL    HW248203   6.075   3.306   6.739 -1.0737  0.6297  1.0222
15711SOL     OW48204   4.103   5.362   7.104  0.6788 -0.1059 -0.6230
15711SOL    HW148205   4.023   5.339   7.058 -0.1812  3.8208 -1.4440
15711SOL    HW248206   4.173   5.318   7.056 -0.7135 -0.9328 -1.9556
15712SOL     OW48207   7.831   4.683   0.501 -0.5269 -0.0836 -0.2258
15712SOL    HW148208   7.840   4.728   0.417  1.1366  0.2815  0.1041
15712SOL    HW248209   7.756   4.724   0.543  0.9735  2.4863  0.1023
15713SOL     OW48210   2.408   3.119   6.061 -0.6505 -0.0140  0.0673
15713SOL    HW148211   2.346   3.191   6.052 -0.4215  0.1488 -0.2209
15713SOL    HW248212   2.454   3.136   6.143  0.5384  1.0552 -0.7878
15714SOL     OW48213   6.016   5.661   5.257  0.3604 -0.3286 -0.1072
15714SOL    HW148214   5.941   5.708   5.293  1.2850 -0.6392  2.5116
15714SOL    HW248215   6.009   5.573   5.293  2.3108 -0.1569  0.8319
15715SOL     OW48216   4.691   7.698   6.491 -0.1896 -0.3494 -0.2038
15715SOL    HW148217   4.725   7.786   6.507  1.6730 -0.8818 -0.9985
15715SOL    HW248218   4.598   7.704   6.515 -0.0047  1.6897  0.2138
15716SOL     OW48219   3.435   2.659   7.779  0.2756  0.2164 -0.1908
15716SOL    HW148220   3.351   2.699   7.800  0.7949  2.1439 -1.4442
15716SOL    HW248221   3.414   2.584   7.724 -0.6247  0.6003 -0.3757
15717SOL     OW48222   4.878   5.341   3.120  0.1530 -0.3608 -0.3821
15717SOL    HW148223   4.933   5.332   3.199 -2.1240  0.5203  1.3998
15717SOL    HW248224   4.791   5.312   3.148 -1.2296  2.0046 -1.9468
15718SOL     OW48225   7.428   3.042   6.057  0.2017  0.4257 -0.2176
15718SOL    HW148226   7.464   3.128   6.035  0.6342  0.0019 -1.2226
15718SOL    HW248227   7.418   2.998   5.972 -1.5401  0.0728  0.1445
15719SOL     OW48228   7.345   0.103   1.752 -0.3106  0.1016 -0.1709
15719SOL    HW148229   7.300   0.019   1.758 -2.0595  0.9124 -1.0638
15719SOL    HW248230   7.386   0.102   1.665 -2.5802  1.1342 -1.3523
15720SOL     OW48231   3.573   1.368   5.843  0.0507  0.6061  0.1529
15720SOL    HW148232   3.496   1.376   5.787  0.4780 -1.3211 -0.7802
15720SOL    HW248233   3.591   1.458   5.872 -0.7275  1.5457 -2.0587
15721SOL     OW48234   0.351   6.862   1.799 -0.5061  0.6069  0.1422
15721SOL    HW148235   0.387   6.842   1.713  1.4165  1.8199  0.6067
15721SOL    HW248236   0.329   6.777   1.836  0.8977 -0.1325 -0.6317
15722SOL     OW48237   7.924   2.010   3.899  0.4218 -0.4653  0.2788
15722SOL    HW148238   7.833   2.034   3.915  0.0877 -1.5005 -0.0020
15722SOL    HW248239   7.972   2.045   3.974 -0.3401 -0.6961  0.8837
15723SOL     OW48240   5.868   4.935   2.361 -0.1159 -0.2435  0.0331
15723SOL    HW148241   5.833   4.861   2.410  1.2774 -0.7080  0.3566
15723SOL    HW248242   5.791   4.971   2.315 -0.8583 -1.7422  0.0280
15724SOL     OW48243   8.135   5.408   4.604  0.4295  0.2914 -0.0362
15724SOL    HW148244   8.175   5.321   4.603  0.2864  0.2189  0.2551
15724SOL    HW248245   8.165   5.450   4.524 -0.4681 -0.4620 -0.7979
15725SOL     OW48246   2.609   5.101   7.728 -0.5589  0.3832  0.0323
15725SOL    HW148247   2.680   5.100   7.792  0.1624  0.5913 -0.7589
15725SOL    HW248248   2.600   5.011   7.699 -0.6418  0.3549  0.1408
15726SOL     OW48249   1.940   5.343   0.223  0.6622 -0.1088  0.2967
15726SOL    HW148250   1.938   5.311   0.314  0.4395  0.1527  0.3863
15726SOL    HW248251   1.898   5.273   0.173  1.4583 -0.5930  0.2809
15727SOL     OW48252   2.240   2.533   3.911 -0.3649 -0.1437  0.7020
15727SOL    HW148253   2.283   2.464   3.861 -0.8833  0.8655 -1.2150
15727SOL    HW248254   2.312   2.587   3.945 -0.0363 -0.0631 -0.1132
15728SOL     OW48255   1.355   5.849   5.231  0.5913  0.2067  0.0061
15728SOL    HW148256   1.438   5.822   5.270  0.0536 -0.4335  0.7269
15728SOL    HW248257   1.365   5.943   5.216  0.9502  0.3876  1.3207
15729SOL     OW48258   1.092   7.031   3.588  0.4878 -0.0223  0.0693
15729SOL    HW148259   1.060   7.118   3.611 -1.9747 -0.9028  0.1824
15729SOL    HW248260   1.097   7.032   3.492 -0.5108 -0.0644  0.0108
15730SOL     OW48261   7.899   1.191   1.367 -0.1661 -0.0815 -0.2712
15730SOL    HW148262   7.943   1.276   1.362  0.9485 -0.6203  0.1205
15730SOL    HW248263   7.969   1.129   1.388 -0.9965 -1.0728 -0.3700
15731SOL     OW48264   1.584   4.484   0.169 -0.6264 -0.0901  0.4078
15731SOL    HW148265   1.577   4.408   0.111  0.5899 -0.3237  0.5558
15731SOL    HW248266   1.562   4.449   0.256  0.2935 -0.3639  0.5363
15732SOL     OW48267   1.701   1.801   5.638  0.4004 -0.3638  0.8337
15732SOL    HW148268   1.703   1.725   5.580  1.1967 -0.5009  1.0332
15732SOL    HW248269   1.739   1.872   5.587 -2.6815  0.6411 -0.3204
15733SOL     OW48270   2.009   0.953   5.469 -0.1846 -0.5047  0.3580
15733SOL    HW148271   2.016   0.944   5.374 -2.2241  1.2636 -0.0344
15733SOL    HW248272   2.062   0.882   5.503  1.6032 -0.4790 -2.0720
15734SOL     OW48273   0.986   2.247   1.352  0.1952  0.3802 -0.0569
15734SOL    HW148274   1.044   2.185   1.396  1.5892 -0.0753 -2.3733
15734SOL    HW248275   0.995   2.328   1.402  3.3465  0.4896 -0.6168
15735SOL     OW48276   2.862   3.039   5.331 -0.5448  0.8529 -0.0684
15735SOL    HW148277   2.896   2.996   5.409  0.0226  0.1601 -0.6798
15735SOL    HW248278   2.849   2.968   5.268 -1.1252  1.3809 -0.5641
15736SOL     OW48279   3.588   4.296   7.822  0.6463 -0.0111  0.3252
15736SOL    HW148280   3.664   4.303   7.764  0.9185  0.0289  0.6875
15736SOL    HW248281   3.624   4.297   7.910  0.1686  0.7181  0.5198
15737SOL     OW48282   3.941   1.421   1.399 -0.0128 -0.3682  0.6700
15737SOL    HW148283   3.978   1.502   1.365 -0.9487  0.2077  0.9893
15737SOL    HW248284   4.016   1.371   1.430  0.5125  0.6737  1.1113
15738SOL     OW48285   2.076   1.892   1.753  0.3556 -0.0555  0.5580
15738SOL    HW148286   2.051   1.850   1.836  1.0492  0.8301  1.2353
15738SOL    HW248287   1.993   1.906   1.707  0.1354 -2.9975 -0.1428
15739SOL     OW48288   7.978   0.895   2.548 -0.3506 -0.0443  0.0693
15739SOL    HW148289   7.953   0.929   2.462  1.3208 -1.2403 -0.9612
15739SOL    HW248290   7.997   0.972   2.600 -0.7343  0.6947 -0.8518
15740SOL     OW48291   0.604   3.261   7.422  0.0507 -0.0415  0.1987
15740SOL    HW148292   0.684   3.281   7.374  2.1435 -0.5274  3.1412
15740SOL    HW248293   0.589   3.168   7.405  1.7251 -0.6240  1.6357
15741SOL     OW48294   1.786   5.882   4.204  0.4652 -0.2969  0.1009
15741SOL    HW148295   1.730   5.914   4.275  1.0045 -1.5624  1.1333
15741SOL    HW248296   1.787   5.954   4.140 -1.6125  0.0999  0.4460
15742SOL     OW48297   6.930   7.672   7.801 -0.0357  0.5291 -0.5190
15742SOL    HW148298   6.960   7.761   7.782  1.5297 -0.2131 -1.7659
15742SOL    HW248299   7.000   7.634   7.855 -0.0853 -0.3287 -1.0426
15743SOL     OW48300   6.315   1.949   1.373 -0.4184 -0.3600  0.0289
15743SOL    HW148301   6.278   1.868   1.410  1.6429 -1.0220  0.8090
15743SOL    HW248302   6.373   1.919   1.303 -0.1657  0.4996 -0.1432
15744SOL     OW48303   2.937   0.545   6.545  0.3396  0.2124 -0.7361
15744SOL    HW148304   2.932   0.640   6.560  0.3060  0.6578 -3.2168
15744SOL    HW248305   3.030   0.525   6.551  0.1474 -0.2517  2.8542
15745SOL     OW48306   4.161   0.578   1.365 -0.1963  0.8398  0.0597
15745SOL    HW148307   4.247   0.537   1.366 -0.3968  0.4204  1.1889
15745SOL    HW248308   4.102   0.509   1.333 -0.3093  0.6958  0.5673
15746SOL     OW48309   4.916   6.826   4.799 -0.3938 -0.2726  0.5544
15746SOL    HW148310   4.868   6.905   4.772  1.2430  0.1080 -1.4727
15746SOL    HW248311   4.847   6.763   4.818 -1.7357  0.9356 -0.0372
15747SOL     OW48312   2.196   7.393   8.086  0.2027  0.0181  0.2506
15747SOL    HW148313   2.208   7.314   8.033  0.5681  1.0632 -1.2962
15747SOL    HW248314   2.102   7.403   8.095  0.1059  0.1656 -0.7855
15748SOL     OW48315   2.907   3.634   6.120  0.2546 -0.4579  0.1687
15748SOL    HW148316   2.958   3.697   6.070  1.1764  0.0019  1.6245
15748SOL    HW248317   2.839   3.687   6.163 -1.3156 -1.0142 -1.4872
15749SOL     OW48318   4.090   7.584   8.012 -0.7932  0.1741 -0.1466
15749SOL    HW148319   4.093   7.597   7.917 -1.9083  1.8805  0.0144
15749SOL    HW248320   3.997   7.573   8.031 -0.7074  1.1423  0.8857
15750SOL     OW48321   1.267   5.364   4.133 -0.2112 -0.0374  0.4256
15750SOL    HW148322   1.250   5.270   4.128  0.1991 -0.0450 -1.6864
15750SOL    HW248323   1.361   5.372   4.116 -0.1331  0.7343  1.1592
15751SOL     OW48324   5.035   5.190   1.094 -0.8278  0.3032 -0.1098
15751SOL    HW148325   4.973   5.117   1.085 -1.1797  0.6499 -0.6001
15751SOL    HW248326   5.085   5.188   1.012  1.1183 -1.1250  1.0249
15752SOL     OW48327   0.617   3.686   4.092  0.3628  0.1460  0.4196
15752SOL    HW148328   0.653   3.759   4.041 -0.3771 -0.5403 -1.1768
15752SOL    HW248329   0.638   3.707   4.183 -1.0666  3.0931  0.1913
15753SOL     OW48330   4.031   4.546   0.952 -0.2105  0.1741 -0.0560
15753SOL    HW148331   4.037   4.455   0.978 -0.4093  0.0157 -0.5559
15753SOL    HW248332   3.937   4.563   0.943 -0.1680  0.3705 -0.1548
15754SOL     OW48333   4.793   3.478   6.884 -0.3350 -0.1687  0.3165
15754SOL    HW148334   4.877   3.443   6.914  1.5147  3.3726 -0.0817
15754SOL    HW248335   4.784   3.445   6.794  0.1517 -1.3471  0.6857
15755SOL     OW48336   5.770   2.966   2.125 -1.0919 -0.3000  0.5688
15755SOL    HW148337   5.752   2.887   2.176  0.1537 -1.3760 -0.5974
15755SOL    HW248338   5.866   2.967   2.116 -1.2343  0.2768 -1.0870
15756SOL     OW48339   2.441   2.568   0.601  0.0568  0.0599 -0.4508
15756SOL    HW148340   2.412   2.600   0.515 -0.2944  0.6895 -0.1096
15756SOL    HW248341   2.523   2.614   0.617  0.9921 -1.2986 -1.1645
15757SOL     OW48342   5.701   1.628   7.875  0.3561 -0.6279  0.1915
15757SOL    HW148343   5.619   1.594   7.840  1.2748 -3.6425  0.6173
15757SOL    HW248344   5.755   1.644   7.798  0.2766 -1.3007 -0.0116
15758SOL     OW48345   0.426   7.362   6.575 -0.0338  0.6029 -0.4413
15758SOL    HW148346   0.469   7.308   6.509 -0.7092  0.0683 -0.4531
15758SOL    HW248347   0.483   7.357   6.651  1.0743  1.7223 -1.1541
15759SOL     OW48348   2.241   5.376   0.256 -0.4306 -0.4556  0.2818
15759SOL    HW148349   2.272   5.335   0.175 -0.3977 -0.7624  0.4460
15759SOL    HW248350   2.171   5.318   0.286 -0.1610 -0.5705  0.6909
15760SOL     OW48351   4.291   1.339   0.374 -0.0285  0.3833  0.5638
15760SOL    HW148352   4.208   1.379   0.400  0.6898  2.2064  0.2176
15760SOL    HW248353   4.278   1.312   0.283  0.0342  1.5446  0.1954
15761SOL     OW48354   6.274   0.234   3.643 -0.1625 -0.5475  0.7156
15761SOL    HW148355   6.212   0.289   3.597 -0.1054  0.2530  1.5677
15761SOL    HW248356   6.304   0.171   3.578 -1.2592 -0.4394  0.0892
15762SOL     OW48357   3.474   2.222   6.371 -0.2974 -0.3345  0.3468
15762SOL    HW148358   3.532   2.186   6.438 -0.0670  0.2170  0.4481
15762SOL    HW248359   3.445   2.306   6.406 -0.2606 -0.0906 -0.1943
15763SOL     OW48360   5.309   4.328   3.936 -0.8835 -0.9335  0.2212
15763SOL    HW148361   5.357   4.337   3.854 -2.2020 -0.2939 -0.5212
15763SOL    HW248362   5.373   4.293   3.999  0.5276 -0.0541 -0.6918
15764SOL     OW48363   0.143   3.315   5.135  0.3421  0.8307 -0.6333
15764SOL    HW148364   0.078   3.363   5.085  0.3486  0.5344 -0.9324
15764SOL    HW248365   0.143   3.356   5.221 -1.1617  0.0172 -0.2266
15765SOL     OW48366   6.721   3.532   3.612  0.0649 -0.1186  0.7647
15765SOL    HW148367   6.780   3.601   3.643 -2.1245  1.6741  1.2099
15765SOL    HW248368   6.687   3.491   3.691 -0.6615  0.1143  0.5820
15766SOL     OW48369   0.463   7.352   3.930 -0.8014  1.1103  0.5206
15766SOL    HW148370   0.535   7.378   3.988 -0.9920  1.6587  0.5165
15766SOL    HW248371   0.419   7.282   3.978 -0.3356  0.8562  0.5782
15767SOL     OW48372   3.586   5.430   4.660 -0.3430 -0.3521 -0.2505
15767SOL    HW148373   3.554   5.348   4.623 -0.7055  0.0204 -0.7818
15767SOL    HW248374   3.508   5.486   4.664 -0.2053 -0.1998  0.5818
15768SOL     OW48375   1.172   6.140   4.661 -0.3302  0.3366 -0.4013
15768SOL    HW148376   1.102   6.170   4.719  0.1407 -0.1173  0.4247
15768SOL    HW248377   1.160   6.191   4.580 -1.7323  0.1137 -0.3609
15769SOL     OW48378   2.974   3.214   1.704  0.0685 -0.3837  0.0445
15769SOL    HW148379   3.050   3.156   1.709  0.5107  0.2418  0.7920
15769SOL    HW248380   2.922   3.193   1.781 -0.1871 -0.3524 -0.1164
15770SOL     OW48381   1.882   2.152   1.388 -0.2960  0.0422 -0.1184
15770SOL    HW148382   1.918   2.214   1.325  2.3585 -1.1460  0.0762
15770SOL    HW248383   1.940   2.159   1.464 -0.3365 -2.1132  0.1887
15771SOL     OW48384   3.552   7.089   1.128  0.3991  0.3920 -0.0588
15771SOL    HW148385   3.550   7.067   1.221 -0.2500  2.7935  0.5497
15771SOL    HW248386   3.471   7.137   1.112  0.7912  0.5770 -1.7257
15772SOL     OW48387   8.023   2.602   7.104  0.4918  0.0197  0.2953
15772SOL    HW148388   8.008   2.523   7.052 -1.4208  0.2850  0.3973
15772SOL    HW248389   8.086   2.653   7.052  0.5653 -0.8652 -0.5191
15773SOL     OW48390   7.819   8.003   2.437 -0.0011 -0.7296 -0.0117
15773SOL    HW148391   7.884   7.939   2.408  0.1143 -0.6692  0.1132
15773SOL    HW248392   7.870   8.078   2.467 -0.1604 -0.0750 -1.3055
15774SOL     OW48393   2.874   6.355   2.974  0.2679  0.6273 -0.3325
15774SOL    HW148394   2.968   6.352   2.989  0.0266 -0.6898  1.1528
15774SOL    HW248395   2.861   6.306   2.892  0.7235 -0.8310  0.4340
15775SOL     OW48396   6.633   4.768   1.600  0.1249  0.5142  0.3877
15775SOL    HW148397   6.659   4.859   1.615  1.6627  0.0260  0.8004
15775SOL    HW248398   6.589   4.742   1.682 -1.1991  1.1556 -0.0903
15776SOL     OW48399   0.334   5.670   5.492  0.0302  0.1344 -0.8056
15776SOL    HW148400   0.415   5.623   5.509 -0.6293 -1.7110 -2.4311
15776SOL    HW248401   0.265   5.611   5.519 -0.8065  0.7308 -1.5604
15777SOL     OW48402   0.536   0.452   7.904 -0.1744  0.7062 -0.6357
15777SOL    HW148403   0.573   0.393   7.970  0.6307  0.4622 -1.2824
15777SOL    HW248404   0.534   0.538   7.946 -0.2941  0.4325 -0.0736
15778SOL     OW48405   5.716   4.212   4.437  0.1129  0.1831 -0.2064
15778SOL    HW148406   5.683   4.126   4.463  2.1435 -0.6962 -0.3169
15778SOL    HW248407   5.638   4.266   4.425 -1.1497 -1.1564  1.5306
15779SOL     OW48408   4.651   0.457   3.792  0.5526  0.2125  0.0465
15779SOL    HW148409   4.586   0.522   3.819 -1.2289 -1.2746 -0.4393
15779SOL    HW248410   4.651   0.393   3.863  0.4581 -0.5283 -0.6138
15780SOL     OW48411   4.254   0.606   2.235 -0.4711  0.4117 -0.4482
15780SOL    HW148412   4.228   0.611   2.327 -0.5453 -0.1899 -0.4350
15780SOL    HW248413   4.214   0.525   2.203  1.0137 -0.3026 -0.5469
15781SOL     OW48414   0.871   6.417   5.644  0.2850  0.1500  0.1516
15781SOL    HW148415   0.797   6.410   5.703  0.4426 -1.7003  0.1785
15781SOL    HW248416   0.841   6.377   5.562  0.9194  0.2998 -0.1641
15782SOL     OW48417   0.414   6.796   1.544  0.0186  0.8449 -0.1862
15782SOL    HW148418   0.348   6.734   1.515 -0.1880  0.4144  1.1431
15782SOL    HW248419   0.473   6.806   1.469  0.6089 -1.7010 -0.1400
15783SOL     OW48420   4.938   1.044   1.468 -0.0262 -0.0160 -0.1501
15783SOL    HW148421   4.843   1.049   1.466 -0.0118  0.2661 -0.1646
15783SOL    HW248422   4.958   1.002   1.552 -0.1187  1.2166  0.5134
15784SOL     OW48423   4.691   5.921   0.086 -0.5567 -0.1909 -0.4933
15784SOL    HW148424   4.774   5.881   0.110 -0.4356  0.3699  0.0499
15784SOL    HW248425   4.715   6.005   0.048 -0.8770  0.0298 -0.2160
15785SOL     OW48426   4.683   3.280   5.906  0.3900  0.1137  0.2487
15785SOL    HW148427   4.696   3.299   5.813  0.9829 -2.7032 -0.3251
15785SOL    HW248428   4.593   3.249   5.913 -0.1594  1.7317  0.9414
15786SOL     OW48429   2.914   5.467   2.744  0.5410 -0.2528 -0.5858
15786SOL    HW148430   2.899   5.561   2.753  0.8412 -0.3748  1.6621
15786SOL    HW248431   2.883   5.446   2.655 -0.8880  1.6896 -0.6010
15787SOL     OW48432   4.152   1.754   1.698 -0.1280 -0.0023  0.8582
15787SOL    HW148433   4.176   1.677   1.646 -3.4081 -1.8319  1.7413
15787SOL    HW248434   4.191   1.737   1.784 -1.0337 -0.8984  1.1216
15788SOL     OW48435   0.900   4.116   7.727  0.3196  0.5453  0.1873
15788SOL    HW148436   0.955   4.183   7.686  1.7544 -0.7272 -0.0536
15788SOL    HW248437   0.826   4.106   7.667  0.4534  1.3833 -0.1345
15789SOL     OW48438   7.091   4.788   8.073  0.6358  0.4206 -0.6037
15789SOL    HW148439   7.009   4.834   8.052  0.1989  0.2128  0.5691
15789SOL    HW248440   7.076   4.698   8.043  0.8262  0.6236 -1.3142
15790SOL     OW48441   2.507   1.175   1.151  0.1673  0.0428  0.0995
15790SOL    HW148442   2.434   1.234   1.169 -1.6615 -1.7432 -0.9812
15790SOL    HW248443   2.515   1.123   1.231  1.0968  1.0231  0.6666
15791SOL     OW48444   4.457   4.489   7.232  0.2999 -0.3268 -0.1366
15791SOL    HW148445   4.530   4.429   7.248  0.6760  0.0380 -0.5025
15791SOL    HW248446   4.486   4.545   7.160  0.4896  1.1752  1.0512
15792SOL     OW48447   7.726   4.976   1.290 -0.2556  0.3466  0.2240
15792SOL    HW148448   7.754   5.035   1.220  1.2489 -1.3724 -0.7138
15792SOL    HW248449   7.721   4.890   1.249 -3.9606 -0.0491  1.1464
15793SOL     OW48450   7.067   2.723   5.521  0.0110  0.0719  0.6301
15793SOL    HW148451   7.100   2.697   5.607  0.4692 -1.6086 -0.0064
15793SOL    HW248452   6.977   2.752   5.538  0.5617  1.1496  1.8584
15794SOL     OW48453   2.587   4.902   6.838  0.7668 -0.2041  0.3088
15794SOL    HW148454   2.534   4.904   6.758 -1.8239 -1.6412  1.8450
15794SOL    HW248455   2.617   4.992   6.848 -1.8698  0.8810 -0.4421
15795SOL     OW48456   1.963   7.806   7.398 -0.1087 -0.0250 -0.2626
15795SOL    HW148457   1.994   7.842   7.481 -1.8182  1.2434 -0.1207
15795SOL    HW248458   2.008   7.722   7.389  1.3475  0.5729  1.1246
15796SOL     OW48459   0.840   7.381   2.045  0.1129  0.0004 -0.1844
15796SOL    HW148460   0.746   7.400   2.043  0.1090 -0.0380 -0.4325
15796SOL    HW248461   0.874   7.437   2.114  0.2925  1.8541 -1.6768
15797SOL     OW48462   1.966   5.022   4.958  0.0547 -0.0090  0.6954
15797SOL    HW148463   1.899   4.954   4.954  0.8929 -0.8075 -0.5309
15797SOL    HW248464   2.043   4.977   4.994  0.8792  0.0185 -0.9214
15798SOL     OW48465   7.857   2.707   6.654 -0.3480 -0.0703  0.2019
15798SOL    HW148466   7.895   2.620   6.666 -0.3745 -0.2212 -0.7288
15798SOL    HW248467   7.920   2.754   6.600  0.2032  0.8790  1.6329
15799SOL     OW48468   6.337   4.706   1.054 -0.5569 -0.4631  0.0200
15799SOL    HW148469   6.386   4.679   1.132 -1.7281  0.5034  1.1394
15799SOL    HW248470   6.403   4.744   0.996  0.3490 -1.2854  0.4767
15800SOL     OW48471   3.921   5.040   3.961 -0.0137  0.4521 -0.3266
15800SOL    HW148472   4.016   5.048   3.953  0.2078 -1.5041 -0.1048
15800SOL    HW248473   3.898   4.970   3.900 -0.8803 -1.2258  1.7909
15801SOL     OW48474   7.530   3.172   6.355  0.6688 -0.3299 -0.5549
15801SOL    HW148475   7.504   3.171   6.447  0.0696  0.4506 -0.7112
15801SOL    HW248476   7.577   3.089   6.342 -1.1535 -1.4828 -0.0959
15802SOL     OW48477   4.913   2.952   4.422 -0.2165 -0.1634 -0.0458
15802SOL    HW148478   4.955   3.023   4.373  1.7525 -2.5763 -2.1506
15802SOL    HW248479   4.829   2.939   4.378 -0.0258  0.0416 -0.4754
15803SOL     OW48480   8.017   5.405   6.981  0.1736  0.3459 -0.5423
15803SOL    HW148481   7.933   5.423   7.023  1.3546 -1.5289  3.0690
15803SOL    HW248482   8.017   5.310   6.969  2.6989 -0.1425  2.1765
15804SOL     OW48483   4.639   6.931   1.659 -0.2056  0.1422  0.5351
15804SOL    HW148484   4.685   6.861   1.611  0.3022  0.2224  0.9008
15804SOL    HW248485   4.609   6.889   1.739 -2.1379 -0.3219 -0.3751
15805SOL     OW48486   4.023   6.563   4.076  0.7574  0.7910  0.3498
15805SOL    HW148487   4.023   6.654   4.047  0.2370  0.6303 -0.1722
15805SOL    HW248488   3.975   6.516   4.008 -0.6283  0.4357  1.5018
15806SOL     OW48489   0.338   1.384   4.044 -0.3927  0.5486 -0.0412
15806SOL    HW148490   0.361   1.401   3.952  0.6619 -0.7703 -0.0439
15806SOL    HW248491   0.247   1.353   4.039  0.1464 -0.9979 -0.8391
15807SOL     OW48492   0.720   5.573   5.197 -0.1376 -0.7999 -0.1179
15807SOL    HW148493   0.729   5.478   5.194  0.4283 -0.7841  0.7599
15807SOL    HW248494   0.796   5.606   5.150  0.1517 -0.7694  0.3711
15808SOL     OW48495   3.662   1.820   7.549 -0.0253 -0.3382  0.2924
15808SOL    HW148496   3.570   1.812   7.526 -0.0510  1.8549 -0.6515
15808SOL    HW248497   3.668   1.903   7.596  1.4302 -0.5537  0.5359
15809SOL     OW48498   5.686   6.489   7.857  0.0753 -0.3086 -0.7117
15809SOL    HW148499   5.626   6.427   7.898  1.3299 -1.8297 -1.0809
15809SOL    HW248500   5.640   6.519   7.778 -1.4064  0.9120  0.5405
15810SOL     OW48501   3.738   1.020   2.273  0.3505 -0.7336  0.9672
15810SOL    HW148502   3.777   0.940   2.238  0.3664 -1.4632  2.5433
15810SOL    HW248503   3.676   0.989   2.340 -0.4427  0.5363  0.8536
15811SOL     OW48504   0.179   6.241   3.657 -0.8145 -0.7562 -0.0879
15811SOL    HW148505   0.240   6.278   3.721 -0.3358  0.0589 -0.9807
15811SOL    HW248506   0.099   6.293   3.668 -0.9702 -1.0770  0.3149
15812SOL     OW48507   5.320   6.812   5.569  0.4392  0.7872  0.0402
15812SOL    HW148508   5.380   6.799   5.643  0.9749  1.2930 -0.2936
15812SOL    HW248509   5.333   6.734   5.514 -1.0508 -0.3317  1.1848
15813SOL     OW48510   4.035   0.736   1.546 -0.9100 -0.2080 -0.0589
15813SOL    HW148511   4.088   0.669   1.503  0.7577  1.0830 -0.1139
15813SOL    HW248512   4.014   0.699   1.632 -0.1120 -0.8715 -0.1395
15814SOL     OW48513   5.081   6.248   3.927  0.1434  0.0884  0.2624
15814SOL    HW148514   5.151   6.205   3.878  0.5412  0.4775  0.4770
15814SOL    HW248515   5.121   6.328   3.961 -0.2761  0.0961  0.7664
15815SOL     OW48516   2.316   1.278   2.786  0.7071 -0.5583  0.0488
15815SOL    HW148517   2.322   1.328   2.867  1.5668 -0.0706 -0.2962
15815SOL    HW248518   2.228   1.239   2.787  0.0682  0.8564  0.3856
15816SOL     OW48519   5.326   3.746   2.663  0.1666 -0.5797 -0.0346
15816SOL    HW148520   5.419   3.741   2.686  0.3255  0.3090 -0.4392
15816SOL    HW248521   5.311   3.839   2.643 -0.6831 -0.7992 -0.4740
15817SOL     OW48522   4.845   3.378   1.488 -0.7407 -0.1741 -0.0237
15817SOL    HW148523   4.780   3.311   1.510  0.3330 -1.3569 -0.3195
15817SOL    HW248524   4.794   3.455   1.465 -2.0380 -1.0859 -0.2968
15818SOL     OW48525   6.142   6.010   2.778  0.3086  0.0517  0.4677
15818SOL    HW148526   6.067   6.003   2.838  0.8106  0.3922  1.1376
15818SOL    HW248527   6.103   6.036   2.694 -0.4888 -1.1539  0.4343
15819SOL     OW48528   7.271   6.184   2.108 -0.3943  0.0948 -0.2697
15819SOL    HW148529   7.208   6.233   2.162  1.9633  1.0136  1.8156
15819SOL    HW248530   7.270   6.095   2.145  0.6184  0.5123  0.8139
15820SOL     OW48531   8.143   7.919   3.733 -0.3899 -0.4944  0.1500
15820SOL    HW148532   8.191   7.840   3.758  1.1566  0.5217  0.5334
15820SOL    HW248533   8.211   7.979   3.701 -1.8779 -0.6300 -3.8902
15821SOL     OW48534   3.503   6.500   2.040  0.4640 -0.3665 -0.0001
15821SOL    HW148535   3.518   6.554   1.963  0.6870  0.7365  0.7765
15821SOL    HW248536   3.413   6.522   2.068  1.0647  0.7694  1.1632
15822SOL     OW48537   1.210   4.701   2.755 -0.0452  0.1238  0.3287
15822SOL    HW148538   1.295   4.743   2.768  0.3408 -0.2745 -0.7546
15822SOL    HW248539   1.232   4.613   2.722 -0.8656 -0.1730  0.5638
15823SOL     OW48540   1.179   5.679   5.098  0.0262 -0.6060  0.2160
15823SOL    HW148541   1.263   5.724   5.109  1.5806 -3.0063 -0.7483
15823SOL    HW248542   1.117   5.748   5.075  1.8169  1.2218  0.5675
15824SOL     OW48543   5.271   7.741   0.351  0.0590  0.4281 -0.1546
15824SOL    HW148544   5.238   7.820   0.392 -0.7226  0.5743 -1.0215
15824SOL    HW248545   5.248   7.671   0.412 -2.5617  0.4338 -1.0026
15825SOL     OW48546   0.518   4.462   6.010  0.4389 -0.5575 -0.6279
15825SOL    HW148547   0.606   4.423   6.011  0.5561 -0.2995 -0.7943
15825SOL    HW248548   0.512   4.504   5.924 -0.2048 -1.3810 -1.0003
15826SOL     OW48549   1.892   0.133   5.626  0.3696  0.0752 -0.0693
15826SOL    HW148550   1.835   0.210   5.637  0.1595 -0.0289 -0.4020
15826SOL    HW248551   1.970   0.153   5.677  0.5705  0.7715 -0.6395
15827SOL     OW48552   3.493   1.001   0.915 -0.3458 -0.1923 -0.4165
15827SOL    HW148553   3.565   0.986   0.853 -0.9348 -0.1716 -1.1162
15827SOL    HW248554   3.482   1.096   0.916  0.2941 -0.1154  0.4611
15828SOL     OW48555   2.337   6.322   1.005 -0.5465 -0.5127  0.3244
15828SOL    HW148556   2.397   6.396   0.993 -0.2068 -0.1255  3.6648
15828SOL    HW248557   2.253   6.363   1.026 -0.7798 -1.0950  0.5264
15829SOL     OW48558   3.142   5.650   2.477 -0.4918  0.0345 -0.2260
15829SOL    HW148559   3.157   5.555   2.481  0.6011  0.2228  0.2892
15829SOL    HW248560   3.073   5.660   2.411 -0.6297 -1.1201 -0.2758
15830SOL     OW48561   4.674   2.913   6.027 -0.3338  0.6150 -0.0895
15830SOL    HW148562   4.688   2.843   5.963 -2.5737 -0.0614  0.0510
15830SOL    HW248563   4.629   2.982   5.978  1.1510  1.6595 -0.0393
15831SOL     OW48564   6.133   0.361   3.856  0.1743 -0.4676  0.4350
15831SOL    HW148565   6.195   0.377   3.927  1.9861  1.9972 -1.5417
15831SOL    HW248566   6.184   0.317   3.788 -1.3742 -2.2688  0.3577
15832SOL     OW48567   6.343   2.450   0.825 -0.1682 -0.3335  0.0320
15832SOL    HW148568   6.288   2.528   0.823 -0.0819 -0.1911  1.6659
15832SOL    HW248569   6.381   2.450   0.912 -1.1790 -2.9035  0.5751
15833SOL     OW48570   4.138   1.861   6.174 -0.4056  0.5158 -0.0522
15833SOL    HW148571   4.108   1.951   6.167 -1.7980  0.2339  1.6972
15833SOL    HW248572   4.212   1.865   6.235 -0.4491  0.4668  0.0033
15834SOL     OW48573   6.693   5.029   0.844  0.1655  0.4602  0.5018
15834SOL    HW148574   6.693   5.107   0.788  0.7911  0.0100 -0.1407
15834SOL    HW248575   6.786   5.014   0.863  0.1165 -0.6337 -0.0925
15835SOL     OW48576   0.938   5.620   7.421  0.1690  0.1219  0.2056
15835SOL    HW148577   0.854   5.574   7.413  0.3047 -0.7554  2.7476
15835SOL    HW248578   0.988   5.567   7.484  2.0581  1.4290 -0.1195
15836SOL     OW48579   1.112   0.005   3.158  0.2414  0.1867  0.0163
15836SOL    HW148580   1.125  -0.089   3.145 -1.5344 -0.1517  0.4418
15836SOL    HW248581   1.191   0.034   3.203  0.4122 -1.2841  0.7121
15837SOL     OW48582   6.240   5.024   5.756 -0.0999 -0.0863 -0.4597
15837SOL    HW148583   6.208   5.010   5.667  1.9804 -1.0541 -1.1143
15837SOL    HW248584   6.305   5.094   5.747 -0.2261  0.1550  0.4017
15838SOL     OW48585   6.046   1.322   4.695  0.3584  0.2412  0.3475
15838SOL    HW148586   6.087   1.341   4.611  0.0964  0.0506  0.1774
15838SOL    HW248587   6.005   1.237   4.684 -0.0114  0.3904  0.5447
15839SOL     OW48588   5.022   7.585   6.346 -0.0973  0.0564 -0.2389
15839SOL    HW148589   4.988   7.602   6.434  0.7487  1.4280 -0.1448
15839SOL    HW248590   4.944   7.569   6.293 -0.6429 -0.3469  0.6681
15840SOL     OW48591   0.523   0.528   7.095  0.0409 -0.7347  0.4412
15840SOL    HW148592   0.475   0.515   7.177 -0.1365  0.1060  0.4780
15840SOL    HW248593   0.579   0.604   7.112  0.8061 -1.2166  0.1379
15841SOL     OW48594   3.307   3.868   8.056  0.1316  0.4510 -0.1512
15841SOL    HW148595   3.278   3.797   8.114 -0.6349  0.5604 -0.3805
15841SOL    HW248596   3.229   3.923   8.045  0.2893  0.4900 -1.1975
15842SOL     OW48597   3.101   0.583   3.467  0.2527 -0.3527 -0.1694
15842SOL    HW148598   3.031   0.542   3.517  0.1401 -0.5770 -0.5136
15842SOL    HW248599   3.109   0.531   3.387  1.2307 -0.7074  0.1408
15843SOL     OW48600   1.675   4.118   7.097 -0.0094 -0.7764  0.4243
15843SOL    HW148601   1.630   4.203   7.089  0.7654 -0.4567 -0.7923
15843SOL    HW248602   1.605   4.056   7.119 -1.3519 -0.5385 -2.7488
15844SOL     OW48603   5.352   7.543   1.177 -0.0102 -0.7307  0.0115
15844SOL    HW148604   5.368   7.468   1.119 -0.1436 -1.0984  0.4401
15844SOL    HW248605   5.399   7.520   1.258 -0.4106 -0.5522  0.2981
15845SOL     OW48606   7.339   5.768   4.645 -0.3832  0.0621 -0.2749
15845SOL    HW148607   7.389   5.693   4.676 -1.2662 -1.0692 -1.5047
15845SOL    HW248608   7.250   5.735   4.633 -0.8649  1.3865 -0.5459
15846SOL     OW48609   2.595   2.595   3.571 -0.4328 -0.0107 -0.3079
15846SOL    HW148610   2.653   2.559   3.638  0.7207  1.3957 -0.5168
15846SOL    HW248611   2.646   2.591   3.491 -1.4193 -0.6849 -0.9282
15847SOL     OW48612   3.542   6.029   7.964 -0.5509 -0.0066  0.0409
15847SOL    HW148613   3.565   6.100   8.023 -0.4252  0.0101 -0.0267
15847SOL    HW248614   3.566   5.949   8.012  0.0438  0.0270 -0.1959
15848SOL     OW48615   1.244   3.622   0.086  0.2136  0.2390 -0.6442
15848SOL    HW148616   1.247   3.544   0.141 -2.4464 -0.7509 -1.7414
15848SOL    HW248617   1.324   3.617   0.033  1.2976 -0.3846  0.9789
15849SOL     OW48618   0.336   5.926   6.107  0.0759  0.3426  0.2007
15849SOL    HW148619   0.316   5.846   6.058 -0.7680  2.0718 -2.4584
15849SOL    HW248620   0.425   5.913   6.139  0.7511 -0.8443 -1.9613
15850SOL     OW48621   4.569   1.105   2.693 -0.2956  0.2567 -0.4019
15850SOL    HW148622   4.624   1.147   2.759 -1.6112  2.5852 -0.6636
15850SOL    HW248623   4.504   1.056   2.743 -1.4032  2.1592  0.1342
15851SOL     OW48624   7.034   7.938   1.156  0.3396 -0.3195  0.5251
15851SOL    HW148625   7.041   7.954   1.251  1.4803 -4.4665  1.3254
15851SOL    HW248626   7.094   7.866   1.139  0.0801  0.1807 -3.4105
15852SOL     OW48627   5.800   0.339   5.826  0.3601 -0.1886  0.3682
15852SOL    HW148628   5.736   0.398   5.865  2.1530  1.4314  1.0271
15852SOL    HW248629   5.748   0.278   5.774 -1.5952  2.2413 -0.7358
15853SOL     OW48630   0.406   1.071   1.480  0.0862  0.0793 -0.1864
15853SOL    HW148631   0.411   1.166   1.474  0.6291  0.0321 -0.6292
15853SOL    HW248632   0.322   1.048   1.439 -1.1804  0.5172  2.0542
15854SOL     OW48633   4.556   1.879   2.690  0.3391  0.3307  0.2293
15854SOL    HW148634   4.560   1.899   2.783  1.7589  4.4794 -0.5300
15854SOL    HW248635   4.631   1.924   2.652 -0.3777 -0.9290 -3.0100
15855SOL     OW48636   3.190   1.801   7.882 -0.1007  0.5702  0.3439
15855SOL    HW148637   3.143   1.856   7.946 -0.2608 -0.6684  1.3337
15855SOL    HW248638   3.282   1.808   7.907 -0.2522 -0.6641  1.3594
15856SOL     OW48639   3.584   1.937   4.111 -1.0832  0.2551 -0.5575
15856SOL    HW148640   3.562   1.845   4.098 -0.9459  0.2211 -0.5467
15856SOL    HW248641   3.673   1.946   4.076 -0.3400 -0.0489  1.1429
15857SOL     OW48642   3.364   4.473   1.166 -0.8629 -0.5522  0.4395
15857SOL    HW148643   3.341   4.416   1.093  0.1175 -1.8511  1.1042
15857SOL    HW248644   3.321   4.556   1.146  0.6755 -0.3400 -2.4050
15858SOL     OW48645   6.364   4.235   6.631 -0.1198  0.1389 -0.5224
15858SOL    HW148646   6.439   4.221   6.689  0.1014 -1.4713 -1.1366
15858SOL    HW248647   6.393   4.203   6.546 -1.2437  0.1831 -0.9412
15859SOL     OW48648   4.148   6.293   6.077 -0.1036  0.0550  0.3174
15859SOL    HW148649   4.136   6.208   6.120  0.1841  0.1829  0.6556
15859SOL    HW248650   4.061   6.314   6.042  0.0025 -0.7380 -0.4447
15860SOL     OW48651   3.076   4.872   6.605 -0.9984 -0.2750 -0.3860
15860SOL    HW148652   3.089   4.871   6.699 -0.9951 -1.1016 -0.3856
15860SOL    HW248653   3.124   4.948   6.574 -1.6261  0.4382  0.3586
15861SOL     OW48654   0.480   2.445   4.827  0.0235  0.7327  0.4221
15861SOL    HW148655   0.543   2.389   4.873 -0.3719  0.0576  0.1681
15861SOL    HW248656   0.436   2.494   4.897 -0.4646 -0.1722  0.7668
15862SOL     OW48657   4.757   0.266   6.701  0.3231 -0.1264 -0.0105
15862SOL    HW148658   4.682   0.320   6.674 -1.3752 -0.9916  2.5676
15862SOL    HW248659   4.828   0.329   6.714 -0.2799  0.8844 -1.3752
15863SOL     OW48660   7.505   0.666   2.901  0.0310  0.4169 -0.3313
15863SOL    HW148661   7.433   0.674   2.965  0.0644  1.7649 -0.4307
15863SOL    HW248662   7.563   0.739   2.922  1.0077 -0.2395 -0.7256
15864SOL     OW48663   5.339   2.200   7.697  0.1867 -0.4796 -0.2465
15864SOL    HW148664   5.315   2.152   7.618  1.4533  0.8596 -1.5102
15864SOL    HW248665   5.394   2.140   7.746 -1.5319 -1.7412  0.2387
15865SOL     OW48666   2.906   6.481   2.165 -0.3106 -0.1373 -0.2495
15865SOL    HW148667   2.856   6.420   2.110  0.7707 -1.3793  0.1042
15865SOL    HW248668   2.933   6.550   2.105  1.0583 -1.5930 -1.4120
15866SOL     OW48669   6.850   7.109   2.562 -0.4661  0.4750 -0.4975
15866SOL    HW148670   6.783   7.041   2.559  0.1497 -0.1512 -0.2241
15866SOL    HW248671   6.803   7.189   2.537 -1.3587  0.0887 -0.1206
15867SOL     OW48672   4.782   1.237   0.153 -0.6026 -0.2417 -0.2710
15867SOL    HW148673   4.777   1.142   0.142  2.1440 -0.5078  0.1000
15867SOL    HW248674   4.728   1.255   0.230  0.7457 -1.8989  1.1577
15868SOL     OW48675   2.203   2.774   2.471  0.2724 -0.3284  0.2283
15868SOL    HW148676   2.278   2.731   2.431  0.6779  1.7051 -1.3372
15868SOL    HW248677   2.240   2.844   2.524 -0.4390  1.5627 -1.6060
15869SOL     OW48678   3.910   6.051   5.716 -0.0732  0.2698  0.0969
15869SOL    HW148679   3.988   6.101   5.740  0.1957 -0.1248  0.0646
15869SOL    HW248680   3.880   6.013   5.799  0.5375 -0.6468 -0.0854
15870SOL     OW48681   7.784   7.957   1.604  0.4672  0.3048  0.4047
15870SOL    HW148682   7.789   7.996   1.516  0.0143  1.3455  0.8325
15870SOL    HW248683   7.784   7.863   1.587 -0.8768  0.4757 -0.8122
15871SOL     OW48684   7.337   6.475   3.509  0.3278  0.2193 -0.5534
15871SOL    HW148685   7.334   6.380   3.496  0.8351  0.2951 -1.3301
15871SOL    HW248686   7.370   6.487   3.597  1.8044 -0.3276 -1.0093
15872SOL     OW48687   3.065   1.016   6.427 -0.3022  0.1876  0.8741
15872SOL    HW148688   3.139   1.069   6.456 -0.2634 -0.8367  2.7876
15872SOL    HW248689   3.103   0.929   6.410 -1.0460 -0.3525  1.8981
15873SOL     OW48690   7.591   7.703   5.965  0.0885  0.1024  0.0489
15873SOL    HW148691   7.637   7.680   5.885 -1.0159  0.7974 -0.8169
15873SOL    HW248692   7.539   7.626   5.987  0.1736  0.0131 -0.0640
15874SOL     OW48693   6.519   5.581   6.829 -0.1210 -0.2482  0.1725
15874SOL    HW148694   6.543   5.539   6.746 -0.0657  0.6862 -0.3026
15874SOL    HW248695   6.472   5.514   6.878 -0.5514 -0.6826 -0.8127
15875SOL     OW48696   5.442   6.400   0.110  0.4677 -0.1927  0.1720
15875SOL    HW148697   5.388   6.358   0.177  0.0192 -0.2893 -0.2423
15875SOL    HW248698   5.495   6.330   0.074  2.2878  0.2294  1.8856
15876SOL     OW48699   3.369   3.146   5.012 -0.0291  0.3764  0.7678
15876SOL    HW148700   3.299   3.207   5.031  0.4664  0.9128  0.8889
15876SOL    HW248701   3.376   3.145   4.917 -0.5845 -0.1253  0.7244
15877SOL     OW48702   7.162   6.498   2.864  0.8275  0.3069 -0.5079
15877SOL    HW148703   7.172   6.589   2.838  2.0533 -0.1594 -1.8068
15877SOL    HW248704   7.118   6.502   2.949 -0.2891  2.0461 -1.1036
15878SOL     OW48705   5.262   2.344   5.164  0.0102 -0.2636 -0.3080
15878SOL    HW148706   5.303   2.268   5.205  0.7359  0.3727  0.1845
15878SOL    HW248707   5.325   2.373   5.098 -0.8666 -0.8868 -1.4517
15879SOL     OW48708   3.219   6.553   0.414  0.1887  0.7858 -0.0511
15879SOL    HW148709   3.184   6.539   0.326 -2.2181 -0.1908  0.9789
15879SOL    HW248710   3.234   6.464   0.447  1.5055  1.1539  0.3953
15880SOL     OW48711   2.545   0.313   3.733  0.3585 -0.0200  0.0100
15880SOL    HW148712   2.580   0.315   3.644  1.2184 -1.5976  0.2780
15880SOL    HW248713   2.454   0.341   3.723  0.5231  0.1388 -1.3124
15881SOL     OW48714   2.215   0.825   0.568  0.3198  0.1792 -0.2764
15881SOL    HW148715   2.134   0.876   0.577 -0.4828 -1.1645  0.5442
15881SOL    HW248716   2.259   0.833   0.652 -0.8503 -2.0623  0.6532
15882SOL     OW48717   4.285   2.682   4.015  0.1349  0.0352 -0.5288
15882SOL    HW148718   4.293   2.656   3.924 -1.0475  0.5726 -0.7998
15882SOL    HW248719   4.202   2.729   4.020  0.1089 -0.1031  0.8507
15883SOL     OW48720   6.759   6.149   1.074 -0.3075  0.3052  0.4739
15883SOL    HW148721   6.782   6.225   1.127 -0.9041  0.2612  0.8010
15883SOL    HW248722   6.787   6.172   0.985 -0.3115  0.8247  0.6059
15884SOL     OW48723   1.891   4.452   1.978 -0.5481 -0.0152 -1.2679
15884SOL    HW148724   1.841   4.534   1.981  0.7021  0.7554 -0.2657
15884SOL    HW248725   1.974   4.476   1.938  0.2720 -0.5179  0.0495
15885SOL     OW48726   3.289   7.626   6.064  0.1426 -0.2120 -0.6580
15885SOL    HW148727   3.307   7.657   6.153 -1.0469  0.2494 -0.5581
15885SOL    HW248728   3.194   7.616   6.061  0.3460 -2.4582 -1.1669
15886SOL     OW48729   6.453   2.385   7.101 -0.2199 -0.1063  0.0961
15886SOL    HW148730   6.380   2.432   7.142 -0.3328 -1.7176  1.8872
15886SOL    HW248731   6.531   2.420   7.144 -0.1345 -0.0530 -0.1035
15887SOL     OW48732   7.984   6.671   7.501  0.1107 -0.6925  0.1166
15887SOL    HW148733   7.971   6.751   7.552 -0.2589 -1.6085  1.5520
15887SOL    HW248734   7.896   6.648   7.470 -0.4040 -2.1696  2.3830
15888SOL     OW48735   2.728   0.482   6.729 -0.3268  0.2668  0.4883
15888SOL    HW148736   2.676   0.544   6.677  0.4883  0.9108  0.4184
15888SOL    HW248737   2.818   0.495   6.698 -0.1220 -0.8556  0.5840
15889SOL     OW48738   3.334   6.332   3.526  0.3073  0.3558 -0.3792
15889SOL    HW148739   3.300   6.417   3.496 -0.3949  0.0634 -0.4188
15889SOL    HW248740   3.429   6.339   3.513  0.5163  1.8576  1.4006
15890SOL     OW48741   7.167   5.046   2.674  0.4704  0.3578 -0.0590
15890SOL    HW148742   7.090   5.101   2.659  1.7329  2.0800 -0.6933
15890SOL    HW248743   7.135   4.956   2.665 -1.2114  1.0372 -1.6110
15891SOL     OW48744   1.093   6.466   2.529 -0.5837 -0.1387  0.0480
15891SOL    HW148745   1.144   6.474   2.448 -0.4756 -1.2660 -0.0151
15891SOL    HW248746   1.155   6.432   2.594 -0.8624  0.0030  0.3895
15892SOL     OW48747   5.443   5.925   0.056  0.2463 -0.3450 -0.1393
15892SOL    HW148748   5.502   6.000   0.060 -1.2927  0.8641  1.7723
15892SOL    HW248749   5.359   5.962   0.029 -1.2658 -0.7562  3.4848
15893SOL     OW48750   5.668   5.572   2.917 -0.4602  0.7878  0.2792
15893SOL    HW148751   5.615   5.509   2.868 -0.0471  0.7002 -0.0597
15893SOL    HW248752   5.756   5.562   2.882  0.0733 -0.0243  1.7786
15894SOL     OW48753   1.621   7.982   0.564  0.5284 -0.1182  0.1432
15894SOL    HW148754   1.647   8.038   0.637 -0.8685 -0.8857  1.2816
15894SOL    HW248755   1.699   7.976   0.509  2.5368 -1.7180  2.9568
15895SOL     OW48756   6.743   0.118   5.878 -0.1413  0.0249  0.3113
15895SOL    HW148757   6.647   0.116   5.872 -0.1132  0.7481 -0.7630
15895SOL    HW248758   6.761   0.151   5.965 -0.8946  0.8858  0.1595
15896SOL     OW48759   2.435   5.918   4.445  0.0223  0.2758  0.0276
15896SOL    HW148760   2.350   5.899   4.485  0.4164  0.4689  0.9990
15896SOL    HW248761   2.435   5.869   4.363 -0.8899  0.0055  0.1790
15897SOL     OW48762   2.146   1.853   5.013 -0.1102  1.3398  0.1054
15897SOL    HW148763   2.153   1.949   5.008  0.1946  1.3016 -0.1955
15897SOL    HW248764   2.218   1.826   5.069  1.0689  1.1210 -1.4260
15898SOL     OW48765   5.887   6.322   0.968 -0.0936  0.0095 -0.2335
15898SOL    HW148766   5.888   6.291   1.059 -2.4172 -2.1850 -0.8459
15898SOL    HW248767   5.977   6.351   0.952  0.1694  1.5831  3.0510
15899SOL     OW48768   1.624   0.297   4.905  0.5096 -0.4059 -0.7430
15899SOL    HW148769   1.574   0.286   4.986 -0.0072 -1.4201 -1.1750
15899SOL    HW248770   1.559   0.323   4.840  1.2092  2.2198 -0.4818
15900SOL     OW48771   2.394   0.585   0.868  0.2296  0.4442 -0.1071
15900SOL    HW148772   2.464   0.648   0.884 -0.9205  1.7110  0.0549
15900SOL    HW248773   2.314   0.637   0.869 -0.6575 -0.8547 -1.0781
15901SOL     OW48774   4.292   2.395   3.666  0.3365 -0.1739  0.8600
15901SOL    HW148775   4.378   2.368   3.633  0.4846 -0.2310  1.2843
15901SOL    HW248776   4.233   2.382   3.592  1.0463  1.8929 -0.1434
15902SOL     OW48777   4.704   4.573   0.845  0.4803 -0.3536 -0.1872
15902SOL    HW148778   4.614   4.598   0.863  0.9296 -0.6016  3.0147
15902SOL    HW248779   4.699   4.480   0.822 -0.0677 -0.3428 -0.1231
15903SOL     OW48780   8.038   7.286   0.035 -0.4629  0.4084  0.5294
15903SOL    HW148781   8.090   7.269   0.113 -1.9144  1.3673  1.7586
15903SOL    HW248782   8.004   7.375   0.047 -1.9700  0.0014 -0.4448
15904SOL     OW48783   6.858   7.416   0.790  0.0924  0.0957 -0.0718
15904SOL    HW148784   6.794   7.347   0.806  2.0374 -1.7613  0.1169
15904SOL    HW248785   6.876   7.411   0.696  0.9707 -0.3526  0.1124
15905SOL     OW48786   6.050   1.699   8.057 -0.5181  0.6937 -0.0905
15905SOL    HW148787   6.073   1.646   7.981 -2.5430 -3.4819  1.8395
15905SOL    HW248788   5.971   1.747   8.031 -1.4042 -0.9689 -0.6148
15906SOL     OW48789   7.128   4.947   4.937  0.6884  0.1240  0.1813
15906SOL    HW148790   7.062   4.996   4.985  0.6299 -0.2445  0.4902
15906SOL    HW248791   7.144   4.869   4.991 -0.2799 -0.9273 -0.9886
15907SOL     OW48792   3.902   6.379   0.743  0.0425  0.6792  0.0897
15907SOL    HW148793   3.992   6.399   0.717  0.6844 -0.1409  1.5488
15907SOL    HW248794   3.870   6.319   0.675  0.9916  0.0968  0.1372
15908SOL     OW48795   5.539   7.450   0.145  0.3242 -0.2122 -0.5337
15908SOL    HW148796   5.502   7.460   0.233 -0.1231  2.0320 -0.9106
15908SOL    HW248797   5.611   7.389   0.156 -0.4103 -0.8380  1.1730
15909SOL     OW48798   8.055   2.146   0.873 -0.1817 -0.5230  0.4882
15909SOL    HW148799   7.971   2.141   0.826 -0.3564  0.0919  0.7224
15909SOL    HW248800   8.107   2.076   0.835  0.1117  0.6647 -1.4726
15910SOL     OW48801   6.031   6.197   3.045  0.6011  0.1045  0.0895
15910SOL    HW148802   6.016   6.168   3.135 -0.4172  0.4389  0.0477
15910SOL    HW248803   5.973   6.142   2.992 -1.7285  2.4161  0.0549
15911SOL     OW48804   0.194   4.723   4.040 -0.0398 -0.0343  0.0642
15911SOL    HW148805   0.132   4.683   4.101 -0.5018 -0.3092 -0.5724
15911SOL    HW248806   0.280   4.706   4.079 -0.1930 -1.9242 -0.3083
15912SOL     OW48807   2.033   3.219   3.531  0.1668 -0.3586 -0.0741
15912SOL    HW148808   2.104   3.225   3.468 -0.9252 -1.2435 -1.4354
15912SOL    HW248809   1.987   3.138   3.509 -1.8084  0.6228  0.1764
15913SOL     OW48810   3.491   7.985   2.917  0.1923  0.2467  0.2450
15913SOL    HW148811   3.478   8.073   2.881 -3.0962 -0.2981 -0.2570
15913SOL    HW248812   3.403   7.948   2.920  0.9923 -1.8013  3.7367
15914SOL     OW48813   0.563   1.652   2.516 -0.7554  0.0805  0.0775
15914SOL    HW148814   0.528   1.723   2.462 -3.0970 -1.4657 -0.6049
15914SOL    HW248815   0.617   1.601   2.456 -0.5528  0.2493  0.1118
15915SOL     OW48816   4.804   3.069   6.479  0.7526 -0.0814  0.1518
15915SOL    HW148817   4.848   3.149   6.449 -1.9511  0.6897 -2.1627
15915SOL    HW248818   4.788   3.019   6.399 -1.3800 -0.9061  1.0150
15916SOL     OW48819   0.506   0.149   1.512 -0.2602  0.1914 -0.2901
15916SOL    HW148820   0.575   0.161   1.578  0.1288  1.2260 -0.8622
15916SOL    HW248821   0.444   0.088   1.552  0.1793  0.4898  0.8591
15917SOL     OW48822   5.871   1.725   7.469  0.1788 -0.5240 -0.0397
15917SOL    HW148823   5.961   1.749   7.449 -0.0658 -0.5428 -1.2477
15917SOL    HW248824   5.876   1.676   7.552  1.2049 -0.1322  0.1361
15918SOL     OW48825   7.979   2.590   1.533  0.0584  0.1349  0.3704
15918SOL    HW148826   8.068   2.577   1.566  0.6993 -0.3377 -1.4758
15918SOL    HW248827   7.982   2.563   1.442 -1.5262  1.8934 -0.2694
15919SOL     OW48828   6.249   2.279   0.066  0.3786 -0.1975  0.4614
15919SOL    HW148829   6.177   2.320   0.018  0.1871  1.4834  2.0616
15919SOL    HW248830   6.327   2.327   0.037  0.8213 -1.5568 -0.7500
15920SOL     OW48831   4.663   4.927   3.407 -0.1722 -0.4507  0.5142
15920SOL    HW148832   4.639   4.890   3.492  0.0928 -0.3094  0.6518
15920SOL    HW248833   4.756   4.910   3.398  0.2316  1.2209  1.1267
15921SOL     OW48834   4.837   2.282   2.851  0.2531 -0.4994  0.5930
15921SOL    HW148835   4.912   2.293   2.792  0.4027  0.0056  0.8691
15921SOL    HW248836   4.876   2.248   2.932  0.1593 -0.4306  0.6669
15922SOL     OW48837   1.204   3.164   2.460 -0.2076 -0.1132  0.1576
15922SOL    HW148838   1.281   3.220   2.463  0.1401 -0.6036  0.5395
15922SOL    HW248839   1.139   3.214   2.410  0.5822  0.0192 -0.7577
15923SOL     OW48840   0.313   5.155   1.600  0.1758 -0.5237 -0.0387
15923SOL    HW148841   0.286   5.172   1.690 -0.7157  2.5060 -0.7685
15923SOL    HW248842   0.269   5.073   1.577 -0.5105 -0.7509  1.8820
15924SOL     OW48843   7.759   3.166   3.191 -0.1626  0.8553 -0.1901
15924SOL    HW148844   7.848   3.201   3.192  0.4265 -0.4204  2.0988
15924SOL    HW248845   7.771   3.071   3.190 -1.4426  0.6415  1.0758
15925SOL     OW48846   5.416   7.155   1.136  0.3272  0.5211 -0.0160
15925SOL    HW148847   5.325   7.156   1.164  0.4826  0.3586  0.5118
15925SOL    HW248848   5.466   7.174   1.216  0.7540  0.5885 -0.2959
15926SOL     OW48849   0.942   3.833   3.043  0.2210 -0.5390 -0.1885
15926SOL    HW148850   0.902   3.748   3.027  0.0342 -0.0889 -2.2859
15926SOL    HW248851   0.875   3.897   3.020  0.2662  0.2267  1.6189
15927SOL     OW48852   4.189   0.985   3.045 -0.0538 -0.2316  0.2925
15927SOL    HW148853   4.196   1.008   3.138  1.9847  1.5827 -0.2117
15927SOL    HW248854   4.265   0.929   3.029 -0.9560 -1.3643 -0.0932
15928SOL     OW48855   3.157   1.043   1.304 -0.5828  0.0790  0.3952
15928SOL    HW148856   3.125   1.081   1.386 -0.5898  0.0042  0.4271
15928SOL    HW248857   3.220   1.107   1.271 -0.7882  0.2418  0.3153
15929SOL     OW48858   1.947   2.715   5.435  0.8966  0.0471  0.4491
15929SOL    HW148859   2.006   2.700   5.508  1.7772  0.2673 -0.1936
15929SOL    HW248860   2.005   2.717   5.358  0.0470  0.2453 -0.1979
15930SOL     OW48861   6.286   1.477   3.028  0.1694  0.7245 -0.2098
15930SOL    HW148862   6.355   1.411   3.011  1.2098  1.6634  0.2399
15930SOL    HW248863   6.245   1.447   3.109  0.9551  0.8591  0.2560
15931SOL     OW48864   1.300   5.240   4.946  0.2524  0.2702 -0.1555
15931SOL    HW148865   1.241   5.201   5.011  1.5073  1.3283  1.7124
15931SOL    HW248866   1.358   5.169   4.921  0.9585  0.2798  1.3617
15932SOL     OW48867   1.922   1.237   2.555  0.3173 -0.2434  0.2417
15932SOL    HW148868   1.958   1.210   2.640  1.8800 -1.3262 -0.7118
15932SOL    HW248869   1.998   1.265   2.505 -0.6328  0.7273 -0.6901
15933SOL     OW48870   7.729   7.348   2.795  0.0353  0.7840  0.7547
15933SOL    HW148871   7.714   7.361   2.889 -0.4932  2.8591  0.4480
15933SOL    HW248872   7.641   7.333   2.759  0.2283  0.0798  0.5702
15934SOL     OW48873   3.008   6.698   5.016  0.1883  0.3748 -0.6028
15934SOL    HW148874   3.026   6.614   5.057  3.2418  1.3215  0.2563
15934SOL    HW248875   3.007   6.678   4.922  1.3164 -0.5730 -0.4387
15935SOL     OW48876   0.771   7.218   2.256 -0.2872 -0.2828 -0.5862
15935SOL    HW148877   0.794   7.262   2.174 -0.7024  1.4596  0.1856
15935SOL    HW248878   0.680   7.243   2.272  0.0252  0.0244  0.7854
15936SOL     OW48879   3.475   2.107   0.442  0.1831 -0.0255  0.0338
15936SOL    HW148880   3.420   2.108   0.363  0.0026  0.1956  0.1626
15936SOL    HW248881   3.415   2.081   0.512  0.2931 -0.0030  0.1358
15937SOL     OW48882   3.685   4.685   7.879 -0.0487  0.1203 -0.0121
15937SOL    HW148883   3.596   4.693   7.912 -0.9381  0.9602 -2.3882
15937SOL    HW248884   3.733   4.757   7.920 -1.0303  0.9833 -0.3405
15938SOL     OW48885   0.015   2.759   1.968 -0.2323 -0.1686 -0.9573
15938SOL    HW148886  -0.020   2.837   1.926 -0.4701  0.3841  0.2055
15938SOL    HW248887   0.082   2.793   2.028  0.2172 -0.9397 -1.0042
15939SOL     OW48888   0.157   7.785   6.718  0.1385 -0.1943  0.0557
15939SOL    HW148889   0.164   7.858   6.780 -1.7309 -0.8370  1.1026
15939SOL    HW248890   0.191   7.710   6.767  0.9388 -0.2711 -0.5967
15940SOL     OW48891   0.598   2.150   7.780 -0.3566 -0.0749  0.8283
15940SOL    HW148892   0.514   2.129   7.739 -0.3047 -1.0627  1.1871
15940SOL    HW248893   0.577   2.216   7.846 -0.8346 -0.2341  0.8388
15941SOL     OW48894   8.091   4.227   0.624  0.4327 -0.2176  0.1858
15941SOL    HW148895   8.069   4.318   0.606  0.0607 -0.5810 -1.2740
15941SOL    HW248896   8.014   4.192   0.669  0.9678  0.4228  1.6754
15942SOL     OW48897   0.051   4.766   6.649 -0.0794  0.4419  0.2377
15942SOL    HW148898   0.093   4.794   6.731 -2.8844 -0.5570  2.1647
15942SOL    HW248899  -0.019   4.830   6.635 -0.0656  0.1923 -1.0222
15943SOL     OW48900   1.528   7.446   1.371 -0.7184 -0.7165 -0.9694
15943SOL    HW148901   1.598   7.504   1.342 -0.3611 -1.3154 -1.3274
15943SOL    HW248902   1.481   7.424   1.290 -1.4059 -0.2202 -0.7187
15944SOL     OW48903   1.879   7.954   4.150 -0.2943  0.6248 -0.1873
15944SOL    HW148904   1.966   7.947   4.110 -0.6883  1.1999 -1.1978
15944SOL    HW248905   1.842   8.034   4.112 -1.9960 -0.6081 -1.2863
15945SOL     OW48906   6.474   5.606   3.526  0.2057 -0.0199 -0.8851
15945SOL    HW148907   6.457   5.699   3.517 -0.7390  0.1794  2.0624
15945SOL    HW248908   6.390   5.569   3.554  1.4315 -1.1085  1.6042
15946SOL     OW48909   5.166   3.860   0.835  0.3633 -0.6325  0.3658
15946SOL    HW148910   5.151   3.933   0.895 -0.3869  0.0134 -0.5812
15946SOL    HW248911   5.197   3.901   0.755  1.2215 -1.4780  0.2451
15947SOL     OW48912   0.530   6.374   1.898 -0.0024 -0.5066  0.0753
15947SOL    HW148913   0.584   6.305   1.857  1.8182  1.3188 -0.8277
15947SOL    HW248914   0.540   6.449   1.839 -1.2382  0.7943  1.4507
15948SOL     OW48915   4.968   2.469   6.947 -0.1450 -0.4018 -0.5730
15948SOL    HW148916   4.892   2.411   6.946  0.6891 -1.5571  0.5310
15948SOL    HW248917   4.955   2.526   6.871 -1.0822 -1.8947 -1.5913
15949SOL     OW48918   0.135   1.582   0.129  0.3497  0.5740 -0.3317
15949SOL    HW148919   0.122   1.548   0.217 -0.7472  0.9188 -0.3513
15949SOL    HW248920   0.194   1.657   0.140  1.0659 -0.0237 -0.0333
15950SOL     OW48921   0.273   4.836   3.203  0.0643 -0.1785 -0.8018
15950SOL    HW148922   0.360   4.860   3.234 -0.0901 -0.4984 -0.0953
15950SOL    HW248923   0.235   4.918   3.173  1.3576 -0.3303 -3.1111
15951SOL     OW48924   0.603   3.574   6.969  1.0158 -0.4394  0.0773
15951SOL    HW148925   0.664   3.545   6.902  1.5546  0.2248  0.2746
15951SOL    HW248926   0.575   3.493   7.013 -0.0415 -0.9793 -1.5119
15952SOL     OW48927   3.466   4.516   3.583 -0.2715  0.2976 -0.2267
15952SOL    HW148928   3.518   4.582   3.629 -0.9928  0.2180  0.7311
15952SOL    HW248929   3.389   4.564   3.553  0.5017  0.5096 -1.9960
15953SOL     OW48930   7.382   1.140   5.347  0.1546 -0.2370 -0.9208
15953SOL    HW148931   7.406   1.224   5.308 -0.9536  1.6192  2.0194
15953SOL    HW248932   7.288   1.132   5.330  0.2426 -0.8426 -1.1194
15954SOL     OW48933   7.614   2.178   3.517 -0.5606  0.4016  0.1001
15954SOL    HW148934   7.610   2.246   3.584 -1.6539  0.4262  0.0253
15954SOL    HW248935   7.702   2.141   3.525 -0.7015  0.3316  1.6172
15955SOL     OW48936   5.805   4.078   6.675 -0.5245 -0.4150  0.5675
15955SOL    HW148937   5.816   4.003   6.734  1.1803  0.3026  1.2356
15955SOL    HW248938   5.711   4.093   6.672 -0.9524 -2.7079  0.2174
15956SOL     OW48939   3.410   4.436   4.402 -0.1578  0.0093 -0.1784
15956SOL    HW148940   3.468   4.452   4.328  0.0641 -0.0003 -0.0104
15956SOL    HW248941   3.335   4.494   4.388  0.1641  0.4462 -0.1026
15957SOL     OW48942   4.411   4.646   0.218  0.0245  0.0615 -0.7125
15957SOL    HW148943   4.364   4.720   0.258  0.5036 -0.4677  0.9295
15957SOL    HW248944   4.504   4.667   0.232  0.1568 -1.2992  0.7327
15958SOL     OW48945   5.219   0.046   1.866 -0.3761  0.2642 -0.3449
15958SOL    HW148946   5.304   0.006   1.882  0.7008  2.1801 -0.9342
15958SOL    HW248947   5.204   0.102   1.942 -2.0882 -1.4807  0.7085
15959SOL     OW48948   5.605   6.092   2.172 -0.3455 -0.1294 -0.9036
15959SOL    HW148949   5.588   6.021   2.110 -0.7149 -1.2746  0.4540
15959SOL    HW248950   5.566   6.169   2.131 -1.8220 -1.1322 -1.4772
15960SOL     OW48951   4.389   3.338   6.891  0.2557  0.0121 -0.0775
15960SOL    HW148952   4.360   3.424   6.860 -0.6965 -0.2494  0.0616
15960SOL    HW248953   4.463   3.316   6.834  0.2493  0.7399 -0.3774
15961SOL     OW48954   4.420   2.152   7.909  0.3439 -0.1475  0.0291
15961SOL    HW148955   4.459   2.067   7.890  0.6861  0.4055 -1.8876
15961SOL    HW248956   4.326   2.138   7.899  0.3161 -0.5441  0.7880
15962SOL     OW48957   2.891   0.463   3.606 -0.9864 -0.4891 -0.1317
15962SOL    HW148958   2.833   0.463   3.530 -0.2549  0.5170 -0.7173
15962SOL    HW248959   2.868   0.383   3.654 -3.0841  0.0518 -0.1437
15963SOL     OW48960   4.129   5.114   2.024 -0.1365 -0.0178  0.2322
15963SOL    HW148961   4.202   5.160   2.065 -0.5547  0.0895  0.8682
15963SOL    HW248962   4.169   5.057   1.959  0.3810  1.6570 -0.9943
15964SOL     OW48963   3.264   1.903   1.547  0.6155  0.4469 -0.1948
15964SOL    HW148964   3.263   1.996   1.527 -2.0607  1.1333  2.3600
15964SOL    HW248965   3.336   1.892   1.609  0.8280  0.8566 -0.3661
15965SOL     OW48966   3.583   5.188   1.045  0.6102  0.5827  0.2616
15965SOL    HW148967   3.661   5.151   1.002  0.5358 -0.4730  1.0003
15965SOL    HW248968   3.608   5.196   1.137 -1.2123 -3.1927  1.2996
15966SOL     OW48969   3.730   2.181   8.023 -0.0470  0.2343  0.7018
15966SOL    HW148970   3.794   2.110   8.020 -1.3756 -0.9793 -0.4969
15966SOL    HW248971   3.651   2.140   8.060 -1.7999  0.1500 -2.6870
15967SOL     OW48972   5.217   5.955   5.663  0.4553 -0.2354  0.4460
15967SOL    HW148973   5.267   5.875   5.642 -0.5234 -0.3676 -1.7235
15967SOL    HW248974   5.126   5.927   5.659  0.0807  1.0350 -0.8032
15968SOL     OW48975   3.349   3.600   1.198 -0.0475  0.1019 -0.1328
15968SOL    HW148976   3.298   3.637   1.126  0.8488  0.3307 -0.6796
15968SOL    HW248977   3.327   3.507   1.199 -1.1903  0.3626  0.2756
15969SOL     OW48978   5.379   6.895   8.095  0.0930 -0.4157 -0.0114
15969SOL    HW148979   5.343   6.935   8.174 -1.3562 -2.4608  0.4318
15969SOL    HW248980   5.425   6.817   8.125  1.1002 -0.2444 -1.0267
15970SOL     OW48981   7.211   1.515   1.784  0.4713 -0.3803 -0.8125
15970SOL    HW148982   7.152   1.560   1.724  0.3331 -1.3976 -1.4611
15970SOL    HW248983   7.287   1.491   1.730  0.5689 -0.8687 -0.4674
15971SOL     OW48984   8.091   7.548   4.978  0.0638  0.0222  0.0042
15971SOL    HW148985   8.182   7.559   5.008  0.2324  1.3211 -0.8920
15971SOL    HW248986   8.080   7.616   4.911 -0.8205 -1.6314 -1.6321
15972SOL     OW48987   3.079   1.844   5.513  0.2759 -0.6519  0.7561
15972SOL    HW148988   3.045   1.758   5.491 -1.5562  0.7998 -2.9188
15972SOL    HW248989   3.004   1.892   5.547  0.7113  0.1104  0.6747
15973SOL     OW48990   2.060   4.124   0.672 -0.1049 -0.8008 -0.1396
15973SOL    HW148991   2.087   4.065   0.742 -0.0799  0.5371  1.0363
15973SOL    HW248992   1.964   4.121   0.674 -0.1021 -0.9119 -0.1753
15974SOL     OW48993   4.503   7.602   0.740 -0.0209 -0.7480 -0.3401
15974SOL    HW148994   4.432   7.551   0.779 -0.8934 -0.4037 -1.3868
15974SOL    HW248995   4.498   7.687   0.784 -0.5150 -0.6070 -0.6510
15975SOL     OW48996   5.882   1.039   2.049 -0.9799 -0.2961  0.4319
15975SOL    HW148997   5.913   1.080   1.968  0.6760 -0.0410  1.1665
15975SOL    HW248998   5.958   0.993   2.084 -1.1093  1.0416  2.7334
15976SOL     OW48999   5.650   5.080   1.137  0.5128 -0.3018  0.5037
15976SOL    HW149000   5.618   4.991   1.121  1.1782 -0.5345  0.4274
15976SOL    HW249001   5.693   5.105   1.055 -0.6198  0.5242  0.1320
15977SOL     OW49002   5.903   3.239   7.354  0.1095 -0.2232  0.7807
15977SOL    HW149003   5.875   3.147   7.351  1.9930 -0.8392  0.6462
15977SOL    HW249004   5.908   3.259   7.448 -0.3231 -0.2398  0.8098
15978SOL     OW49005   5.831   3.491   2.728  0.3536  0.4588  0.0704
15978SOL    HW149006   5.834   3.584   2.703  1.7351 -0.0227 -1.7334
15978SOL    HW249007   5.882   3.446   2.660 -1.4393 -1.8123  0.1198
15979SOL     OW49008   0.217   7.088   3.465  0.1643  0.0554 -0.1433
15979SOL    HW149009   0.212   7.060   3.374 -1.3744  1.1446 -0.4278
15979SOL    HW249010   0.291   7.149   3.468  0.0007  0.2842 -0.7394
15980SOL     OW49011   5.418   3.643   7.759 -0.0856  0.5655  0.3396
15980SOL    HW149012   5.416   3.566   7.816  0.4460 -0.5867 -1.1311
15980SOL    HW249013   5.499   3.633   7.708 -0.3858  1.7126 -0.4030
15981SOL     OW49014   1.701   3.068   5.789  0.8079 -0.3759  0.1072
15981SOL    HW149015   1.672   3.069   5.698 -1.7921 -2.5318  0.7923
15981SOL    HW249016   1.690   3.158   5.818  0.8069  0.1523 -1.4261
15982SOL     OW49017   0.732   1.737   0.496  0.1690  1.1038  0.5259
15982SOL    HW149018   0.705   1.774   0.412 -0.1401 -0.4945 -0.1034
15982SOL    HW249019   0.825   1.756   0.502  0.4141  0.3443 -0.6684
15983SOL     OW49020   4.904   0.796   5.128 -0.0961 -0.0740  0.4776
15983SOL    HW149021   4.953   0.851   5.190 -1.3980  0.7497  0.8123
15983SOL    HW249022   4.949   0.808   5.045  0.0233  1.0110  0.6856
15984SOL     OW49023   7.268   3.054   3.498 -0.1806  0.5143 -0.2184
15984SOL    HW149024   7.229   3.072   3.413  0.9572  0.3588 -0.7859
15984SOL    HW249025   7.362   3.049   3.481 -0.0744 -1.4005  0.7033
15985SOL     OW49026   5.701   3.394   6.668  0.2175 -0.3702 -0.4062
15985SOL    HW149027   5.620   3.346   6.647  0.0696 -0.9495  1.3760
15985SOL    HW249028   5.767   3.326   6.676  0.1397 -0.2695  1.5327
15986SOL     OW49029   2.387   3.536   3.562 -0.7707  0.3208  0.7955
15986SOL    HW149030   2.405   3.491   3.644 -1.8185 -0.1104  0.7945
15986SOL    HW249031   2.359   3.467   3.502 -0.9565  0.7690  0.3577
15987SOL     OW49032   0.918   1.101   7.888 -0.0851 -0.7156  0.1020
15987SOL    HW149033   0.845   1.126   7.945  0.8935 -0.8375  1.4539
15987SOL    HW249034   0.897   1.012   7.860 -0.9536 -0.3754 -0.3679
15988SOL     OW49035   4.771   7.414   6.224 -0.6498  0.2150 -0.0781
15988SOL    HW149036   4.693   7.456   6.259  0.5058  1.1698  1.4699
15988SOL    HW249037   4.750   7.321   6.224 -2.1052  0.5063 -0.6076
15989SOL     OW49038   4.410   2.839   2.343 -0.2141  0.9370 -0.1126
15989SOL    HW149039   4.317   2.844   2.366 -0.0131  1.0276  0.7087
15989SOL    HW249040   4.455   2.884   2.414  0.5509 -0.0439  0.0443
15990SOL     OW49041   2.412   5.569   3.942  0.2542 -0.0661 -0.4475
15990SOL    HW149042   2.379   5.507   3.877  0.5241  0.1652 -0.8036
15990SOL    HW249043   2.470   5.627   3.893 -0.2919  0.7092 -0.1944
15991SOL     OW49044   3.197   3.591   7.899 -0.2313 -0.3089  0.1157
15991SOL    HW149045   3.249   3.601   7.819  0.3395 -1.3401  0.3392
15991SOL    HW249046   3.147   3.672   7.905  1.2978  0.6975 -0.1452
15992SOL     OW49047   0.746   3.509   3.383  0.0248 -0.2088  0.0215
15992SOL    HW149048   0.727   3.446   3.452  0.8270 -0.5679 -0.0738
15992SOL    HW249049   0.828   3.551   3.410 -0.3459  0.5947 -0.0612
15993SOL     OW49050   4.093   2.356   7.191 -0.7173 -0.2249 -0.2182
15993SOL    HW149051   4.064   2.436   7.147 -1.7012 -1.1912 -1.4176
15993SOL    HW249052   4.103   2.292   7.121  0.7816 -0.9689  0.6256
15994SOL     OW49053   7.489   4.551   4.177  0.1924 -0.0086  0.7450
15994SOL    HW149054   7.481   4.459   4.201  1.3222  0.1238  1.6894
15994SOL    HW249055   7.578   4.574   4.201  0.0603  1.2269  0.1095
15995SOL     OW49056   2.170   3.860   1.414  0.1751  0.0943 -0.1912
15995SOL    HW149057   2.208   3.947   1.427  0.1356  0.3790 -1.7770
15995SOL    HW249058   2.116   3.869   1.336  1.0486 -1.6380 -1.0358
15996SOL     OW49059   2.080   5.644   5.056  0.3533  0.0069  0.5984
15996SOL    HW149060   2.014   5.579   5.081 -0.0255  0.9904  2.2890
15996SOL    HW249061   2.073   5.650   4.961 -0.9339 -1.0153  0.5989
15997SOL     OW49062   1.570   7.852   6.700 -0.1923 -0.3941 -0.2399
15997SOL    HW149063   1.500   7.834   6.762  0.2783 -0.6348  0.2301
15997SOL    HW249064   1.594   7.766   6.665 -2.2976 -0.0525 -2.8290
15998SOL     OW49065   6.369   3.471   1.864  0.1871 -0.6185 -0.3733
15998SOL    HW149066   6.316   3.528   1.919 -2.2176 -1.8092 -1.2819
15998SOL    HW249067   6.351   3.499   1.775  2.6114  0.1164 -0.7088
15999SOL     OW49068   1.074   3.026   1.208 -0.3854 -0.0830 -0.3268
15999SOL    HW149069   1.045   2.958   1.147  0.3900 -1.6276  0.9374
15999SOL    HW249070   1.000   3.039   1.266 -0.4833  0.0529 -0.4810
16000SOL     OW49071   0.517   4.948   3.306  0.0270  0.4130  0.0186
16000SOL    HW149072   0.560   5.012   3.363  0.5537  0.2585 -0.1938
16000SOL    HW249073   0.587   4.887   3.281 -0.2574  0.3058 -0.5446
16001SOL     OW49074   8.149   2.849   6.620  0.0141  0.1635 -0.1445
16001SOL    HW149075   8.178   2.869   6.531  0.8343  1.3580  0.3548
16001SOL    HW249076   8.141   2.935   6.662 -1.8405 -0.2749  0.5126
16002SOL     OW49077   7.949   6.318   1.375  0.5610 -0.2919  0.1258
16002SOL    HW149078   7.918   6.404   1.401 -1.3351 -0.3886 -1.5622
16002SOL    HW249079   7.935   6.263   1.453  0.0213  0.5160  0.6151
16003SOL     OW49080   2.572   7.607   1.236 -0.1560 -0.5453 -0.2588
16003SOL    HW149081   2.588   7.673   1.304 -0.6609  0.2994 -0.9375
16003SOL    HW249082   2.633   7.537   1.256  1.1727  0.6083 -0.1468
16004SOL     OW49083   3.463   5.045   7.646  0.3441 -0.3177 -0.2268
16004SOL    HW149084   3.377   5.023   7.611  0.0100  0.2512  0.2063
16004SOL    HW249085   3.524   5.024   7.576 -0.1151 -1.0383 -0.4177
16005SOL     OW49086   4.010   4.110   6.263  0.8226 -0.3369  0.3058
16005SOL    HW149087   4.064   4.034   6.285  2.4755 -0.3067 -3.0655
16005SOL    HW249088   4.059   4.156   6.195 -1.4944  2.1655  0.1472
16006SOL     OW49089   7.458   1.457   1.166 -0.7098  0.1408  0.9304
16006SOL    HW149090   7.410   1.449   1.249  0.2989 -1.8241  1.4039
16006SOL    HW249091   7.546   1.427   1.187 -0.4513 -0.4802 -0.8533
16007SOL     OW49092   6.542   4.895   6.935  0.4382 -0.3075  0.3944
16007SOL    HW149093   6.479   4.912   6.865 -0.4386 -0.1884  1.1989
16007SOL    HW249094   6.529   4.967   6.997 -0.3799 -1.6030  1.7885
16008SOL     OW49095   5.051   6.836   5.632 -0.6163  0.0459 -0.5896
16008SOL    HW149096   5.134   6.840   5.584 -0.0728  0.6068  0.3619
16008SOL    HW249097   5.050   6.915   5.686 -0.5385 -1.1899  1.3347
16009SOL     OW49098   3.641   1.442   1.535  0.5772 -0.2869 -0.1488
16009SOL    HW149099   3.664   1.352   1.558  0.3964 -0.7077 -1.5226
16009SOL    HW249100   3.723   1.483   1.508  0.6950  0.0354  0.6723
16010SOL     OW49101   4.934   4.715   7.267  0.2770 -0.6452 -0.1430
16010SOL    HW149102   4.848   4.729   7.229  0.7834  2.4729 -0.3742
16010SOL    HW249103   4.958   4.626   7.241 -2.5338 -1.3365 -0.6479
16011SOL     OW49104   2.024   1.331   7.440 -0.4890  0.4428 -0.7863
16011SOL    HW149105   2.002   1.415   7.480 -2.2615 -0.0431 -0.6361
16011SOL    HW249106   2.032   1.271   7.514  0.2236  0.3648 -0.9246
16012SOL     OW49107   0.708   1.435   0.508  0.2025  0.1731  0.3495
16012SOL    HW149108   0.620   1.410   0.534  0.4552  0.0888  1.1765
16012SOL    HW249109   0.700   1.525   0.475 -0.4372 -0.3868 -1.0795
16013SOL     OW49110   0.310   3.864   0.686 -0.6815 -1.2896 -0.0623
16013SOL    HW149111   0.314   3.775   0.652 -2.4342 -0.8625 -1.6000
16013SOL    HW249112   0.218   3.875   0.712 -0.2355 -0.2960  1.1980
16014SOL     OW49113   3.183   0.780   7.295 -0.5071 -0.1754 -0.0269
16014SOL    HW149114   3.141   0.843   7.236  2.4571  1.1963 -0.8679
16014SOL    HW249115   3.154   0.806   7.382 -2.5856 -0.3279 -0.6219
16015SOL     OW49116   7.996   4.283   7.911  0.4922 -0.4137 -0.3622
16015SOL    HW149117   8.068   4.225   7.887 -0.4168 -1.4900 -0.6426
16015SOL    HW249118   8.032   4.343   7.976  1.3418 -1.6999  0.4016
16016SOL     OW49119   4.147   1.375   4.166  0.3658 -0.2523 -0.0792
16016SOL    HW149120   4.103   1.402   4.247  0.7635  1.2715 -0.3445
16016SOL    HW249121   4.080   1.325   4.118 -0.9599  1.6043 -0.2577
16017SOL     OW49122   2.012   3.219   7.570 -0.6469  0.2849  0.7274
16017SOL    HW149123   2.006   3.285   7.639 -1.5912 -0.6542  1.5525
16017SOL    HW249124   1.969   3.142   7.605 -3.2226  0.4533 -1.7418
16018SOL     OW49125   4.962   5.068   1.880 -0.3005  0.1359 -0.3260
16018SOL    HW149126   4.991   5.084   1.790 -0.4257 -0.4579 -0.4743
16018SOL    HW249127   4.872   5.037   1.871  0.1226 -1.2397 -0.1048
16019SOL     OW49128   7.511   4.108   4.784 -0.3013  0.5903 -0.4295
16019SOL    HW149129   7.557   4.137   4.862  0.1053  0.1321 -0.4938
16019SOL    HW249130   7.421   4.140   4.795 -0.1966  0.6974  0.1272
16020SOL     OW49131   4.723   3.293   5.179  0.3254  0.0035  0.3003
16020SOL    HW149132   4.640   3.267   5.220 -0.1965  0.3802 -0.4757
16020SOL    HW249133   4.785   3.297   5.251 -0.9185  2.2148  1.3583
16021SOL     OW49134   3.852   0.076   4.078 -0.1587  0.3799  0.3641
16021SOL    HW149135   3.777   0.104   4.027  0.7104  0.3211 -1.0009
16021SOL    HW249136   3.928   0.100   4.025  0.7239 -1.4935  0.6716
16022SOL     OW49137   2.403   1.052   3.730  0.1421  0.1721  0.1853
16022SOL    HW149138   2.437   1.134   3.766 -0.2651 -0.0152  1.0504
16022SOL    HW249139   2.307   1.062   3.736 -0.0596  0.9691 -2.8073
16023SOL     OW49140   2.308   6.512   5.872  0.7127  0.5806 -0.6698
16023SOL    HW149141   2.233   6.452   5.877 -1.4437  3.1141 -0.2664
16023SOL    HW249142   2.370   6.469   5.813 -0.3326 -2.3531  0.2076
16024SOL     OW49143   0.770   6.531   3.638  0.4720  0.2171 -0.1197
16024SOL    HW149144   0.766   6.443   3.602 -1.9334  0.8951 -1.6998
16024SOL    HW249145   0.752   6.520   3.732  1.8314 -1.0791  0.0207
16025SOL     OW49146   3.221   3.968   4.215 -0.4246 -0.0293 -0.2360
16025SOL    HW149147   3.203   4.048   4.168 -0.1134  0.5013  0.5170
16025SOL    HW249148   3.186   3.983   4.303 -0.9929 -0.9899 -0.2759
16026SOL     OW49149   6.485   8.138   0.776 -0.4990 -0.2732  0.5654
16026SOL    HW149150   6.522   8.062   0.822 -0.1694  0.6587  1.8913
16026SOL    HW249151   6.483   8.207   0.841 -0.8292  0.8698 -0.6108
16027SOL     OW49152   6.551   2.738   4.234 -0.0233 -0.1331 -0.5276
16027SOL    HW149153   6.571   2.822   4.276  1.0994  0.2464 -1.7569
16027SOL    HW249154   6.627   2.683   4.252  0.4545  0.0133 -1.9503
16028SOL     OW49155   3.829   3.311   7.223 -0.5152 -0.6935 -0.5876
16028SOL    HW149156   3.854   3.365   7.298  1.9147 -1.2698 -0.8865
16028SOL    HW249157   3.764   3.363   7.177  1.8232  2.1790 -0.9864
16029SOL     OW49158   4.681   7.261   7.826  0.1741  0.5810  0.0896
16029SOL    HW149159   4.597   7.306   7.829 -0.3196 -0.3207 -0.0780
16029SOL    HW249160   4.681   7.202   7.901  0.3870  0.1109 -0.2742
16030SOL     OW49161   2.299   5.369   5.308 -0.2838  0.3970 -0.0535
16030SOL    HW149162   2.232   5.436   5.292 -2.7304 -1.8599 -0.0022
16030SOL    HW249163   2.264   5.317   5.380  2.5605  0.2465  1.3763
16031SOL     OW49164   4.234   4.042   3.613  0.1135  0.6259  0.2602
16031SOL    HW149165   4.259   4.103   3.544  1.2955  0.7421  0.7775
16031SOL    HW249166   4.180   4.095   3.673  2.0644  1.5352  1.3145
16032SOL     OW49167   7.952   2.829   2.423 -0.3532 -0.2968 -0.0341
16032SOL    HW149168   7.858   2.817   2.434 -0.7420  1.7161 -0.5881
16032SOL    HW249169   7.969   2.916   2.461  1.6663 -1.4246  1.8507
16033SOL     OW49170   7.695   1.116   0.636 -0.2373  0.4521 -0.0356
16033SOL    HW149171   7.606   1.131   0.668 -0.4794  0.3113 -0.6312
16033SOL    HW249172   7.749   1.116   0.715 -0.7658  0.5226  0.3326
16034SOL     OW49173   8.041   4.616   7.792 -0.1551 -0.4180  0.0203
16034SOL    HW149174   8.097   4.681   7.835 -2.0136  2.1237 -1.0762
16034SOL    HW249175   8.008   4.561   7.863  2.0185 -0.6565  0.9204
16035SOL     OW49176   2.487   3.767   4.672 -0.0741 -0.8816  0.0643
16035SOL    HW149177   2.456   3.678   4.657 -0.7783 -0.3726 -1.7485
16035SOL    HW249178   2.486   3.778   4.767 -1.9924 -2.1049  0.2312
16036SOL     OW49179   6.822   0.295   0.282  0.1500 -0.6354 -0.2650
16036SOL    HW149180   6.797   0.336   0.199  1.4665 -2.0158 -1.4238
16036SOL    HW249181   6.899   0.344   0.311 -0.8211  0.4066  0.6489
16037SOL     OW49182   5.891   3.202   3.345 -0.0116  0.4027 -0.4148
16037SOL    HW149183   5.954   3.151   3.396 -1.1394 -0.6062  0.0078
16037SOL    HW249184   5.842   3.252   3.410 -0.0149  0.7733 -0.6965
16038SOL     OW49185   6.089   0.394   1.698  0.0289 -0.1133 -0.3515
16038SOL    HW149186   6.041   0.466   1.739  1.2742  0.4033  0.2732
16038SOL    HW249187   6.081   0.410   1.604 -1.3098 -0.2620 -0.2853
16039SOL     OW49188   7.159   6.998   1.511  0.0568  0.3056  0.6416
16039SOL    HW149189   7.105   7.004   1.590  2.5045  1.6170  2.3914
16039SOL    HW249190   7.173   7.089   1.485  0.8151 -0.0259 -0.1553
16040SOL     OW49191   3.886   0.578   2.542  0.0181  0.3402  0.3382
16040SOL    HW149192   3.947   0.640   2.503 -0.7236 -0.1633 -1.7648
16040SOL    HW249193   3.929   0.493   2.532  0.7010  0.3814  2.5250
16041SOL     OW49194   4.309   6.985   5.842  0.1589  0.5470  0.5025
16041SOL    HW149195   4.272   6.899   5.822  0.5130  0.6423 -0.6252
16041SOL    HW249196   4.334   7.021   5.757  0.4570  1.5680  1.0058
16042SOL     OW49197   7.119   4.762   6.396 -0.6675 -0.0127  0.2147
16042SOL    HW149198   7.068   4.720   6.327 -0.5331  0.8152 -0.4129
16042SOL    HW249199   7.209   4.763   6.362 -0.2007 -1.4327  1.2940
16043SOL     OW49200   4.016   7.564   0.911  0.3839  0.3882 -0.1809
16043SOL    HW149201   4.108   7.589   0.906  0.6581 -0.2983  0.9316
16043SOL    HW249202   3.984   7.605   0.992 -0.1024  0.0868 -0.2111
16044SOL     OW49203   4.259   6.549   7.564 -0.1685  0.7213 -0.2923
16044SOL    HW149204   4.216   6.485   7.508  0.9137  0.1219 -0.4643
16044SOL    HW249205   4.222   6.533   7.651  2.4623 -2.5823  0.4638
16045SOL     OW49206   6.043   2.157   6.046  0.1457  0.5642  0.2886
16045SOL    HW149207   6.006   2.184   6.130  0.8574  0.4000  0.6642
16045SOL    HW249208   6.066   2.239   6.002 -1.2204  0.6935 -0.2193
16046SOL     OW49209   5.245   6.354   0.331  0.3281 -0.2289 -0.5459
16046SOL    HW149210   5.241   6.450   0.336 -0.3868 -0.2815 -0.0712
16046SOL    HW249211   5.154   6.326   0.336  0.6377 -1.0159  0.9963
16047SOL     OW49212   1.790   5.254   2.950 -0.1090  0.2713 -0.1395
16047SOL    HW149213   1.856   5.288   3.010 -1.4081  1.3869  0.7066
16047SOL    HW249214   1.835   5.184   2.903  1.4521  0.5077  0.9152
16048SOL     OW49215   1.988   6.971   0.877 -0.1588 -0.0902  0.2292
16048SOL    HW149216   1.938   6.892   0.900 -0.0962  0.0984  1.0367
16048SOL    HW249217   1.968   6.985   0.784 -2.4002  0.5450  0.7520
16049SOL     OW49218   1.426   4.952   6.389 -0.0726  0.0663 -0.4030
16049SOL    HW149219   1.440   4.879   6.329  1.2542 -0.4133  0.4434
16049SOL    HW249220   1.398   4.911   6.471  1.4741  0.3858  0.3296
16050SOL     OW49221   3.272   0.175   6.869  0.4899  0.7140 -0.3227
16050SOL    HW149222   3.233   0.121   6.800 -0.3339  0.4712  0.3138
16050SOL    HW249223   3.248   0.265   6.846  1.9515  0.8425 -1.4419
16051SOL     OW49224   7.480   2.495   4.667 -0.0026 -0.0238  0.4955
16051SOL    HW149225   7.431   2.452   4.737 -2.2834 -0.9418 -1.5136
16051SOL    HW249226   7.427   2.571   4.645  0.8319  0.4108 -0.0420
16052SOL     OW49227   7.139   1.076   6.776  0.2242  0.2068 -0.4928
16052SOL    HW149228   7.163   1.030   6.696 -1.1000  1.2069 -1.5117
16052SOL    HW249229   7.097   1.157   6.746 -1.4246  0.0423  1.1756
16053SOL     OW49230   4.589   5.168   8.152  0.2479 -0.1170  0.1288
16053SOL    HW149231   4.509   5.211   8.121  0.5498 -1.7378 -3.3673
16053SOL    HW249232   4.585   5.176   8.248 -2.4658  2.5931 -0.0619
16054SOL     OW49233   2.413   5.000   6.624 -0.2120  0.0463  0.2833
16054SOL    HW149234   2.431   4.959   6.539  1.0757 -0.7768  0.9203
16054SOL    HW249235   2.431   5.093   6.610  0.6879 -0.1886 -0.1648
16055SOL     OW49236   7.849   1.934   0.007  0.0475  0.5999 -0.1285
16055SOL    HW149237   7.876   1.842   0.000 -1.6846 -0.2714  2.8996
16055SOL    HW249238   7.757   1.934  -0.019 -0.2384  1.2455  0.8228
16056SOL     OW49239   6.496   3.807   5.899 -0.2026  0.5000  0.0351
16056SOL    HW149240   6.511   3.718   5.868  1.9432  0.8766 -0.1453
16056SOL    HW249241   6.458   3.795   5.986  0.6691 -0.5999  0.2896
16057SOL     OW49242   3.454   4.960   1.054 -0.1016  0.2434 -0.0360
16057SOL    HW149243   3.494   5.045   1.035  0.9914 -0.4554 -0.9879
16057SOL    HW249244   3.409   4.937   0.973  1.8485 -1.2714 -0.7661
16058SOL     OW49245   4.749   1.828   7.589  0.3840 -0.1726  0.4209
16058SOL    HW149246   4.814   1.837   7.520 -0.3469  0.3019 -0.2297
16058SOL    HW249247   4.785   1.763   7.649  0.6572 -1.2379 -0.8638
16059SOL     OW49248   0.546   8.101   1.286 -0.1710  0.5856 -0.2071
16059SOL    HW149249   0.544   8.158   1.209  1.4804  0.7662 -0.1502
16059SOL    HW249250   0.545   8.160   1.361  0.9815  0.5511 -0.1431
16060SOL     OW49251   3.864   6.959   4.933  0.1705  0.0989  1.0991
16060SOL    HW149252   3.860   6.864   4.919 -0.4770  0.2793 -0.1479
16060SOL    HW249253   3.951   6.984   4.904  0.2206 -0.0708  1.1002
16061SOL     OW49254   4.555   3.423   5.413  0.2411 -0.0603  0.6690
16061SOL    HW149255   4.587   3.512   5.432  0.3611 -0.6795  3.9318
16061SOL    HW249256   4.461   3.428   5.428 -0.2114  0.0241 -1.7275
16062SOL     OW49257   4.445   1.396   5.312 -0.2054  0.0076  0.1576
16062SOL    HW149258   4.404   1.337   5.248 -0.1136 -1.0946  1.0948
16062SOL    HW249259   4.436   1.483   5.273 -0.1049 -0.6398 -1.3798
16063SOL     OW49260   6.608   0.642   2.131  0.2760 -0.4358 -0.6170
16063SOL    HW149261   6.514   0.655   2.123  0.1918 -1.4769 -1.5594
16063SOL    HW249262   6.646   0.693   2.060  0.4082 -0.2189 -0.3920
16064SOL     OW49263   6.832   2.397   4.540  0.2164 -0.0500  0.4300
16064SOL    HW149264   6.900   2.334   4.560  0.7274 -0.9328 -3.3298
16064SOL    HW249265   6.765   2.383   4.608  1.8341 -2.1738  1.6945
16065SOL     OW49266   5.340   2.028   2.889  1.1683 -0.5704 -0.1572
16065SOL    HW149267   5.267   2.007   2.948  1.9790 -0.1957  1.0155
16065SOL    HW249268   5.402   2.076   2.944  1.0689  1.5954 -1.7937
16066SOL     OW49269   7.460   1.107   4.847 -0.0393 -0.1245 -0.0378
16066SOL    HW149270   7.523   1.068   4.907 -1.0780  0.1241  1.2621
16066SOL    HW249271   7.499   1.095   4.760  1.6184 -0.2680  0.6891
16067SOL     OW49272   6.415   6.240   6.964  0.2971  0.0693  0.0589
16067SOL    HW149273   6.446   6.251   7.054 -0.8091  2.5793  0.2342
16067SOL    HW249274   6.494   6.244   6.911  0.9005 -0.7544  0.8613
16068SOL     OW49275   7.524   6.274   2.511 -0.1501  0.0952  0.2419
16068SOL    HW149276   7.531   6.198   2.453 -0.6423  0.2178  0.0157
16068SOL    HW249277   7.609   6.278   2.555  1.6943  2.1078 -3.0866
16069SOL     OW49278   6.631   1.069   2.813 -0.1877  0.5158  0.1856
16069SOL    HW149279   6.561   1.028   2.762 -2.3177  0.3646  3.0027
16069SOL    HW249280   6.666   0.998   2.867 -1.0275  1.4578  2.0609
16070SOL     OW49281   3.674   0.381   1.830 -0.1077  0.3609 -0.0880
16070SOL    HW149282   3.764   0.375   1.797 -0.2398  2.3233 -0.9411
16070SOL    HW249283   3.620   0.393   1.752 -1.3319 -2.1412  0.2830
16071SOL     OW49284   6.081   3.340   2.313  0.2533  0.4494  0.1509
16071SOL    HW149285   6.050   3.409   2.255  2.7229  1.4812 -0.0625
16071SOL    HW249286   6.172   3.326   2.288  0.6103 -1.0072  1.9965
16072SOL     OW49287   1.792   4.065   1.155 -0.1161 -0.4233  0.4430
16072SOL    HW149288   1.810   4.147   1.109  0.9040 -0.5411  0.6181
16072SOL    HW249289   1.740   4.091   1.231  1.8636  0.3487  1.6035
16073SOL     OW49290   2.754   0.109   0.470 -0.2954 -0.0165 -0.0061
16073SOL    HW149291   2.846   0.097   0.448 -0.0244 -0.8652  1.4645
16073SOL    HW249292   2.750   0.195   0.511  0.1791 -0.6278  1.4085
16074SOL     OW49293   0.800   2.103   3.277 -1.1001 -0.1033  0.2962
16074SOL    HW149294   0.863   2.170   3.305 -0.9712  0.4784 -1.3064
16074SOL    HW249295   0.716   2.150   3.273 -0.4172  1.1952 -4.6491
16075SOL     OW49296   5.766   2.506   1.220 -0.0309 -0.7294  0.9337
16075SOL    HW149297   5.830   2.451   1.176 -2.6560 -3.0978 -0.2733
16075SOL    HW249298   5.701   2.444   1.255 -2.1185  1.5004  1.3038
16076SOL     OW49299   1.057   3.058   6.663  0.4549 -0.3246  0.3317
16076SOL    HW149300   1.013   3.141   6.681  2.2430  0.7004  0.1965
16076SOL    HW249301   1.013   3.025   6.584  0.9195  1.4548 -0.7403
16077SOL     OW49302   5.551   8.089   6.111  0.0067  0.2673 -0.6727
16077SOL    HW149303   5.594   8.173   6.125  0.4173  0.3895 -2.4215
16077SOL    HW249304   5.464   8.112   6.079 -2.0869  0.0576  4.1184
16078SOL     OW49305   2.573   1.508   2.530 -0.0332 -0.5831 -0.5713
16078SOL    HW149306   2.583   1.429   2.584  1.0336  0.5358  0.9351
16078SOL    HW249307   2.649   1.508   2.472  0.4784 -0.1883  0.0870
16079SOL     OW49308   7.748   3.238   8.027 -0.5046 -0.4786  0.5440
16079SOL    HW149309   7.725   3.310   7.969 -0.6577  0.2179  1.4408
16079SOL    HW249310   7.664   3.199   8.051 -0.3950 -1.3221 -0.3615
16080SOL     OW49311   7.496   5.992   7.097 -0.1320  0.1746 -0.0181
16080SOL    HW149312   7.480   5.930   7.026 -0.8310 -1.6761  1.6656
16080SOL    HW249313   7.466   6.076   7.062 -1.6743 -0.9079 -1.4785
16081SOL     OW49314   6.033   3.989   7.941  0.1631  0.4025 -0.1998
16081SOL    HW149315   6.044   4.047   8.016  1.3946  1.3893 -1.1045
16081SOL    HW249316   5.975   4.037   7.881  0.4948  0.3284 -0.5843
16082SOL     OW49317   4.843   1.169   5.185 -0.2732 -0.1949 -0.5840
16082SOL    HW149318   4.751   1.162   5.209 -0.0466 -0.8553  0.1442
16082SOL    HW249319   4.863   1.087   5.140  0.1657 -0.4248  0.0166
16083SOL     OW49320   2.632   2.779   4.923 -0.1390  0.3409  0.3400
16083SOL    HW149321   2.692   2.731   4.866 -1.2886  0.1800 -0.7800
16083SOL    HW249322   2.545   2.746   4.900 -0.8807  2.2618  0.1923
16084SOL     OW49323   3.311   8.135   0.352  0.4172  0.0496 -0.0529
16084SOL    HW149324   3.370   8.148   0.426 -3.0346 -0.0054  3.0190
16084SOL    HW249325   3.269   8.050   0.370 -1.1021  0.4114 -1.6431
16085SOL     OW49326   3.231   1.832   0.367  0.0346  0.1592  0.0805
16085SOL    HW149327   3.241   1.863   0.458  0.7465  2.4789 -0.7171
16085SOL    HW249328   3.138   1.814   0.358 -0.2128  0.8980  0.9843
16086SOL     OW49329   8.134   3.754   0.289  0.3092 -0.6823  0.1205
16086SOL    HW149330   8.057   3.727   0.338  0.4757 -2.6711 -0.6133
16086SOL    HW249331   8.135   3.850   0.296 -2.0963 -0.6117  0.3032
16087SOL     OW49332   1.243   7.533   1.651  0.1634 -0.3675  0.3269
16087SOL    HW149333   1.219   7.500   1.565  2.6765 -1.0148 -0.1998
16087SOL    HW249334   1.240   7.628   1.642  0.8706 -0.4288 -0.6248
16088SOL     OW49335   1.296   7.968   2.161 -0.2125  0.4767  0.3139
16088SOL    HW149336   1.368   7.921   2.204 -0.0247 -1.1230 -1.6040
16088SOL    HW249337   1.217   7.935   2.205  0.0035 -0.6853 -0.1199
16089SOL     OW49338   6.895   3.157   7.719 -0.5095 -0.6153 -0.1572
16089SOL    HW149339   6.888   3.251   7.704 -0.1094 -0.5340  0.1518
16089SOL    HW249340   6.988   3.137   7.705 -0.6170 -0.9914 -0.3660
16090SOL     OW49341   7.401   0.343   4.406  0.1452 -0.3076  0.2748
16090SOL    HW149342   7.333   0.396   4.447 -0.2395  0.2228 -1.0106
16090SOL    HW249343   7.433   0.396   4.333  1.7596 -0.6611  0.6761
16091SOL     OW49344   3.047   2.567   7.455  0.6100 -0.0395 -0.4395
16091SOL    HW149345   2.981   2.505   7.486  0.7722  0.3815  0.7679
16091SOL    HW249346   3.123   2.550   7.510  0.0618  2.5210  1.2501
16092SOL     OW49347   1.063   1.949   6.128  0.0317  0.0974  0.6459
16092SOL    HW149348   1.054   2.014   6.198 -3.0723 -1.8125  2.2877
16092SOL    HW249349   0.988   1.966   6.071  0.9662 -0.1263 -0.6912
16093SOL     OW49350   0.301   7.287   6.165  0.5173 -0.0597  0.3830
16093SOL    HW149351   0.273   7.200   6.193 -0.7049  0.8245  2.0582
16093SOL    HW249352   0.238   7.311   6.097  1.4126 -0.8114 -0.7574
16094SOL     OW49353   7.676   1.797   0.695 -0.2194  0.2745 -0.2600
16094SOL    HW149354   7.593   1.777   0.737 -0.4852  0.5072 -0.6678
16094SOL    HW249355   7.679   1.893   0.692 -0.2304  0.2589 -0.8152
16095SOL     OW49356   3.127   2.676   3.129 -0.0646  0.2649  0.4695
16095SOL    HW149357   3.164   2.752   3.174 -0.8447  0.6183  0.5269
16095SOL    HW249358   3.069   2.636   3.193  0.3386 -0.3804  0.4354
16096SOL     OW49359   1.147   5.222   0.060 -0.4773  0.3731  0.1745
16096SOL    HW149360   1.192   5.300   0.027 -1.5090 -0.1312 -2.7569
16096SOL    HW249361   1.212   5.152   0.054 -0.0560  0.6681  1.1916
16097SOL     OW49362   2.740   7.407   1.281  0.1347 -0.0216 -0.2489
16097SOL    HW149363   2.769   7.349   1.351  1.7519  0.6628 -0.3118
16097SOL    HW249364   2.811   7.403   1.216 -0.4178  0.8924 -0.9312
16098SOL     OW49365   1.707   0.105   2.638  0.1312  0.0545 -0.1479
16098SOL    HW149366   1.712   0.053   2.558  2.0261  0.2110 -0.1695
16098SOL    HW249367   1.798   0.118   2.664 -0.4270  0.4820  1.7356
16099SOL     OW49368   4.855   5.118   6.504  0.5188  0.0396  0.1075
16099SOL    HW149369   4.799   5.182   6.458  0.8768  0.9703  0.9307
16099SOL    HW249370   4.793   5.053   6.538  0.1050  0.1524 -0.4062
16100SOL     OW49371   6.844   5.700   3.456 -0.2406  0.3727  0.6420
16100SOL    HW149372   6.786   5.774   3.471 -1.4954 -0.4094 -0.1841
16100SOL    HW249373   6.837   5.647   3.535 -1.0141  0.0597  0.3731
16101SOL     OW49374   2.189   3.707   5.111 -0.6418 -0.2095 -0.1087
16101SOL    HW149375   2.180   3.635   5.049 -1.7875 -1.0955  1.0345
16101SOL    HW249376   2.244   3.672   5.181  0.5015  0.7232 -0.5021
16102SOL     OW49377   2.285   3.843   4.124  0.3429 -0.0337  0.3006
16102SOL    HW149378   2.293   3.904   4.197  0.4279  0.7640 -0.3610
16102SOL    HW249379   2.191   3.836   4.109  0.3563  0.4921 -0.0685
16103SOL     OW49380   7.170   5.410   4.719 -0.1631  0.1116 -0.2137
16103SOL    HW149381   7.224   5.462   4.780 -1.0166  0.6843  0.0745
16103SOL    HW249382   7.189   5.319   4.742  0.0306  0.3159  0.4576
16104SOL     OW49383   6.191   1.336   0.003  0.3598  0.4080 -0.1312
16104SOL    HW149384   6.100   1.316  -0.020 -0.0513 -0.7204  2.1439
16104SOL    HW249385   6.188   1.426   0.035 -0.2606 -0.0462  1.1622
16105SOL     OW49386   4.542   1.021   5.473 -0.1419 -0.0873  0.0757
16105SOL    HW149387   4.551   0.934   5.436 -0.5192 -0.2695  0.3993
16105SOL    HW249388   4.450   1.044   5.457  0.2325  0.7477 -1.0730
16106SOL     OW49389   6.277   7.754   6.260  0.1421 -0.9787  0.7123
16106SOL    HW149390   6.200   7.700   6.240  1.2131 -3.1738  2.1050
16106SOL    HW249391   6.311   7.717   6.341  1.8152  0.9289  0.9457
16107SOL     OW49392   7.001   4.493   0.630  0.2071 -0.4002 -0.1603
16107SOL    HW149393   7.075   4.449   0.587  1.2298  0.3821  0.7381
16107SOL    HW249394   6.958   4.423   0.680  1.4716 -0.5463  0.7911
16108SOL     OW49395   8.063   3.465   6.903 -0.7423  0.1349  0.6323
16108SOL    HW149396   8.130   3.473   6.971  1.6472  0.9213 -1.6990
16108SOL    HW249397   8.072   3.376   6.870  1.1309  1.0495 -1.5267
16109SOL     OW49398   7.231   0.721   2.330 -0.4226  0.2350 -0.5600
16109SOL    HW149399   7.286   0.694   2.257 -0.2769  1.0289 -0.7486
16109SOL    HW249400   7.230   0.645   2.388  1.0763  0.2686 -0.4302
16110SOL     OW49401   6.841   0.981   6.900 -0.0190 -0.1572  0.5774
16110SOL    HW149402   6.881   0.972   6.814  2.0585  2.1803  1.1524
16110SOL    HW249403   6.846   0.894   6.939 -0.0256 -1.0132 -1.2602
16111SOL     OW49404   1.712   4.862   5.631 -0.4069 -0.4678 -0.9728
16111SOL    HW149405   1.668   4.890   5.550 -0.5680  0.2624 -0.6419
16111SOL    HW249406   1.718   4.942   5.683 -0.1204 -0.8946 -0.3462
16112SOL     OW49407   3.585   0.020   8.112  0.1869 -0.0438 -0.1456
16112SOL    HW149408   3.512  -0.041   8.114  0.8576 -0.8652 -0.0145
16112SOL    HW249409   3.611   0.024   8.020 -0.0117  0.2480 -0.1924
16113SOL     OW49410   3.336   4.066   0.072  0.1142 -0.9084  0.2110
16113SOL    HW149411   3.322   4.018   0.154  2.1750 -3.1335 -0.5881
16113SOL    HW249412   3.352   3.997   0.007 -0.6903  0.8073 -1.9261
16114SOL     OW49413   6.264   5.158   4.641  0.8062 -0.2438  0.3466
16114SOL    HW149414   6.310   5.078   4.616 -0.2794 -0.9101  0.4712
16114SOL    HW249415   6.285   5.170   4.733  1.1052 -0.2831  0.2847
16115SOL     OW49416   2.046   7.266   2.459 -0.2835  0.2682 -0.3137
16115SOL    HW149417   2.063   7.267   2.365  0.7742  0.4024 -0.1312
16115SOL    HW249418   2.132   7.257   2.499 -0.8353 -1.2148  0.6115
16116SOL     OW49419   2.612   2.046   3.976  0.2170 -0.0119  0.4221
16116SOL    HW149420   2.641   2.060   3.886  1.2530 -1.1141  0.5531
16116SOL    HW249421   2.586   1.954   3.979  1.2188 -0.2857  1.4877
16117SOL     OW49422   3.366   2.700   0.734 -0.1461 -0.3555  0.1616
16117SOL    HW149423   3.377   2.795   0.721  1.1637 -0.1949  2.0957
16117SOL    HW249424   3.407   2.661   0.656 -0.5180  0.6392 -0.5612
16118SOL     OW49425   1.784   4.303   4.888  0.7778  0.0508  0.5278
16118SOL    HW149426   1.766   4.392   4.857  0.5813 -0.0783  0.2631
16118SOL    HW249427   1.861   4.275   4.838 -0.3620 -0.6813 -0.9301
16119SOL     OW49428   2.367   7.979   7.118  0.3166 -0.1782  0.2663
16119SOL    HW149429   2.352   7.893   7.157 -1.8776 -0.3545 -0.7831
16119SOL    HW249430   2.428   8.023   7.178  1.2368 -2.3212  0.9861
16120SOL     OW49431   7.153   0.737   1.210  0.0991  0.1261 -0.0081
16120SOL    HW149432   7.236   0.717   1.254  0.3856 -0.6865 -0.8848
16120SOL    HW249433   7.148   0.673   1.139 -2.2395 -1.1854  1.2177
16121SOL     OW49434   2.855   0.980   6.790 -0.0721  0.5067 -0.3575
16121SOL    HW149435   2.859   1.074   6.774  0.6575  0.4440 -0.6156
16121SOL    HW249436   2.937   0.960   6.836  0.4349 -0.1998 -1.4960
16122SOL     OW49437   4.291   8.059   0.891  0.0525 -0.2602 -0.2342
16122SOL    HW149438   4.350   8.016   0.829  1.3998 -0.0258  0.8361
16122SOL    HW249439   4.295   8.152   0.866  0.3902 -0.2002  0.0458
16123SOL     OW49440   0.710   6.258   1.656  0.0363  0.1014 -1.1049
16123SOL    HW149441   0.785   6.239   1.713  0.7846  0.5660 -1.9038
16123SOL    HW249442   0.658   6.178   1.657 -0.3288  0.3288  0.7508
16124SOL     OW49443   2.589   2.401   3.306 -0.0987 -0.1454 -0.1270
16124SOL    HW149444   2.675   2.359   3.317  0.2713  0.8464  0.9839
16124SOL    HW249445   2.527   2.335   3.336  0.2141 -1.0719 -1.4357
16125SOL     OW49446   5.263   7.813   1.805 -0.5277  0.2280  0.1224
16125SOL    HW149447   5.231   7.746   1.745 -0.5016 -2.4334  2.8104
16125SOL    HW249448   5.184   7.858   1.835 -0.8318 -0.2592  0.0705
16126SOL     OW49449   7.705   5.991   0.464 -0.2104  0.1677 -0.3468
16126SOL    HW149450   7.664   6.056   0.521  1.1798  0.5735  0.2401
16126SOL    HW249451   7.705   5.911   0.516 -1.2311 -0.1333 -0.7788
16127SOL     OW49452   1.027   0.520   1.823 -0.2742  0.3358 -0.5730
16127SOL    HW149453   1.013   0.425   1.822 -0.0816  0.2993 -2.0181
16127SOL    HW249454   1.121   0.530   1.805 -0.5471  0.8103 -1.8483
16128SOL     OW49455   7.234   1.020   1.868  0.7442 -0.1653 -0.2888
16128SOL    HW149456   7.278   1.005   1.951 -0.1862 -0.5359  0.1494
16128SOL    HW249457   7.141   1.020   1.889  0.5062  3.2152 -0.7362
16129SOL     OW49458   5.905   7.168   6.040 -0.4520  0.1644  0.3316
16129SOL    HW149459   5.821   7.188   5.999 -0.0488  2.0872  0.3132
16129SOL    HW249460   5.885   7.103   6.107 -1.6280 -0.7773 -0.8838
16130SOL     OW49461   3.151   1.381   0.930  0.1787  0.6658  0.2160
16130SOL    HW149462   3.136   1.433   1.009  2.1363  0.7932  0.5534
16130SOL    HW249463   3.147   1.291   0.960 -0.9013  0.6504  0.0762
16131SOL     OW49464   7.181   4.118   3.485 -0.1188 -0.4453 -0.5614
16131SOL    HW149465   7.125   4.152   3.415 -0.0485  1.0257  0.0499
16131SOL    HW249466   7.177   4.186   3.553  2.3389 -0.3460 -0.4537
16132SOL     OW49467   2.969   0.188   2.330 -0.0322 -0.1294 -0.4189
16132SOL    HW149468   2.959   0.236   2.412 -0.2521 -0.7355 -0.0850
16132SOL    HW249469   2.885   0.143   2.318 -0.0531  0.0674 -1.0482
16133SOL     OW49470   5.937   3.739   7.857 -0.0355 -0.0432  0.1997
16133SOL    HW149471   6.011   3.679   7.849  0.4825  0.6900 -0.5401
16133SOL    HW249472   5.976   3.821   7.886 -0.4117  0.6642 -1.2590
16134SOL     OW49473   6.298   6.911   2.341  0.0225 -0.0856  0.1476
16134SOL    HW149474   6.260   6.919   2.253 -1.1062  0.6597  0.6811
16134SOL    HW249475   6.337   6.997   2.358 -0.1423 -0.0877  0.5427
16135SOL     OW49476   1.269   3.664   2.429 -0.1263 -0.0032  0.3555
16135SOL    HW149477   1.359   3.637   2.447 -0.7234 -1.4920  1.2885
16135SOL    HW249478   1.268   3.758   2.448  1.0487 -0.1137  1.0831
16136SOL     OW49479   6.334   7.034   0.586  0.4130 -0.0885 -0.2835
16136SOL    HW149480   6.307   6.946   0.611  0.4356 -0.0387 -0.0869
16136SOL    HW249481   6.403   7.057   0.648  0.6681 -0.0792 -0.5697
16137SOL     OW49482   7.684   0.491   1.549  0.4941  0.5935  0.1116
16137SOL    HW149483   7.593   0.462   1.537  1.0200 -0.4955 -1.6627
16137SOL    HW249484   7.705   0.538   1.469  2.2185 -1.2757 -0.6261
16138SOL     OW49485   0.891   1.957   2.941 -0.0204  0.1652  0.0940
16138SOL    HW149486   0.887   2.051   2.960 -0.2717 -0.0968  1.4876
16138SOL    HW249487   0.842   1.916   3.013  0.9450 -1.0920  0.0796
16139SOL     OW49488   5.562   6.704   2.274 -0.1334 -0.2366  0.0238
16139SOL    HW149489   5.487   6.731   2.221  0.6723 -0.8794 -1.4936
16139SOL    HW249490   5.638   6.741   2.230  0.6406 -1.6253  0.1129
16140SOL     OW49491   6.693   3.042   7.889 -0.7074 -0.0581 -0.1811
16140SOL    HW149492   6.625   3.076   7.831 -0.0763 -1.0011 -1.5322
16140SOL    HW249493   6.768   3.100   7.874 -1.0770  0.7526  1.0236
16141SOL     OW49494   5.723   5.442   4.973  0.1056 -0.9294  0.2485
16141SOL    HW149495   5.640   5.421   4.931  1.6280 -2.2032 -2.3569
16141SOL    HW249496   5.743   5.365   5.027  0.3491 -1.3458 -0.4256
16142SOL     OW49497   1.409   7.187   0.716 -1.2947 -0.1604 -0.5826
16142SOL    HW149498   1.325   7.213   0.678 -1.0022  1.0304 -0.4732
16142SOL    HW249499   1.471   7.253   0.683 -0.3587 -1.1361 -0.8338
16143SOL     OW49500   5.993   0.528   5.485  0.4963  0.2609 -0.3595
16143SOL    HW149501   5.927   0.597   5.494  2.4505  2.0153  1.6631
16143SOL    HW249502   6.032   0.520   5.572  2.9964 -0.6713 -1.4617
16144SOL     OW49503   5.502   2.915   3.330  0.1593 -0.4565 -0.0067
16144SOL    HW149504   5.443   2.915   3.255  1.9961  0.3262 -1.5514
16144SOL    HW249505   5.531   3.006   3.337  0.9769 -0.7690  0.8481
16145SOL     OW49506   2.463   6.796   0.983  0.3469  0.2842  0.5548
16145SOL    HW149507   2.376   6.756   0.986  0.8500 -0.8569  0.6728
16145SOL    HW249508   2.447   6.890   0.990 -0.8681  0.0899  0.6205
16146SOL     OW49509   7.759   0.938   8.150 -0.2674 -0.2256  0.2424
16146SOL    HW149510   7.765   0.892   8.066  2.3424 -1.1196  0.7883
16146SOL    HW249511   7.824   0.894   8.205  0.5521  2.5047  1.6468
16147SOL     OW49512   7.091   4.596   0.319 -0.1043  0.1910  0.4723
16147SOL    HW149513   7.129   4.525   0.269  0.6795  0.3544  0.8255
16147SOL    HW249514   7.149   4.670   0.304 -0.7154  0.6640  0.3952
16148SOL     OW49515   3.159   2.908   4.534 -0.0975  0.2485  0.1593
16148SOL    HW149516   3.180   2.828   4.581  1.9480  1.4774  1.4932
16148SOL    HW249517   3.133   2.970   4.602  0.4857  1.3410 -0.5879
16149SOL     OW49518   5.284   7.778   7.501 -0.2528 -0.0241  0.1096
16149SOL    HW149519   5.252   7.757   7.413  0.4323  2.0722 -0.6975
16149SOL    HW249520   5.224   7.731   7.559 -0.5829 -1.6715 -1.4400
16150SOL     OW49521   4.432   1.852   2.300 -0.3939 -0.1351  0.0417
16150SOL    HW149522   4.469   1.793   2.365 -0.3638  1.9934  2.0849
16150SOL    HW249523   4.507   1.881   2.248 -0.2303 -0.8487 -0.1378
16151SOL     OW49524   2.565   3.187   3.967 -0.2300 -0.2407  0.2779
16151SOL    HW149525   2.628   3.185   3.895  1.3718  1.8205  1.4861
16151SOL    HW249526   2.554   3.095   3.991  2.3086 -0.7281 -0.0708
16152SOL     OW49527   3.776   0.097   3.308  0.2437  0.0543 -0.4031
16152SOL    HW149528   3.775   0.186   3.272  0.2379  0.1696 -0.1193
16152SOL    HW249529   3.831   0.103   3.386  0.5740 -0.2807 -0.6094
16153SOL     OW49530   2.463   5.402   2.729  0.2710  0.0101  0.8350
16153SOL    HW149531   2.455   5.385   2.635 -4.1006  1.8259  0.6525
16153SOL    HW249532   2.446   5.318   2.770 -1.8597 -0.0759 -0.0882
16154SOL     OW49533   2.973   0.234   6.645  0.1612  0.0399 -0.4256
16154SOL    HW149534   2.997   0.255   6.555  1.2550 -0.6107 -0.3037
16154SOL    HW249535   3.019   0.300   6.697  1.3203 -0.9036 -0.2209
16155SOL     OW49536   0.788   5.640   3.554 -0.0812  0.1867 -0.3421
16155SOL    HW149537   0.820   5.730   3.560  0.1440  0.0294  1.7886
16155SOL    HW249538   0.836   5.602   3.481 -0.6006  1.9367 -1.6551
16156SOL     OW49539   1.788   7.116   4.508 -0.0787  0.2064  0.6719
16156SOL    HW149540   1.842   7.181   4.552  1.5843 -0.5998 -0.0749
16156SOL    HW249541   1.838   7.035   4.515 -1.5580 -0.7459  0.5822
16157SOL     OW49542   6.605   5.149   5.067  0.0380  0.1598  0.4159
16157SOL    HW149543   6.592   5.215   5.136  2.8397 -1.3885  2.6468
16157SOL    HW249544   6.698   5.127   5.073 -0.0183 -1.3919 -2.7314
16158SOL     OW49545   0.717   2.011   7.474 -0.3462  0.3039 -0.5089
16158SOL    HW149546   0.783   1.944   7.490 -0.4959  0.5426  1.3308
16158SOL    HW249547   0.763   2.079   7.426  0.7359  0.3945  0.6033
16159SOL     OW49548   3.339   2.927   1.076  0.3885 -0.7391  0.4306
16159SOL    HW149549   3.352   3.003   1.020 -1.8997 -0.9769 -0.5199
16159SOL    HW249550   3.391   2.946   1.155  2.0113  0.5395 -0.8716
16160SOL     OW49551   3.290   1.971   0.605 -0.2900 -0.4743 -0.1190
16160SOL    HW149552   3.275   2.060   0.636 -2.3459 -0.6157 -0.5384
16160SOL    HW249553   3.376   1.947   0.639  0.9439  2.1332 -1.1326
16161SOL     OW49554   1.322   7.816   6.868  0.0027 -0.0709  0.4580
16161SOL    HW149555   1.291   7.852   6.785  0.7423 -0.1814  0.1339
16161SOL    HW249556   1.355   7.892   6.916 -0.4326 -0.0054  0.6684
16162SOL     OW49557   0.728   1.649   2.915 -0.5910 -0.1302  0.0799
16162SOL    HW149558   0.822   1.662   2.903 -0.5957 -0.5733 -0.4972
16162SOL    HW249559   0.710   1.684   3.002  0.0652  0.1749  0.1006
16163SOL     OW49560   4.738   7.553   5.999  0.0162  0.0885 -0.2941
16163SOL    HW149561   4.679   7.608   6.049 -3.2397 -3.1860 -0.1261
16163SOL    HW249562   4.771   7.489   6.062 -0.1228 -1.0130 -1.2879
16164SOL     OW49563   3.257   5.231   3.535 -0.4320  0.3288  0.2567
16164SOL    HW149564   3.309   5.302   3.573  2.3482  0.3847 -3.1193
16164SOL    HW249565   3.166   5.257   3.550  0.4808  3.3424  1.3157
16165SOL     OW49566   3.466   5.611   7.927  0.3458  0.0097 -0.4665
16165SOL    HW149567   3.475   5.539   7.989 -0.9237 -0.0069 -0.2612
16165SOL    HW249568   3.530   5.592   7.858  1.4147 -0.2477  0.5643
16166SOL     OW49569   4.860   6.397   7.896  0.1507  0.6434  0.0710
16166SOL    HW149570   4.901   6.396   7.810 -1.2258 -0.9947 -0.6208
16166SOL    HW249571   4.933   6.391   7.958  1.0670 -2.8943 -1.1142
16167SOL     OW49572   4.472   1.320   7.211  0.8683  0.3488 -0.3019
16167SOL    HW149573   4.399   1.304   7.152 -1.1050  3.9321  0.8485
16167SOL    HW249574   4.543   1.351   7.153  0.5150 -0.4330 -1.1706
16168SOL     OW49575   0.948   8.068   1.891  0.6320 -0.3634  0.3889
16168SOL    HW149576   0.937   7.998   1.826  1.1449 -0.3724  0.3135
16168SOL    HW249577   1.022   8.119   1.860  0.6987 -0.1953  0.8140
16169SOL     OW49578   7.655   2.971   4.379  0.3711 -0.6810  0.0439
16169SOL    HW149579   7.705   2.967   4.460 -0.1628  1.7155  0.5717
16169SOL    HW249580   7.717   3.002   4.314 -0.3104  2.6210  0.7688
16170SOL     OW49581   7.838   5.413   4.535 -0.2399  0.3105 -0.2747
16170SOL    HW149582   7.908   5.437   4.596 -1.5556 -1.4627  2.1083
16170SOL    HW249583   7.766   5.473   4.556 -0.0343  1.0014 -1.5107
16171SOL     OW49584   6.222   4.075   4.421  0.2894 -0.6572 -0.0473
16171SOL    HW149585   6.240   4.070   4.514  1.4041  0.0011 -0.2126
16171SOL    HW249586   6.255   4.161   4.394 -0.3889 -0.6677 -0.9684
16172SOL     OW49587   4.847   3.667   7.332  0.3274  0.5887  0.1359
16172SOL    HW149588   4.837   3.668   7.237  0.0016 -1.7522  0.0807
16172SOL    HW249589   4.941   3.682   7.346  0.7647 -1.0420 -0.7225
16173SOL     OW49590   7.007   5.763   1.963  0.1908  0.1574  0.3499
16173SOL    HW149591   6.935   5.701   1.975  0.2790 -0.0929 -0.3377
16173SOL    HW249592   7.065   5.719   1.901  1.0469  0.2601  1.0615
16174SOL     OW49593   7.196   3.412   5.928  0.4979  0.2146  0.5850
16174SOL    HW149594   7.143   3.476   5.977  1.8740  0.5004  1.7639
16174SOL    HW249595   7.143   3.332   5.929  0.4028  0.2449  2.4809
16175SOL     OW49596   0.753   2.651   1.094 -0.0618 -0.3205  0.4199
16175SOL    HW149597   0.712   2.579   1.142  0.2549 -0.5768  0.3091
16175SOL    HW249598   0.682   2.713   1.078 -0.5431 -1.0269 -0.2735
16176SOL     OW49599   1.961   0.746   7.921  0.3220 -0.2242 -0.4079
16176SOL    HW149600   2.001   0.666   7.956  1.0716 -0.2484 -1.2813
16176SOL    HW249601   1.908   0.779   7.993  0.2008 -1.3711  0.0574
16177SOL     OW49602   0.195   7.528   3.443 -0.0835  0.7796  0.2571
16177SOL    HW149603   0.108   7.492   3.429  0.6130 -0.3416 -1.6172
16177SOL    HW249604   0.219   7.501   3.531 -1.2414  0.2752  0.4323
16178SOL     OW49605   2.888   3.978   0.439  0.5812 -0.3978 -0.5403
16178SOL    HW149606   2.968   4.002   0.486 -1.6134  2.6062  2.0602
16178SOL    HW249607   2.828   3.949   0.507 -1.9519  1.6933 -1.7145
16179SOL     OW49608   6.944   7.113   0.895 -0.2099 -0.4554 -0.1058
16179SOL    HW149609   6.904   7.128   0.981 -1.4963 -0.1799 -0.7210
16179SOL    HW249610   6.953   7.018   0.889  0.4024 -0.4451  0.5479
16180SOL     OW49611   0.034   2.333   7.784  0.2568  0.7097 -0.6556
16180SOL    HW149612  -0.034   2.266   7.776  0.2546  0.6777 -0.3607
16180SOL    HW249613   0.021   2.389   7.707 -1.9199  2.4038  0.8534
16181SOL     OW49614   3.892   7.842   7.623 -0.5741  0.0234  0.1718
16181SOL    HW149615   3.986   7.844   7.607 -0.3708  0.1549  1.2557
16181SOL    HW249616   3.863   7.758   7.587  0.2387 -0.7259  1.1793
16182SOL     OW49617   7.567   2.234   1.072  0.0284  0.3055 -0.2126
16182SOL    HW149618   7.623   2.301   1.112 -0.3930 -0.5754  1.9439
16182SOL    HW249619   7.579   2.247   0.978 -2.5485  5.6861 -0.2238
16183SOL     OW49620   3.331   5.553   7.673  0.1466  0.4073  1.0189
16183SOL    HW149621   3.325   5.534   7.580 -0.5470 -1.2281  1.3700
16183SOL    HW249622   3.414   5.602   7.682  0.2278  0.5892 -0.4253
16184SOL     OW49623   1.880   5.113   2.032 -0.5947 -0.4287  0.6603
16184SOL    HW149624   1.927   5.037   1.997 -3.0459 -1.3459 -0.8457
16184SOL    HW249625   1.940   5.186   2.017  0.1399 -1.4289 -1.8399
16185SOL     OW49626   2.200   5.076   3.157  0.1152 -0.0843  0.6581
16185SOL    HW149627   2.171   5.106   3.244 -0.0837 -1.0766  0.9483
16185SOL    HW249628   2.265   5.009   3.176  0.5310  0.1337  0.0221
16186SOL     OW49629   7.530   6.555   0.406 -0.3594 -0.0568 -0.3999
16186SOL    HW149630   7.591   6.598   0.467 -0.2443 -0.3870 -0.2821
16186SOL    HW249631   7.582   6.536   0.329  0.0527 -1.5779  0.2182
16187SOL     OW49632   7.264   7.226   4.676 -0.0966 -0.6808  0.3665
16187SOL    HW149633   7.282   7.162   4.745  1.5345  0.9028  1.5103
16187SOL    HW249634   7.298   7.185   4.596 -0.5762 -1.8957  0.7675
16188SOL     OW49635   2.269   4.164   3.637 -0.1552  1.0507  0.0300
16188SOL    HW149636   2.332   4.092   3.632 -1.8525 -0.5507  0.5486
16188SOL    HW249637   2.308   4.224   3.702 -0.1142 -0.9628  2.0123
16189SOL     OW49638   6.798   1.065   1.326  0.2666  0.2656 -0.4849
16189SOL    HW149639   6.742   1.027   1.259 -1.6608  2.5748 -0.3114
16189SOL    HW249640   6.887   1.048   1.295 -0.4916  2.1000 -4.2491
16190SOL     OW49641   0.021   0.638   3.940  0.0514 -0.1401  0.0019
16190SOL    HW149642   0.063   0.718   3.908 -0.4190 -0.0392 -0.3680
16190SOL    HW249643  -0.005   0.591   3.860  1.6174 -1.3774  0.1590
16191SOL     OW49644   6.385   5.912   1.860 -0.2014 -0.1074  0.0155
16191SOL    HW149645   6.339   5.843   1.812  0.6993 -1.3144  0.8110
16191SOL    HW249646   6.352   5.906   1.949  1.9908 -1.5970  0.8294
16192SOL     OW49647   6.838   0.078   4.230 -0.3627 -0.3811 -0.3789
16192SOL    HW149648   6.932   0.069   4.216 -0.3417 -4.4520  1.1526
16192SOL    HW249649   6.830   0.147   4.296  1.8159 -1.4012  1.0633
16193SOL     OW49650   5.778   5.990   0.628  0.1572  0.5731 -0.0686
16193SOL    HW149651   5.739   6.075   0.605 -0.3114 -0.3302 -2.8943
16193SOL    HW249652   5.714   5.951   0.688 -0.1353  1.7368  0.4207
16194SOL     OW49653   0.154   8.018   3.224 -0.1895  0.7119  0.2321
16194SOL    HW149654   0.064   8.001   3.199  0.3744  1.8209 -2.9544
16194SOL    HW249655   0.151   8.097   3.277 -1.1022  0.6025  0.3443
16195SOL     OW49656   1.222   0.913   2.257 -0.2297 -0.3279 -0.6993
16195SOL    HW149657   1.239   1.003   2.227  0.7738  0.0782  0.9332
16195SOL    HW249658   1.132   0.896   2.232 -1.2816  2.0631  1.0678
16196SOL     OW49659   0.805   2.468   5.642  0.4397  0.0218  0.2149
16196SOL    HW149660   0.789   2.418   5.563 -1.0202  0.3156  0.2954
16196SOL    HW249661   0.728   2.524   5.652  0.7526  0.2559  1.6445
16197SOL     OW49662   7.067   3.144   3.657 -0.2248 -0.1503 -0.4619
16197SOL    HW149663   7.010   3.068   3.672 -0.3567 -0.2480 -1.3532
16197SOL    HW249664   7.122   3.117   3.583  0.0065  0.4724 -0.5186
16198SOL     OW49665   3.645   1.213   2.483  0.0982  0.1516  0.8309
16198SOL    HW149666   3.676   1.216   2.574 -0.1760  1.4525  0.8995
16198SOL    HW249667   3.697   1.145   2.442 -0.8895 -1.6282  2.3790
16199SOL     OW49668   2.340   5.806   6.380  0.3385  0.3899  0.1393
16199SOL    HW149669   2.356   5.752   6.302 -0.0886 -0.8080  0.8620
16199SOL    HW249670   2.420   5.796   6.432  0.3264  0.5907  0.1953
16200SOL     OW49671   1.931   4.300   5.202 -0.1855  0.0493  0.0266
16200SOL    HW149672   1.845   4.305   5.244  0.3461  0.6466  1.0892
16200SOL    HW249673   1.982   4.368   5.245  1.1252 -0.9629  0.1193
16201SOL     OW49674   0.125   7.024   0.509 -0.6071 -0.6618  0.1295
16201SOL    HW149675   0.093   6.940   0.477 -1.8130 -0.1042 -0.2083
16201SOL    HW249676   0.158   7.006   0.597  3.1619 -2.3124 -1.4352
16202SOL     OW49677   1.748   8.128   3.259  0.3404  0.5695 -0.0439
16202SOL    HW149678   1.783   8.201   3.310 -1.4765  1.5982 -0.1771
16202SOL    HW249679   1.809   8.117   3.186 -0.7979  3.9513 -1.7009
16203SOL     OW49680   0.664   8.109   6.753 -0.6838 -0.1931  0.6458
16203SOL    HW149681   0.730   8.076   6.692 -0.1063  0.8111  0.7097
16203SOL    HW249682   0.591   8.136   6.697 -1.5707 -2.3788  0.6438
16204SOL     OW49683   7.442   4.501   6.772 -0.0616 -0.4711  0.6512
16204SOL    HW149684   7.375   4.509   6.840  0.1518  0.0559  0.8052
16204SOL    HW249685   7.515   4.456   6.815 -0.5415 -1.5978  0.3132
16205SOL     OW49686   4.161   4.367   2.491 -0.1389  0.4820  0.4512
16205SOL    HW149687   4.078   4.413   2.476  1.0223  1.8576 -2.7283
16205SOL    HW249688   4.160   4.295   2.427  0.9561  0.2991  0.6252
16206SOL     OW49689   3.229   2.371   4.265  0.0021  0.3452 -0.3698
16206SOL    HW149690   3.293   2.314   4.308 -0.2396  0.6112  0.3624
16206SOL    HW249691   3.245   2.359   4.171  1.2449  0.5304 -0.2038
16207SOL     OW49692   5.956   7.529   2.259  0.5041 -0.3848  0.0247
16207SOL    HW149693   5.877   7.477   2.244  1.2857 -2.1376  1.5883
16207SOL    HW249694   5.925   7.612   2.295 -0.6067 -1.7614  2.4638
16208SOL     OW49695   1.168   3.618   7.972 -0.1522  0.0056 -0.1031
16208SOL    HW149696   1.161   3.529   8.006  1.0581 -0.1748 -0.2915
16208SOL    HW249697   1.252   3.650   8.006 -1.4587  1.8224  1.6636
16209SOL     OW49698   0.260   6.336   3.165 -0.2135 -0.8362  0.0670
16209SOL    HW149699   0.227   6.277   3.232 -0.4107 -0.3923  0.3647
16209SOL    HW249700   0.182   6.374   3.126 -0.1030 -1.1574 -0.4772
16210SOL     OW49701   7.644   4.075   4.514  0.1007 -0.1046  0.2353
16210SOL    HW149702   7.703   4.067   4.439  0.9155  0.7037  0.7733
16210SOL    HW249703   7.614   4.166   4.512  1.2226  0.3397  1.6524
16211SOL     OW49704   3.533   7.186   6.342 -0.5910 -0.4053 -0.4135
16211SOL    HW149705   3.466   7.130   6.380  0.4952 -1.5172 -0.0564
16211SOL    HW249706   3.592   7.125   6.297  0.5846  0.4617 -0.0864
16212SOL     OW49707   5.070   1.687   8.030 -0.4684  0.0948  0.0070
16212SOL    HW149708   5.132   1.745   7.986 -0.6480 -1.4944 -2.5845
16212SOL    HW249709   5.025   1.743   8.094  1.4593  2.0099 -0.2056
16213SOL     OW49710   2.766   3.274   5.717 -0.0974 -0.2125  0.1361
16213SOL    HW149711   2.764   3.218   5.795 -1.6396  0.7951  0.8822
16213SOL    HW249712   2.731   3.220   5.647  1.1238 -1.0740  0.1775
16214SOL     OW49713   6.637   5.115   5.721 -0.2090  0.1569 -0.5817
16214SOL    HW149714   6.626   5.208   5.702 -1.5319 -0.0450 -0.9058
16214SOL    HW249715   6.691   5.114   5.800 -0.5419  1.2206 -0.3135
16215SOL     OW49716   2.939   4.359   6.998  0.6247 -0.1103  0.5110
16215SOL    HW149717   2.861   4.305   6.984 -0.5315  1.2641  1.3305
16215SOL    HW249718   2.956   4.352   7.092  1.7597 -0.6935  0.2870
16216SOL     OW49719   4.048   2.652   7.939  0.4669  0.0582  0.1464
16216SOL    HW149720   4.060   2.641   7.845 -1.0242  0.3475 -0.1074
16216SOL    HW249721   4.121   2.708   7.966  0.3186  0.8740 -1.0492
16217SOL     OW49722   7.993   5.526   1.368 -0.5125 -0.2832 -0.2714
16217SOL    HW149723   7.914   5.540   1.421 -1.0269  0.3376 -1.1797
16217SOL    HW249724   8.060   5.582   1.409 -1.1857  1.0005 -0.8562
16218SOL     OW49725   5.424   7.351   4.352 -0.1280 -0.0409 -0.0066
16218SOL    HW149726   5.344   7.306   4.325  0.6983 -0.9158 -1.1152
16218SOL    HW249727   5.437   7.418   4.285 -0.2831  0.5528  0.5481
16219SOL     OW49728   1.221   5.602   3.433  0.2321  0.3025 -0.5423
16219SOL    HW149729   1.236   5.507   3.424  0.7524  0.4278 -1.0359
16219SOL    HW249730   1.196   5.613   3.525 -0.1847 -0.3582 -0.5631
16220SOL     OW49731   2.159   2.332   5.280 -0.2238  0.5347  0.3675
16220SOL    HW149732   2.070   2.315   5.249  0.5410 -0.4805 -1.4544
16220SOL    HW249733   2.168   2.277   5.358 -0.7732 -0.3794 -0.1993
16221SOL     OW49734   4.017   7.938   5.253 -0.4474  0.1801 -0.1747
16221SOL    HW149735   3.942   7.996   5.254 -1.3579 -0.6856 -3.6215
16221SOL    HW249736   3.986   7.858   5.211  1.6206 -1.5205  1.2637
16222SOL     OW49737   0.974   6.581   2.174  0.3751 -0.3203 -0.0626
16222SOL    HW149738   1.020   6.645   2.228 -0.0814 -0.1444  0.1159
16222SOL    HW249739   0.966   6.623   2.088  0.7004 -0.4217 -0.1452
16223SOL     OW49740   0.262   3.378   7.120 -0.6493  0.4154  0.4792
16223SOL    HW149741   0.230   3.468   7.113 -1.4998  0.2611  1.9892
16223SOL    HW249742   0.240   3.351   7.210 -1.6719 -1.7733 -0.3524
16224SOL     OW49743   0.492   2.608   1.576 -0.0824 -0.1478 -0.1000
16224SOL    HW149744   0.443   2.681   1.537  2.2659  2.6772  1.8028
16224SOL    HW249745   0.427   2.563   1.630 -1.2107  1.9556  0.4281
16225SOL     OW49746   5.885   4.015   1.856 -0.3726 -0.3249 -0.2602
16225SOL    HW149747   5.875   4.069   1.778  0.4246  1.0057  0.5447
16225SOL    HW249748   5.979   3.997   1.862 -0.2297  0.7993  1.1808
16226SOL     OW49749   5.117   2.401   6.090  0.5997  0.1074 -0.0648
16226SOL    HW149750   5.143   2.451   6.167 -0.3282 -0.2877  0.5103
16226SOL    HW249751   5.059   2.459   6.042  0.8098  0.1778 -0.2387
16227SOL     OW49752   7.024   3.669   2.132  0.5982 -0.1498 -0.2149
16227SOL    HW149753   7.099   3.674   2.074  1.1352  0.7299  0.5228
16227SOL    HW249754   7.021   3.755   2.174 -0.2099 -0.5200  0.5092
16228SOL     OW49755   7.555   0.280   4.966  0.6677  0.2849  0.2744
16228SOL    HW149756   7.604   0.243   5.039  1.7755 -1.0085 -1.0665
16228SOL    HW249757   7.521   0.204   4.919  1.8560  0.9665 -1.8047
16229SOL     OW49758   2.353   2.704   7.452 -0.4299 -0.3025  0.2726
16229SOL    HW149759   2.336   2.610   7.461 -1.8884 -0.0054  0.7477
16229SOL    HW249760   2.365   2.717   7.357 -0.0907 -0.9725  0.2140
16230SOL     OW49761   6.985   5.879   0.448 -0.1806 -0.2304  0.0752
16230SOL    HW149762   6.930   5.865   0.525  0.1719  0.3500  0.4364
16230SOL    HW249763   6.995   5.974   0.442 -0.2409 -0.2638 -0.7177
16231SOL     OW49764   1.186   3.826   6.257  0.4029  0.2288 -0.2886
16231SOL    HW149765   1.228   3.761   6.201  1.5971  0.5184  0.2277
16231SOL    HW249766   1.142   3.775   6.325  0.4862 -0.0663 -0.4550
16232SOL     OW49767   0.584   1.594   3.934  0.4493 -0.2104 -0.3126
16232SOL    HW149768   0.600   1.560   4.022 -1.0585 -1.2058 -0.3913
16232SOL    HW249769   0.524   1.667   3.947 -0.0250 -0.5586 -0.5391
16233SOL     OW49770   6.935   4.211   0.259  0.7123  0.1257 -0.0519
16233SOL    HW149771   6.926   4.125   0.217  1.4194  0.0949 -0.1491
16233SOL    HW249772   6.942   4.191   0.352  1.9421 -0.0152 -0.1526
16234SOL     OW49773   4.004   5.815   1.367 -0.0083 -0.4002 -0.1963
16234SOL    HW149774   4.023   5.734   1.319  1.4328  0.0892 -0.5071
16234SOL    HW249775   4.066   5.815   1.440 -1.5490 -0.6752  1.1581
16235SOL     OW49776   7.212   4.504   1.534 -0.1776 -0.3199  0.2713
16235SOL    HW149777   7.178   4.586   1.570  0.2483  0.8279 -1.8144
16235SOL    HW249778   7.141   4.471   1.479 -0.5420 -1.6651  1.4981
16236SOL     OW49779   0.148   4.152   5.525 -0.0993 -0.2895 -0.3472
16236SOL    HW149780   0.214   4.216   5.501  1.5624 -0.2743  3.5649
16236SOL    HW249781   0.192   4.067   5.517 -1.3512 -0.7957 -2.6436
16237SOL     OW49782   5.034   5.588   3.081  0.7855  0.2728  0.2471
16237SOL    HW149783   5.089   5.578   3.159 -0.4508  1.5882  1.3516
16237SOL    HW249784   4.968   5.519   3.089  0.4445  0.6286  0.5854
16238SOL     OW49785   3.529   6.140   4.750 -0.2398 -0.2106 -0.2594
16238SOL    HW149786   3.541   6.214   4.810  0.8834 -1.3716  0.9973
16238SOL    HW249787   3.575   6.166   4.670 -0.0579  0.5465  0.0830
16239SOL     OW49788   1.929   2.626   4.365  0.2818  0.1045 -0.2067
16239SOL    HW149789   1.945   2.667   4.450 -1.4071 -0.2772  0.3315
16239SOL    HW249790   1.842   2.655   4.340  0.1762 -0.9445 -1.1285
16240SOL     OW49791   6.579   1.352   7.792 -0.1370  0.1721 -0.6818
16240SOL    HW149792   6.620   1.338   7.877 -0.5279  1.3658 -0.2865
16240SOL    HW249793   6.485   1.344   7.808 -0.1714 -0.5713 -1.1984
16241SOL     OW49794   3.392   5.436   1.352 -0.3585  0.0665 -0.4773
16241SOL    HW149795   3.411   5.460   1.262  0.8847 -1.0513 -0.5450
16241SOL    HW249796   3.343   5.354   1.346  1.1351 -0.8865 -0.1330
16242SOL     OW49797   3.651   7.312   1.417 -0.2125  0.1356  0.4970
16242SOL    HW149798   3.684   7.331   1.329 -0.1548  0.8874  0.6750
16242SOL    HW249799   3.694   7.230   1.442  0.4425  0.3732  0.1689
16243SOL     OW49800   2.637   0.261   3.492 -0.3884 -0.5869 -0.3164
16243SOL    HW149801   2.596   0.248   3.406  0.9318 -0.5188 -0.9840
16243SOL    HW249802   2.647   0.173   3.527  0.8149 -0.7895 -1.1025
16244SOL     OW49803   6.012   0.458   8.014  0.5683  0.2884  0.3481
16244SOL    HW149804   5.945   0.526   8.024 -0.1961 -0.0933 -1.6096
16244SOL    HW249805   5.996   0.398   8.087  1.2373  2.1530  2.0756
16245SOL     OW49806   3.071   7.094   3.731  0.2827  0.6549 -0.2722
16245SOL    HW149807   3.136   7.053   3.787  2.0747  2.1601 -1.1210
16245SOL    HW249808   3.023   7.021   3.692 -2.6202 -0.5323  4.7074
16246SOL     OW49809   2.353   3.286   3.696 -0.2683  0.5314 -0.8172
16246SOL    HW149810   2.267   3.266   3.732 -0.4185  1.4594 -0.6548
16246SOL    HW249811   2.414   3.253   3.762 -0.4990  0.1255 -0.8022
16247SOL     OW49812   6.023   6.646   4.495  0.1688  0.0971  0.3631
16247SOL    HW149813   6.109   6.683   4.474  1.5969 -2.5144  1.1313
16247SOL    HW249814   6.001   6.591   4.419  0.5124 -1.3642  1.2812
16248SOL     OW49815   5.382   1.908   2.207  0.3860  0.2987  0.0930
16248SOL    HW149816   5.477   1.923   2.203  0.4653  0.4389  1.6920
16248SOL    HW249817   5.371   1.849   2.283 -0.8749  0.9460  0.4359
16249SOL     OW49818   2.226   1.122   2.051  0.3977 -0.6108 -0.0955
16249SOL    HW149819   2.259   1.202   2.010  2.9202 -1.2038  0.6049
16249SOL    HW249820   2.196   1.150   2.137 -0.7748 -0.1098 -0.6384
16250SOL     OW49821   4.446   6.962   4.368 -0.8233  0.5019  0.1749
16250SOL    HW149822   4.515   6.945   4.433 -0.3548  1.8256  0.0604
16250SOL    HW249823   4.419   7.052   4.385 -2.9279 -0.1412  0.5438
16251SOL     OW49824   7.577   2.516   5.338 -0.2242 -0.2334 -0.3584
16251SOL    HW149825   7.554   2.451   5.271 -0.8945  0.9412 -1.3021
16251SOL    HW249826   7.511   2.503   5.406  0.2229 -1.1666 -0.0761
16252SOL     OW49827   6.078   4.541   5.564  0.2888  0.2318  0.0973
16252SOL    HW149828   6.073   4.445   5.561 -1.0482  0.2298  1.1344
16252SOL    HW249829   6.143   4.564   5.498  0.3357 -1.3692 -0.4604
16253SOL     OW49830   2.980   6.568   0.888 -0.2726  0.2976  0.2652
16253SOL    HW149831   3.011   6.523   0.966 -2.3548  0.8936  1.5235
16253SOL    HW249832   3.059   6.595   0.842  1.1063 -3.9827 -0.2895
16254SOL     OW49833   7.488   4.191   6.471 -0.1974  0.4649  0.6067
16254SOL    HW149834   7.543   4.114   6.487  0.2478  0.6395 -0.0252
16254SOL    HW249835   7.500   4.246   6.548 -1.1809 -0.4709  1.4524
16255SOL     OW49836   0.614   7.306   5.568  0.1702 -0.1835  0.0791
16255SOL    HW149837   0.624   7.264   5.654  2.4082 -0.7426 -0.3935
16255SOL    HW249838   0.611   7.233   5.506 -1.2330  0.2264 -0.3554
16256SOL     OW49839   3.497   0.582   6.663 -0.1353 -0.2813  0.4645
16256SOL    HW149840   3.470   0.673   6.650 -1.4363 -0.9392 -2.0013
16256SOL    HW249841   3.582   0.575   6.620  0.2955 -0.0911  1.2674
16257SOL     OW49842   5.708   7.816   0.717 -0.5084  0.2364 -0.0275
16257SOL    HW149843   5.677   7.781   0.801  1.3753  2.6680  1.8466
16257SOL    HW249844   5.659   7.898   0.707 -1.5202 -0.5423 -1.9637
16258SOL     OW49845   7.131   2.767   4.116  0.0689  0.1553 -0.2719
16258SOL    HW149846   7.216   2.806   4.097  0.6697 -0.4171  1.0632
16258SOL    HW249847   7.152   2.682   4.157 -1.1655 -0.6363 -1.1935
16259SOL     OW49848   2.147   7.433   6.469 -0.3291  0.6193 -0.4601
16259SOL    HW149849   2.089   7.501   6.504 -0.9516 -0.0538 -0.1544
16259SOL    HW249850   2.150   7.367   6.537 -0.6762 -0.2077 -1.2261
16260SOL     OW49851   0.654   5.414   3.710  0.0403  0.4357  0.1731
16260SOL    HW149852   0.652   5.429   3.616  0.6125 -0.5822 -0.0073
16260SOL    HW249853   0.724   5.472   3.742 -0.1569  0.7823 -0.0130
16261SOL     OW49854   7.876   7.753   3.089  0.0071  0.4330  0.6720
16261SOL    HW149855   7.902   7.843   3.070  0.4123  0.7171  2.4465
16261SOL    HW249856   7.954   7.711   3.124 -0.6223 -0.1327  1.4310
16262SOL     OW49857   0.213   7.023   6.165 -0.2880  0.3699 -0.3487
16262SOL    HW149858   0.134   7.004   6.114  0.7782 -3.2733 -0.8934
16262SOL    HW249859   0.186   7.013   6.256 -0.5912 -0.3205 -0.5110
16263SOL     OW49860   0.008   4.162   1.425  0.3524 -0.1405  0.3792
16263SOL    HW149861   0.005   4.246   1.379 -0.4415 -0.6043 -0.4622
16263SOL    HW249862  -0.036   4.101   1.365  1.3312 -1.2518  0.7715
16264SOL     OW49863   0.667   1.943   4.670 -0.9527  0.1169  0.5733
16264SOL    HW149864   0.680   1.849   4.661  1.2737  0.3642  0.6001
16264SOL    HW249865   0.675   1.977   4.581 -1.3467  0.3327  0.6175
16265SOL     OW49866   6.901   2.845   1.820 -0.8257 -0.6797  0.2314
16265SOL    HW149867   6.823   2.890   1.852 -1.0223 -1.7126  1.3055
16265SOL    HW249868   6.945   2.814   1.900  0.3186 -0.7092 -0.3878
16266SOL     OW49869   7.497   5.220   5.848 -0.0262  0.4621 -0.3704
16266SOL    HW149870   7.514   5.207   5.754 -0.3603 -0.2874 -0.3342
16266SOL    HW249871   7.422   5.280   5.850  0.9071  1.6737 -0.5561
16267SOL     OW49872   6.530   3.098   7.682  0.5852  0.4042  0.5565
16267SOL    HW149873   6.592   3.140   7.623  0.5238 -0.1963  0.0505
16267SOL    HW249874   6.464   3.166   7.699  0.5092  0.5348 -0.2133
16268SOL     OW49875   1.734   7.716   1.862  0.0031 -0.3393 -0.7558
16268SOL    HW149876   1.647   7.692   1.829 -0.0468  0.8857 -1.5673
16268SOL    HW249877   1.794   7.691   1.792  0.3313 -1.2613 -0.1620
16269SOL     OW49878   2.009   3.930   3.368  0.2054 -0.5320 -0.9704
16269SOL    HW149879   2.083   3.892   3.319  0.3313 -0.9316 -0.4732
16269SOL    HW249880   1.951   3.855   3.386  0.2186 -0.4101 -0.4073
16270SOL     OW49881   3.056   4.968   0.665  0.3123  0.0168  0.5319
16270SOL    HW149882   2.979   5.024   0.655 -0.1905 -0.7418  0.0125
16270SOL    HW249883   3.052   4.909   0.590 -0.8350 -2.6873  2.5608
16271SOL     OW49884   7.620   4.838   5.287 -0.1028  0.0698 -0.0087
16271SOL    HW149885   7.602   4.915   5.233  1.9521  0.3418 -0.3701
16271SOL    HW249886   7.677   4.784   5.234  0.6415 -0.4360  1.2539
16272SOL     OW49887   5.682   2.764   3.470 -0.3555  0.5112  0.2032
16272SOL    HW149888   5.616   2.819   3.428  0.5254  1.2431 -0.2813
16272SOL    HW249889   5.752   2.825   3.494  0.1200 -0.2336  0.7477
16273SOL     OW49890   2.043   4.274   4.778  0.0639  0.3854 -0.2173
16273SOL    HW149891   2.129   4.300   4.813 -0.1459  0.0208  0.5999
16273SOL    HW249892   2.063   4.235   4.693  0.6861  0.5095 -0.1383
16274SOL     OW49893   6.212   5.378   1.171 -0.0686 -0.0677 -0.4189
16274SOL    HW149894   6.172   5.463   1.190  1.4363  0.5545  0.1450
16274SOL    HW249895   6.280   5.397   1.107  0.3556 -0.8297 -0.2073
16275SOL     OW49896   5.901   0.755   0.629 -0.5616 -0.0694 -0.0384
16275SOL    HW149897   5.934   0.666   0.637  0.0715  0.2796  1.8500
16275SOL    HW249898   5.979   0.810   0.633 -1.0578  0.6190  0.5075
16276SOL     OW49899   0.912   3.525   7.646  1.3174  0.8537  0.0299
16276SOL    HW149900   0.818   3.515   7.627  1.6217 -1.4206 -0.5854
16276SOL    HW249901   0.955   3.514   7.561  2.1966  0.7370  0.4827
16277SOL     OW49902   3.347   7.115   7.502 -0.3314  0.0777 -0.3235
16277SOL    HW149903   3.308   7.200   7.481  0.5795  0.3815 -0.8035
16277SOL    HW249904   3.359   7.117   7.597  1.5212  1.3062 -0.5360
16278SOL     OW49905   2.821   0.939   2.357  0.3364  0.3201  0.6338
16278SOL    HW149906   2.813   1.031   2.330  0.8796  0.6273  1.4773
16278SOL    HW249907   2.896   0.938   2.417  0.3648 -0.6870  0.5956
16279SOL     OW49908   2.877   8.022   6.239 -0.1602 -0.3360  0.1746
16279SOL    HW149909   2.852   8.017   6.147 -1.2818  0.7755  0.3800
16279SOL    HW249910   2.848   7.939   6.277  0.5497 -0.9084 -0.5143
16280SOL     OW49911   1.580   6.308   2.049 -0.4591  0.0943 -0.4407
16280SOL    HW149912   1.632   6.259   1.985  0.8904 -0.7303  1.1948
16280SOL    HW249913   1.540   6.240   2.104  1.5989  0.7249  2.0013
16281SOL     OW49914   3.613   4.550   2.800  0.0706  0.3919  0.0395
16281SOL    HW149915   3.702   4.572   2.828 -0.2118  2.6824 -0.6842
16281SOL    HW249916   3.611   4.572   2.707 -1.1678  0.0270 -0.0338
16282SOL     OW49917   2.227   3.401   6.722  1.1002  0.1607  0.5168
16282SOL    HW149918   2.188   3.459   6.656  1.2484 -0.7487 -0.3999
16282SOL    HW249919   2.159   3.393   6.789  0.8253  0.8780  0.3314
16283SOL     OW49920   4.136   4.994   6.384  0.2171  0.2484 -0.1315
16283SOL    HW149921   4.104   5.082   6.406 -0.6701 -0.1442  0.2093
16283SOL    HW249922   4.225   4.991   6.418  0.1819  0.9490  0.0380
16284SOL     OW49923   5.824   1.047   3.992  0.0705 -0.2509  0.1410
16284SOL    HW149924   5.819   0.952   3.981 -0.8955 -0.4591  2.0457
16284SOL    HW249925   5.835   1.080   3.903  0.2086 -2.1257 -0.5866
16285SOL     OW49926   1.189   2.071   6.531  0.4924 -0.5991 -0.5849
16285SOL    HW149927   1.228   2.012   6.466  2.3132 -0.1761  0.0637
16285SOL    HW249928   1.229   2.045   6.614 -0.0664  0.3605  0.0095
16286SOL     OW49929   3.411   3.189   2.616 -0.7531  0.0988 -0.3336
16286SOL    HW149930   3.414   3.274   2.660 -0.4844 -0.3991  0.6322
16286SOL    HW249931   3.482   3.193   2.551  0.3303  0.0328  0.8104
16287SOL     OW49932   5.834   5.697   5.601  0.1307  0.4397  0.3354
16287SOL    HW149933   5.769   5.720   5.535  1.2004 -1.4138 -1.5182
16287SOL    HW249934   5.784   5.654   5.670 -0.8006  0.6214 -0.2067
16288SOL     OW49935   3.959   2.695   0.963 -0.6533 -0.1055  0.7086
16288SOL    HW149936   3.967   2.680   1.057  0.1817 -1.5356  0.4413
16288SOL    HW249937   3.868   2.672   0.943 -0.4575 -1.1533  0.9570
16289SOL     OW49938   7.255   0.241   5.438 -0.0942  0.2077  0.4301
16289SOL    HW149939   7.312   0.209   5.508 -0.0814 -0.4154  0.1396
16289SOL    HW249940   7.292   0.325   5.413  1.4844 -0.7656 -0.6394
16290SOL     OW49941   5.807   2.226   6.205 -1.0275  0.3276 -0.0766
16290SOL    HW149942   5.722   2.218   6.247 -1.6436  2.5554 -0.7764
16290SOL    HW249943   5.808   2.315   6.169  1.1264 -0.0503 -1.1092
16291SOL     OW49944   3.917   2.024   4.849 -0.1371  0.6040 -0.3749
16291SOL    HW149945   3.942   2.017   4.942  1.6587  1.5323 -0.7285
16291SOL    HW249946   3.969   1.957   4.805  1.4943  2.2160 -1.0638
16292SOL     OW49947   1.446   2.214   4.647  0.2617 -0.1631 -0.0899
16292SOL    HW149948   1.400   2.292   4.677  0.8767 -0.6990  2.5640
16292SOL    HW249949   1.524   2.247   4.603  0.7005  0.7854  1.3050
16293SOL     OW49950   3.973   1.756   2.757 -0.2759  0.7113  0.4845
16293SOL    HW149951   4.022   1.717   2.829  0.4991  0.6097 -0.0926
16293SOL    HW249952   3.997   1.849   2.759 -1.2692  0.9741  1.1660
16294SOL     OW49953   6.449   8.088   4.305  0.0886 -0.1109 -0.1889
16294SOL    HW149954   6.393   8.049   4.372  0.7020 -0.9170 -0.1309
16294SOL    HW249955   6.437   8.182   4.315 -0.6277 -0.2564  0.3570
16295SOL     OW49956   8.040   1.728   0.465 -0.2552  0.1942 -0.2074
16295SOL    HW149957   7.978   1.726   0.393 -0.8185 -1.9147  0.2756
16295SOL    HW249958   8.120   1.689   0.430 -0.9981 -2.2344  0.6479
16296SOL     OW49959   5.297   3.200   7.940  0.3445 -0.0569  0.0887
16296SOL    HW149960   5.310   3.293   7.918  0.2759  0.6054  2.5185
16296SOL    HW249961   5.286   3.200   8.036 -2.6709 -2.2315 -0.1130
16297SOL     OW49962   4.024   2.804   4.025 -0.4067 -0.3862  0.4355
16297SOL    HW149963   3.938   2.762   4.025 -0.1970 -0.8314 -0.2590
16297SOL    HW249964   4.047   2.811   4.117 -1.0621 -0.5195  0.6198
16298SOL     OW49965   7.376   1.731   4.478 -0.4599  0.3938 -0.3428
16298SOL    HW149966   7.394   1.769   4.564  0.2850  1.2029 -0.8455
16298SOL    HW249967   7.361   1.638   4.496  1.6197  0.1669  0.4294
16299SOL     OW49968   6.111   1.634   1.874 -0.6022 -0.2758 -0.6047
16299SOL    HW149969   6.052   1.563   1.899  0.2247 -1.7808 -2.6962
16299SOL    HW249970   6.064   1.683   1.807 -1.0725  1.0895  0.6539
16300SOL     OW49971   2.060   0.338   4.465  0.6992  0.4792 -0.1491
16300SOL    HW149972   1.989   0.401   4.454  0.5786 -0.0630 -3.1804
16300SOL    HW249973   2.015   0.255   4.482  0.7808  0.6976  1.2742
16301SOL     OW49974   7.003   2.551   2.325 -0.1667  0.2211  0.6025
16301SOL    HW149975   7.035   2.529   2.413  0.6191 -0.6200  0.1192
16301SOL    HW249976   7.021   2.645   2.317  1.5347 -0.0674  0.6434
16302SOL     OW49977   6.730   1.816   2.419  0.5078  0.1195  0.5737
16302SOL    HW149978   6.647   1.798   2.376  0.2467  2.3375  0.0186
16302SOL    HW249979   6.789   1.842   2.348  2.3607 -3.2330  0.6735
16303SOL     OW49980   2.381   1.439   3.883  0.5996  0.4650 -0.0597
16303SOL    HW149981   2.330   1.383   3.942 -0.0733  1.3797  0.2554
16303SOL    HW249982   2.331   1.442   3.802 -0.0472  1.6209  0.3569
16304SOL     OW49983   5.735   4.670   0.012  0.0217  0.0950  0.2425
16304SOL    HW149984   5.651   4.639   0.047 -0.0789 -1.5664 -1.3150
16304SOL    HW249985   5.712   4.715  -0.069  0.6521 -0.9064 -0.5120
16305SOL     OW49986   1.706   2.310   1.566  0.5574  0.0043 -0.2905
16305SOL    HW149987   1.665   2.377   1.511 -0.1220  0.1039  0.3203
16305SOL    HW249988   1.787   2.288   1.520  0.6727  1.0599 -0.6380
16306SOL     OW49989   3.987   3.066   4.580 -0.0389 -0.2293  1.0748
16306SOL    HW149990   4.014   3.157   4.593 -0.6922  0.2428 -0.5255
16306SOL    HW249991   4.062   3.024   4.539  0.2971 -0.4514  1.9003
16307SOL     OW49992   6.513   6.996   2.080 -0.0015 -0.1131  0.3007
16307SOL    HW149993   6.539   7.011   1.988  2.6486 -0.7164  0.8540
16307SOL    HW249994   6.481   6.906   2.081 -1.4248  0.3594 -0.2541
16308SOL     OW49995   5.908   3.894   6.488 -0.2302  0.1092 -0.0856
16308SOL    HW149996   6.000   3.878   6.511 -0.3079  0.3214  0.3797
16308SOL    HW249997   5.885   3.974   6.535 -0.1028  1.1355 -1.6915
16309SOL     OW49998   3.100   5.659   6.058 -0.4692 -0.2030  0.1563
16309SOL    HW149999   3.133   5.592   5.997 -2.0724 -2.0037  1.1763
16309SOL    HW250000   3.012   5.677   6.027 -0.3576  0.8242  0.4234
16310SOL     OW50001   4.543   3.509   7.878 -0.0228  0.1649  0.2442
16310SOL    HW150002   4.466   3.453   7.873 -0.8353  1.3758 -1.4307
16310SOL    HW250003   4.587   3.481   7.959 -2.2569 -0.4704  1.3108
16311SOL     OW50004   0.327   3.621   0.554  0.2916  0.0121 -0.2497
16311SOL    HW150005   0.308   3.570   0.632 -0.6610 -1.0456 -1.1276
16311SOL    HW250006   0.368   3.558   0.494  1.3926  0.9069 -0.4669
16312SOL     OW50007   5.414   5.123   5.839  0.1711  0.5067  0.5503
16312SOL    HW150008   5.336   5.140   5.786  1.4401 -0.6005 -1.8250
16312SOL    HW250009   5.391   5.047   5.893 -0.4948  0.4171  0.1514
16313SOL     OW50010   3.893   3.297   5.572 -0.2373  0.0836 -0.3922
16313SOL    HW150011   3.843   3.361   5.622 -0.4357 -0.4057  0.0487
16313SOL    HW250012   3.862   3.307   5.482 -1.4050 -0.4566 -0.0683
16314SOL     OW50013   7.719   3.178   2.184  0.6095  0.0173 -0.8142
16314SOL    HW150014   7.793   3.232   2.212  0.4299 -0.3083  0.3580
16314SOL    HW250015   7.756   3.091   2.171  0.5727  0.0244 -0.9684
16315SOL     OW50016   4.619   4.168   1.663 -0.2893 -0.0896  0.0129
16315SOL    HW150017   4.701   4.134   1.700 -0.4639 -0.7860 -0.2190
16315SOL    HW250018   4.647   4.236   1.602  0.0964 -0.1092  0.1653
16316SOL     OW50019   2.542   4.097   6.179 -0.2596 -0.7338  0.5918
16316SOL    HW150020   2.474   4.106   6.112 -0.8730  0.6877  1.3621
16316SOL    HW250021   2.620   4.135   6.139 -0.7179  0.4480  0.8017
16317SOL     OW50022   1.118   6.192   1.734  0.3701  0.2359  0.2743
16317SOL    HW150023   1.197   6.139   1.734  0.5221  0.3081 -2.2297
16317SOL    HW250024   1.142   6.270   1.684 -1.4895 -0.1779 -1.4036
16318SOL     OW50025   2.803   1.931   6.697  0.4531  0.7343  0.5237
16318SOL    HW150026   2.718   1.923   6.656  0.3925 -0.1945  0.7923
16318SOL    HW250027   2.865   1.941   6.624  0.1998  0.5805  0.2879
16319SOL     OW50028   5.149   3.262   7.206  0.0830  0.0140 -0.6001
16319SOL    HW150029   5.077   3.306   7.251 -1.3352 -1.6746 -1.1177
16319SOL    HW250030   5.176   3.192   7.265 -1.2475 -1.7007 -1.8982
16320SOL     OW50031   3.029   3.316   2.832  0.7885 -0.0319  0.0543
16320SOL    HW150032   3.071   3.316   2.746  0.3925  0.1931 -0.1409
16320SOL    HW250033   3.065   3.393   2.877  1.2483 -0.3371  0.2200
16321SOL     OW50034   5.455   0.649   6.090  0.5193  0.8202 -0.2640
16321SOL    HW150035   5.491   0.732   6.122 -0.0207  0.7894  0.4516
16321SOL    HW250036   5.517   0.583   6.121  0.3477  0.8555  0.1698
16322SOL     OW50037   1.844   2.067   6.909  0.4015 -0.1601 -0.0276
16322SOL    HW150038   1.865   1.996   6.970 -1.1741 -0.1345  0.5867
16322SOL    HW250039   1.914   2.131   6.921  0.9755 -0.8867  0.5772
16323SOL     OW50040   4.805   5.279   5.440  0.3723 -0.6308 -0.1498
16323SOL    HW150041   4.840   5.236   5.363 -0.1266  1.6930 -1.7904
16323SOL    HW250042   4.711   5.265   5.435  0.3675 -0.7601  0.2448
16324SOL     OW50043   3.646   4.697   3.219  0.2621 -0.2681  0.2158
16324SOL    HW150044   3.624   4.701   3.312  0.6572 -1.6722  0.3956
16324SOL    HW250045   3.742   4.689   3.218  0.1068 -5.2560  0.0258
16325SOL     OW50046   4.557   0.335   7.531 -0.6150  0.2411  0.1651
16325SOL    HW150047   4.631   0.295   7.577  0.8214  0.4870 -1.7972
16325SOL    HW250048   4.499   0.262   7.510 -0.5655 -0.0652  1.0484
16326SOL     OW50049   1.961   6.941   1.544  0.3021 -0.3630  0.1138
16326SOL    HW150050   1.937   7.006   1.610 -0.6352 -0.9891  0.4197
16326SOL    HW250051   1.995   6.991   1.470 -0.5518  0.4695  0.2834
16327SOL     OW50052   3.395   7.579   7.458  0.3027  0.0030 -0.0787
16327SOL    HW150053   3.460   7.643   7.428  0.3830  0.1894  0.4871
16327SOL    HW250054   3.354   7.548   7.377 -0.4300  1.4950 -0.3109
16328SOL     OW50055   5.923   6.613   6.098  0.1061 -0.2022 -0.3171
16328SOL    HW150056   5.945   6.704   6.077  0.2727 -0.4852 -1.4256
16328SOL    HW250057   5.830   6.605   6.078  0.1394 -0.3264 -0.4272
16329SOL     OW50058   4.428   7.366   7.849 -0.2046 -0.2028 -0.0711
16329SOL    HW150059   4.340   7.328   7.851 -0.9157  1.3671  0.3802
16329SOL    HW250060   4.432   7.420   7.927  0.3017  1.5509 -1.2500
16330SOL     OW50061   0.927   1.863   3.320  0.3115  0.0468 -0.2790
16330SOL    HW150062   0.879   1.943   3.301 -0.5022 -0.4152 -0.2406
16330SOL    HW250063   0.893   1.834   3.405  0.4634 -0.4268 -0.3743
16331SOL     OW50064   6.944   1.872   7.627  0.1572  0.3178 -0.5502
16331SOL    HW150065   6.922   1.779   7.615 -0.7357  0.6442 -1.6328
16331SOL    HW250066   6.920   1.891   7.717 -0.3255 -0.3392 -0.5332
16332SOL     OW50067   7.272   2.445   3.560  0.2839  0.4426 -0.5783
16332SOL    HW150068   7.197   2.503   3.546  0.2290  0.6220  0.3487
16332SOL    HW250069   7.344   2.488   3.515  0.2809  1.3517  0.2337
16333SOL     OW50070   6.793   0.525   6.252  0.1079 -0.0517  0.2394
16333SOL    HW150071   6.813   0.608   6.293 -1.6016  0.3836  0.2706
16333SOL    HW250072   6.727   0.485   6.308 -2.3594  0.5862 -2.0095
16334SOL     OW50073   2.778   6.274   7.060 -0.3961  0.1978  0.4242
16334SOL    HW150074   2.831   6.196   7.041 -0.6710  0.4229 -1.3891
16334SOL    HW250075   2.777   6.323   6.978 -2.8429  0.5429  0.6121
16335SOL     OW50076   4.889   6.581   1.893 -0.6642  0.5134  0.6919
16335SOL    HW150077   4.894   6.605   1.985  0.4104  1.7631  0.3403
16335SOL    HW250078   4.934   6.652   1.847  0.8169 -1.1805 -0.6147
16336SOL     OW50079   4.097   1.064   6.585 -0.2417 -0.0680  0.7644
16336SOL    HW150080   4.173   1.024   6.542 -0.6482 -1.2325  1.0742
16336SOL    HW250081   4.120   1.156   6.594  0.4413 -0.0797 -0.6470
16337SOL     OW50082   7.125   5.833   0.812  0.3299 -0.2376 -0.3209
16337SOL    HW150083   7.029   5.834   0.815  0.3191 -0.2025 -0.6250
16337SOL    HW250084   7.152   5.867   0.897  0.0695 -0.0080 -0.3265
16338SOL     OW50085   2.548   7.032   6.611  0.4662 -0.1817 -0.6994
16338SOL    HW150086   2.592   7.114   6.590 -0.7347  0.5613 -0.4336
16338SOL    HW250087   2.467   7.034   6.559 -0.6491 -0.1382  0.9426
16339SOL     OW50088   0.940   6.947   5.345  0.2388  0.0161 -0.6456
16339SOL    HW150089   0.896   7.027   5.375 -0.4575 -0.4045 -0.5268
16339SOL    HW250090   0.878   6.877   5.365  0.6768 -0.5095 -1.1140
16340SOL     OW50091   2.119   7.936   5.375  0.1194 -0.4881  0.2631
16340SOL    HW150092   2.074   7.862   5.335 -0.0822  0.5102 -1.4326
16340SOL    HW250093   2.158   7.899   5.454 -0.9803 -2.1161  0.1111
16341SOL     OW50094   3.056   3.190   6.617 -0.0869 -0.2287  0.1254
16341SOL    HW150095   3.006   3.108   6.609  0.2081 -0.2875 -1.9122
16341SOL    HW250096   3.135   3.165   6.664 -0.4300 -0.9079  0.3548
16342SOL     OW50097   0.870   0.377   4.373 -0.3548 -0.8039 -0.0921
16342SOL    HW150098   0.889   0.332   4.291 -2.4746  2.2261 -2.4637
16342SOL    HW250099   0.790   0.335   4.405 -0.1180 -1.2830 -0.1104
16343SOL     OW50100   0.372   7.741   5.155 -0.4104  0.2876  0.6575
16343SOL    HW150101   0.449   7.740   5.097 -0.2224 -0.0098  0.9074
16343SOL    HW250102   0.408   7.760   5.242 -0.7994  1.7061  0.5357
16344SOL     OW50103   7.828   4.111   2.257  0.6781  0.7161 -0.3681
16344SOL    HW150104   7.847   4.199   2.289  1.6174  0.6467 -0.7005
16344SOL    HW250105   7.862   4.110   2.167  0.8824 -0.0516 -0.2914
16345SOL     OW50106   2.766   0.872   4.580 -0.6457 -0.2828  0.3551
16345SOL    HW150107   2.854   0.899   4.554 -0.1217 -1.1276  1.1899
16345SOL    HW250108   2.708   0.920   4.521  0.4065 -0.4210 -0.8259
16346SOL     OW50109   6.543   5.522   0.142  0.0870  0.1767  1.1826
16346SOL    HW150110   6.451   5.506   0.164 -0.8337  2.3479 -0.6888
16346SOL    HW250111   6.583   5.548   0.225 -1.5184  1.2335  1.6766
16347SOL     OW50112   6.124   0.825   2.761 -0.5873 -0.4203  0.1121
16347SOL    HW150113   6.209   0.837   2.720  0.4096 -0.4832  2.0649
16347SOL    HW250114   6.108   0.907   2.809 -0.0856 -1.5711  2.3765
16348SOL     OW50115   2.637   5.576   6.364  0.1893  0.0194  0.2299
16348SOL    HW150116   2.557   5.548   6.319  0.4471 -1.9539  0.8692
16348SOL    HW250117   2.708   5.532   6.316  0.5377 -1.4364  1.9312
16349SOL     OW50118   4.493   1.553   2.205  0.0294  0.0986  0.3467
16349SOL    HW150119   4.403   1.572   2.233 -0.1733 -1.9832  1.3606
16349SOL    HW250120   4.548   1.593   2.271 -0.1204  1.5761 -0.3982
16350SOL     OW50121   0.878   0.055   3.040 -0.5947  0.4155  0.4470
16350SOL    HW150122   0.865  -0.028   2.993 -1.6263  1.6059 -1.4639
16350SOL    HW250123   0.960   0.043   3.087  0.1007 -1.1203 -1.0711
16351SOL     OW50124   6.282   4.962   1.288 -0.0995 -0.0947 -0.3628
16351SOL    HW150125   6.226   4.899   1.333 -0.0766  0.4802  0.5021
16351SOL    HW250126   6.370   4.943   1.321  0.0211 -0.1316 -0.7073
16352SOL     OW50127   4.335   5.866   2.580  0.0819  0.3545  0.2094
16352SOL    HW150128   4.414   5.919   2.570  0.6692 -0.7444 -1.3390
16352SOL    HW250129   4.277   5.920   2.633  1.1569  1.9769 -0.1834
16353SOL     OW50130   4.161   4.091   4.000 -0.6874 -0.3582  0.3012
16353SOL    HW150131   4.149   4.155   3.929  0.4360 -0.1693  0.2630
16353SOL    HW250132   4.101   4.020   3.978 -0.6670 -0.1091 -0.6240
16354SOL     OW50133   1.236   6.033   5.559 -0.1453  0.4040  0.3257
16354SOL    HW150134   1.255   5.952   5.605 -0.6143 -0.2804 -0.6435
16354SOL    HW250135   1.317   6.054   5.512 -0.5287 -0.4210 -0.7400
16355SOL     OW50136   1.993   1.852   5.720 -0.3040  0.2571 -0.4375
16355SOL    HW150137   1.943   1.933   5.726 -0.5400  0.0212  1.7200
16355SOL    HW250138   1.929   1.783   5.738  0.4898 -0.1275  1.1573
16356SOL     OW50139   7.148   8.081   2.307  0.2934  0.4905 -0.2111
16356SOL    HW150140   7.244   8.092   2.308  0.1501  2.2160 -1.0549
16356SOL    HW250141   7.119   8.116   2.391  0.4823 -1.2318  0.5967
16357SOL     OW50142   5.129   6.609   2.248  0.1964 -0.0179  0.2006
16357SOL    HW150143   5.134   6.524   2.206  0.4002  0.0560  0.0746
16357SOL    HW250144   5.123   6.590   2.342  3.7439 -0.1364  0.5379
16358SOL     OW50145   4.982   0.903   2.312  0.6357  0.2313  0.1086
16358SOL    HW150146   4.887   0.900   2.297  0.6493 -1.5289  0.2366
16358SOL    HW250147   5.001   0.996   2.323 -0.9766  0.6776 -0.5363
16359SOL     OW50148   5.244   7.643   5.333 -0.1616 -0.1113 -0.0435
16359SOL    HW150149   5.221   7.565   5.282 -1.1375 -0.4738  0.8988
16359SOL    HW250150   5.162   7.692   5.339  0.2403  0.5392  0.1224
16360SOL     OW50151   0.698   0.987   5.176 -0.1774 -0.3698 -0.3451
16360SOL    HW150152   0.707   0.910   5.231  0.2554 -1.3997 -1.7873
16360SOL    HW250153   0.603   1.001   5.169 -0.2453 -0.5124  0.2471
16361SOL     OW50154   1.835   1.373   6.431 -0.5718 -0.0851  0.1998
16361SOL    HW150155   1.890   1.449   6.451  0.4089 -1.0434  1.2126
16361SOL    HW250156   1.776   1.365   6.505 -0.9256 -0.1050 -0.0789
16362SOL     OW50157   7.179   2.056   3.303 -0.0453  0.4917 -0.6084
16362SOL    HW150158   7.203   2.108   3.380 -3.1711  1.0534  0.1185
16362SOL    HW250159   7.180   2.119   3.231 -3.3805  1.6717  0.1945
16363SOL     OW50160   3.786   4.562   5.379 -0.3443  0.5171 -0.0298
16363SOL    HW150161   3.729   4.611   5.437 -0.2867 -0.4142  0.8331
16363SOL    HW250162   3.729   4.498   5.336 -0.2903  0.8475 -0.6049
16364SOL     OW50163   2.516   6.197   3.310  0.0962  0.0345 -0.0776
16364SOL    HW150164   2.595   6.197   3.255  0.1258 -2.3064 -0.1377
16364SOL    HW250165   2.486   6.288   3.309  1.5969  0.5700 -1.7904
16365SOL     OW50166   7.425   2.196   4.815 -0.4394  0.5586 -0.0540
16365SOL    HW150167   7.340   2.224   4.782 -1.1121  0.0078  1.1425
16365SOL    HW250168   7.405   2.130   4.881  0.9805 -0.6373 -0.7446
16366SOL     OW50169   3.152   8.043   5.627 -0.3539  0.6209  0.1649
16366SOL    HW150170   3.147   8.118   5.687 -0.1314  1.1992 -0.5315
16366SOL    HW250171   3.245   8.036   5.606 -0.2841 -0.2374  0.6993
16367SOL     OW50172   3.605   6.856   1.933 -0.0486  0.1782 -0.0243
16367SOL    HW150173   3.615   6.860   1.838 -0.3637 -1.1141 -0.1254
16367SOL    HW250174   3.694   6.854   1.967  0.1630  3.3827 -0.0989
16368SOL     OW50175   0.536   0.049   5.956 -0.5340 -0.1348 -0.1454
16368SOL    HW150176   0.614   0.074   5.908 -0.2356 -1.3951 -0.3489
16368SOL    HW250177   0.467   0.107   5.922 -0.2065 -0.6067 -1.6751
16369SOL     OW50178   7.383   3.780   5.046 -0.3482 -0.0540 -0.0742
16369SOL    HW150179   7.403   3.692   5.080 -0.3487  0.0626  0.2337
16369SOL    HW250180   7.362   3.766   4.954 -0.3140 -0.3738 -0.0349
16370SOL     OW50181   3.033   4.881   8.125  0.1255 -0.3150 -0.5506
16370SOL    HW150182   3.063   4.843   8.042  0.5960 -2.5136  0.5541
16370SOL    HW250183   3.056   4.816   8.191 -1.9452  0.5142  1.0961
16371SOL     OW50184   5.573   1.621   3.033 -0.1962 -0.2301 -0.0189
16371SOL    HW150185   5.584   1.690   3.098  2.0178 -1.5389  1.1173
16371SOL    HW250186   5.485   1.587   3.049 -0.0907  0.1661  1.6163
16372SOL     OW50187   7.332   6.730   4.099 -0.0073 -0.1284  0.3224
16372SOL    HW150188   7.255   6.786   4.093  0.3252  0.2120 -1.5452
16372SOL    HW250189   7.366   6.726   4.009  1.2124 -1.5950  0.7936
16373SOL     OW50190   1.250   4.195   2.368  0.1892 -0.3775 -0.1332
16373SOL    HW150191   1.184   4.185   2.300  1.1546  0.9478 -1.3187
16373SOL    HW250192   1.243   4.286   2.396  0.1283 -0.7759  1.2419
16374SOL     OW50193   4.635   2.153   3.813 -0.4554 -0.0322 -0.2551
16374SOL    HW150194   4.596   2.200   3.739  1.6459  1.8215 -0.3197
16374SOL    HW250195   4.579   2.175   3.888 -0.6263  0.9959 -0.6682
16375SOL     OW50196   0.971   1.685   3.132  0.3168 -0.3736  0.0627
16375SOL    HW150197   0.954   1.742   3.207 -0.5021  1.4998 -1.4399
16375SOL    HW250198   1.050   1.721   3.092 -0.2318 -0.2136 -0.9266
16376SOL     OW50199   8.047   0.980   7.925  0.1655  0.4143  0.2907
16376SOL    HW150200   8.106   0.985   8.001  2.8923 -1.1470 -1.5281
16376SOL    HW250201   8.017   0.889   7.924  2.1476 -0.3129 -1.7296
16377SOL     OW50202   3.236   7.588   3.053 -0.0935  0.3249  0.2567
16377SOL    HW150203   3.155   7.542   3.078  0.1454 -0.5710 -0.5756
16377SOL    HW250204   3.287   7.523   3.006  1.6752  0.5206  1.8066
16378SOL     OW50205   2.956   2.914   0.376 -0.0254  0.2162 -0.1643
16378SOL    HW150206   2.941   2.853   0.449 -0.5849  1.2648  0.6359
16378SOL    HW250207   3.049   2.936   0.382 -0.1528  0.6079  0.5024
16379SOL     OW50208   0.524   3.492   4.977 -0.1701 -0.3267 -0.0066
16379SOL    HW150209   0.560   3.413   4.935  0.4240 -1.8403  3.0619
16379SOL    HW250210   0.594   3.557   4.970  1.2020 -1.5773  1.3238
16380SOL     OW50211   0.551   4.920   2.951  0.3584 -0.2128 -0.2870
16380SOL    HW150212   0.638   4.908   2.990  0.4903  0.2169 -0.4467
16380SOL    HW250213   0.561   4.994   2.891  0.1083 -0.7463 -1.0038
16381SOL     OW50214   0.117   2.133   0.547 -0.1644 -0.1129 -0.0172
16381SOL    HW150215   0.195   2.089   0.581 -0.5630 -1.3318 -0.5910
16381SOL    HW250216   0.080   2.070   0.485 -1.6596  0.3787  0.3301
16382SOL     OW50217   0.685   5.396   2.063 -0.1526 -0.0921  0.4547
16382SOL    HW150218   0.697   5.395   1.968  1.2457  2.9376  0.4849
16382SOL    HW250219   0.593   5.372   2.076 -0.1867 -1.2618 -1.5633
16383SOL     OW50220   1.162   0.449   6.906  0.5893  0.0489  0.0366
16383SOL    HW150221   1.153   0.528   6.854 -1.4492 -1.2269 -1.7267
16383SOL    HW250222   1.097   0.459   6.976  0.9129  0.2777  0.3067
16384SOL     OW50223   7.000   2.332   2.536 -0.6318  0.2644 -0.0109
16384SOL    HW150224   6.981   2.240   2.558 -0.9448  0.1441 -0.7522
16384SOL    HW250225   6.920   2.363   2.492 -0.0858  0.5276 -0.8488
16385SOL     OW50226   1.543   1.756   7.698  0.2237 -0.2032  0.2368
16385SOL    HW150227   1.525   1.836   7.649 -2.8058 -1.8326 -1.6287
16385SOL    HW250228   1.594   1.702   7.637 -1.0430 -1.1134 -0.0458
16386SOL     OW50229   8.065   2.097   7.691 -0.3271 -0.1456 -0.1178
16386SOL    HW150230   7.983   2.098   7.742  0.4809 -0.6651  1.2353
16386SOL    HW250231   8.073   2.007   7.659 -0.0306 -0.2303  0.1890
16387SOL     OW50232   3.305   7.185   4.482  0.1899  0.0704  0.0024
16387SOL    HW150233   3.254   7.241   4.424  0.7767  1.4310  0.7648
16387SOL    HW250234   3.333   7.112   4.426 -0.7934  0.3866 -0.9422
16388SOL     OW50235   4.258   0.219   7.960 -0.0504 -0.2175 -0.1016
16388SOL    HW150236   4.307   0.287   8.005  0.5081 -0.6081 -0.1179
16388SOL    HW250237   4.249   0.149   8.024  0.9888 -0.8892 -0.6716
16389SOL     OW50238   3.174   4.384   0.635  0.0097 -0.0303 -0.7467
16389SOL    HW150239   3.097   4.416   0.587 -0.4370  0.5803  0.3608
16389SOL    HW250240   3.246   4.440   0.605 -0.3199  0.5226 -0.5258
16390SOL     OW50241   0.134   5.759   7.081  0.2392 -0.3106 -0.6207
16390SOL    HW150242   0.225   5.737   7.100  1.2806  2.3445 -2.0121
16390SOL    HW250243   0.101   5.797   7.162  0.8980  0.2284 -0.6003
16391SOL     OW50244   1.187   6.602   1.143  1.0667  0.4588  1.0873
16391SOL    HW150245   1.101   6.643   1.152  0.5449 -0.7502  1.9604
16391SOL    HW250246   1.249   6.675   1.146  0.0322  1.7036 -2.5198
16392SOL     OW50247   8.121   6.098   5.629 -0.0082 -0.2014  0.3119
16392SOL    HW150248   8.203   6.051   5.614 -0.5731 -1.0068 -0.3669
16392SOL    HW250249   8.089   6.066   5.713 -0.7528 -1.6161 -0.4778
16393SOL     OW50250   6.710   4.257   1.469  0.1641  0.0418  0.0755
16393SOL    HW150251   6.642   4.265   1.401 -0.6564  1.9330  1.0435
16393SOL    HW250252   6.667   4.288   1.549  1.8684  0.2938  0.9279
16394SOL     OW50253   3.156   6.461   2.398  0.0277  0.4787  0.2666
16394SOL    HW150254   3.068   6.475   2.432 -0.1468 -0.6799  0.3379
16394SOL    HW250255   3.144   6.397   2.327  0.4526  2.3921 -1.6401
16395SOL     OW50256   4.969   3.580   5.370  0.4685 -0.5371 -0.4445
16395SOL    HW150257   5.050   3.629   5.378 -0.8690  1.4972  4.0993
16395SOL    HW250258   4.974   3.514   5.440 -1.5056 -0.6904 -0.3796
16396SOL     OW50259   3.872   5.089   2.120 -0.2984  0.6696 -0.5628
16396SOL    HW150260   3.808   5.127   2.059 -0.4686 -1.7580 -2.0013
16396SOL    HW250261   3.952   5.078   2.067  0.0114 -0.1076  0.0537
16397SOL     OW50262   6.508   0.604   7.738  0.1013  0.6753  0.3952
16397SOL    HW150263   6.459   0.668   7.789  1.0958  0.7170  1.3249
16397SOL    HW250264   6.447   0.576   7.670 -0.4671  2.3405  0.1807
16398SOL     OW50265   7.943   2.718   4.470 -0.0179 -0.0543 -0.0238
16398SOL    HW150266   7.870   2.691   4.526  0.0738  0.1420  0.1906
16398SOL    HW250267   7.988   2.636   4.450 -0.7888 -0.2940 -0.8635
16399SOL     OW50268   5.853   7.428   5.115  0.5977 -0.6820  0.2991
16399SOL    HW150269   5.836   7.419   5.021 -1.4927 -3.5435  0.8242
16399SOL    HW250270   5.894   7.514   5.123 -1.7586  0.9667 -2.8740
16400SOL     OW50271   7.762   2.912   7.142  0.4129 -0.1416  0.0770
16400SOL    HW150272   7.741   2.838   7.200  0.6451 -0.1987  0.0899
16400SOL    HW250273   7.698   2.979   7.166 -0.2585 -0.5866 -0.4290
16401SOL     OW50274   6.021   7.128   6.916 -0.1626  0.4043  0.0404
16401SOL    HW150275   5.962   7.052   6.917  2.0818 -1.4431  0.6861
16401SOL    HW250276   6.055   7.133   7.005 -0.9185  2.8335  0.2835
16402SOL     OW50277   4.670   1.771   4.282 -0.4654 -0.9748  0.0161
16402SOL    HW150278   4.686   1.711   4.209  1.2643 -1.2952  0.6075
16402SOL    HW250279   4.729   1.741   4.351 -0.9853  0.2232  1.0145
16403SOL     OW50280   6.687   1.392   0.357 -0.5061  0.4710 -0.1973
16403SOL    HW150281   6.729   1.313   0.392  1.4432  1.2173 -0.7455
16403SOL    HW250282   6.640   1.361   0.279 -2.0776 -0.5953  1.1034
16404SOL     OW50283   4.325   6.750   1.728 -0.1890 -0.2627 -0.3833
16404SOL    HW150284   4.413   6.712   1.735  0.4225  1.0379 -0.7472
16404SOL    HW250285   4.327   6.800   1.647 -1.1526  0.0918 -0.1997
16405SOL     OW50286   6.778   5.370   4.785 -0.1508 -0.0010  0.2843
16405SOL    HW150287   6.843   5.370   4.714  0.2413  2.0305  0.5757
16405SOL    HW250288   6.724   5.294   4.767  0.8769 -0.4133 -1.3336
16406SOL     OW50289   0.786   2.501   4.131  0.0382  0.0353  0.0505
16406SOL    HW150290   0.765   2.474   4.041  1.2546  1.6546 -0.8006
16406SOL    HW250291   0.878   2.476   4.142 -0.1235 -0.1953  0.8658
16407SOL     OW50292   1.042   0.966   6.659 -0.0054  0.0282 -0.2906
16407SOL    HW150293   1.127   0.998   6.691  0.7259 -1.3784 -0.7748
16407SOL    HW250294   0.993   0.946   6.739  0.6100 -0.3834 -0.0080
16408SOL     OW50295   5.213   4.165   2.689 -0.1520 -0.2887  0.0250
16408SOL    HW150296   5.136   4.194   2.639 -0.9555  0.0069  1.3797
16408SOL    HW250297   5.272   4.129   2.623 -0.1989  2.0767 -1.4255
16409SOL     OW50298   2.588   6.263   6.723 -0.0230 -0.0893 -0.2858
16409SOL    HW150299   2.581   6.245   6.629 -0.5172 -1.4739 -0.0208
16409SOL    HW250300   2.679   6.243   6.745 -0.2844 -1.2754 -0.2106
16410SOL     OW50301   6.507   0.050   1.807 -0.2502 -0.3959  0.2968
16410SOL    HW150302   6.435   0.048   1.870 -1.2362  2.1291 -0.6181
16410SOL    HW250303   6.577   0.000   1.848 -1.5480 -0.5362  2.4691
16411SOL     OW50304   7.307   3.709   7.032 -0.1461 -0.1368  0.0305
16411SOL    HW150305   7.361   3.743   7.103 -0.7476 -0.4561  0.6518
16411SOL    HW250306   7.363   3.715   6.954  0.5468  0.1390  0.5403
16412SOL     OW50307   2.223   4.303   0.561 -0.0590  0.5563 -0.2846
16412SOL    HW150308   2.270   4.238   0.613  0.2023  1.3702  0.5273
16412SOL    HW250309   2.131   4.288   0.579 -0.0694 -0.3339 -1.0191
16413SOL     OW50310   5.365   2.677   7.116  0.0585  0.4139  0.2774
16413SOL    HW150311   5.315   2.707   7.040  2.0601 -0.0975 -1.3623
16413SOL    HW250312   5.380   2.584   7.099  0.6498  0.3180  1.2389
16414SOL     OW50313   7.107   4.494   4.081  0.2360 -0.1563 -0.0666
16414SOL    HW150314   7.144   4.407   4.098  1.4372  0.5023  0.8477
16414SOL    HW250315   7.143   4.518   3.995  0.2137 -0.4009 -0.1465
16415SOL     OW50316   1.552   7.246   4.576 -0.1418  0.5451  0.6458
16415SOL    HW150317   1.612   7.208   4.512  0.1777  2.4897 -0.2882
16415SOL    HW250318   1.598   7.237   4.660  0.6380  0.3635  0.2100
16416SOL     OW50319   5.133   3.037   1.256 -0.3523 -0.1488 -0.2666
16416SOL    HW150320   5.081   3.117   1.268 -0.3863 -0.3474  1.0254
16416SOL    HW250321   5.091   2.973   1.314  0.2149 -0.8457 -0.6208
16417SOL     OW50322   5.671   4.464   1.186 -0.8870  0.1080  0.1459
16417SOL    HW150323   5.645   4.518   1.111  0.3966 -0.5382 -0.7905
16417SOL    HW250324   5.598   4.403   1.198 -0.3967 -0.9291 -1.7127
16418SOL     OW50325   4.020   0.404   1.216  0.0958  0.3338 -0.4420
16418SOL    HW150326   4.078   0.347   1.165 -1.0043 -0.9634 -0.3073
16418SOL    HW250327   3.993   0.472   1.155 -2.2772 -1.9378 -2.1400
16419SOL     OW50328   3.440   1.424   6.566 -0.7037 -0.4711  0.1307
16419SOL    HW150329   3.382   1.462   6.501 -0.3536  1.3397  0.8303
16419SOL    HW250330   3.395   1.438   6.650  0.5607  0.6573  0.6496
16420SOL     OW50331   6.260   3.952   5.798  0.4810  0.2409 -0.1145
16420SOL    HW150332   6.343   3.906   5.806  0.8539  1.1051  1.2838
16420SOL    HW250333   6.230   3.932   5.709  3.2786  1.7330 -1.5288
16421SOL     OW50334   0.109   2.323   5.611 -0.5095  0.1635  0.7102
16421SOL    HW150335   0.069   2.264   5.548 -0.4648  0.2788  0.5751
16421SOL    HW250336   0.049   2.397   5.616 -0.9076 -0.1937  1.3759
16422SOL     OW50337   6.890   7.424   5.547 -0.2144 -0.5549 -0.5871
16422SOL    HW150338   6.966   7.415   5.605  0.1523 -1.9532 -1.2521
16422SOL    HW250339   6.928   7.446   5.462 -0.6703  0.2070 -0.6066
16423SOL     OW50340   5.809   6.504   2.238  0.7702 -0.2622 -0.0036
16423SOL    HW150341   5.777   6.450   2.166  0.3424 -0.8823  0.6387
16423SOL    HW250342   5.757   6.477   2.314  0.8557  0.7362  0.4321
16424SOL     OW50343   5.017   4.252   7.567 -0.1753  0.5626 -0.2784
16424SOL    HW150344   4.996   4.324   7.508 -0.2282  2.1696  1.6257
16424SOL    HW250345   5.038   4.293   7.650 -0.5795 -1.6343  1.0055
16425SOL     OW50346   6.507   3.177   4.974 -0.4190  0.1827  0.7550
16425SOL    HW150347   6.529   3.094   4.931  0.1696  0.1250  1.1433
16425SOL    HW250348   6.497   3.240   4.902  1.1466  0.2309  0.5303
16426SOL     OW50349   3.789   4.272   4.161 -0.1237 -0.4899  0.4085
16426SOL    HW150350   3.788   4.291   4.255  0.1515  2.4026 -0.0828
16426SOL    HW250351   3.726   4.334   4.123  1.2966 -0.1201 -1.4993
16427SOL     OW50352   1.610   0.366   7.197  0.1310  0.5653  0.3214
16427SOL    HW150353   1.691   0.340   7.241  0.8715  0.9376 -0.7855
16427SOL    HW250354   1.576   0.439   7.250  0.9009  0.8851  0.3796
16428SOL     OW50355   4.380   4.338   5.555  0.1975 -0.2722  0.1221
16428SOL    HW150356   4.391   4.311   5.646 -0.2140  0.0390  0.2649
16428SOL    HW250357   4.288   4.363   5.548  0.4402  0.5822 -0.1444
16429SOL     OW50358   2.000   2.324   1.253 -0.3599  0.3860  0.4174
16429SOL    HW150359   1.995   2.405   1.304  3.2600  1.0142  0.0886
16429SOL    HW250360   1.960   2.346   1.169 -0.6058  1.3988  0.7855
16430SOL     OW50361   3.288   2.496   7.580 -0.2338  0.2476  0.2920
16430SOL    HW150362   3.361   2.475   7.522  0.5416  1.5050  0.7905
16430SOL    HW250363   3.279   2.419   7.636 -0.1269 -0.4281 -0.5966
16431SOL     OW50364   8.114   5.874   0.492  0.0169  0.0824 -0.6842
16431SOL    HW150365   8.065   5.956   0.494  1.6902  1.2075 -2.4180
16431SOL    HW250366   8.191   5.891   0.545 -0.2741 -0.8709  0.0774
16432SOL     OW50367   0.810   6.553   0.224 -0.1646 -0.1308 -0.9613
16432SOL    HW150368   0.825   6.620   0.157 -1.3845  0.6175 -0.5086
16432SOL    HW250369   0.730   6.509   0.197 -0.1424 -0.4656 -0.4928
16433SOL     OW50370   0.276   2.996   2.007  0.0110 -0.1672  0.3896
16433SOL    HW150371   0.296   2.931   1.940 -0.9039  0.3582 -0.4297
16433SOL    HW250372   0.356   3.050   2.013 -0.1737  0.2791 -0.8861
16434SOL     OW50373   6.609   6.522   0.546 -0.2604 -0.5212 -0.0159
16434SOL    HW150374   6.681   6.472   0.584  0.3859  0.5215  0.1731
16434SOL    HW250375   6.652   6.582   0.484 -0.8817  0.5780  0.5907
16435SOL     OW50376   7.262   5.487   6.283  0.1577  0.0905 -0.7110
16435SOL    HW150377   7.333   5.425   6.269  0.8815  0.8216 -0.3776
16435SOL    HW250378   7.306   5.570   6.302 -0.7799  0.4161  0.1420
16436SOL     OW50379   7.907   3.120   2.866  0.2656 -0.4995  0.4726
16436SOL    HW150380   7.945   3.201   2.899  0.4928 -1.2002  1.9837
16436SOL    HW250381   7.971   3.052   2.888  0.9867 -0.9148 -2.4209
16437SOL     OW50382   0.150   4.831   5.021  0.0566  0.2808  0.1037
16437SOL    HW150383   0.081   4.801   4.961  0.6408  0.0528 -0.4632
16437SOL    HW250384   0.117   4.810   5.108 -1.1432  1.2896 -0.0668
16438SOL     OW50385   0.052   3.612   1.099 -0.2615 -0.4831  0.1383
16438SOL    HW150386   0.007   3.637   1.018  0.9372  0.3659 -0.2912
16438SOL    HW250387   0.087   3.525   1.082 -3.2330 -2.0043  1.1302
16439SOL     OW50388   3.394   7.911   4.732 -0.3985 -0.2167  0.0639
16439SOL    HW150389   3.401   7.821   4.699 -0.5349 -0.6763  1.2361
16439SOL    HW250390   3.308   7.941   4.702 -0.5103 -0.6107 -0.0200
16440SOL     OW50391   8.050   7.848   3.461  0.2174  0.1060 -0.0651
16440SOL    HW150392   7.969   7.806   3.490  1.0882 -1.8611 -0.2580
16440SOL    HW250393   8.070   7.913   3.529 -0.5446 -0.7147  0.9677
16441SOL     OW50394   1.996   2.271   6.989  0.5671  0.0833  0.4727
16441SOL    HW150395   1.992   2.360   7.023  0.8459 -0.5379  2.2801
16441SOL    HW250396   2.056   2.226   7.049  1.9990 -0.8560 -1.5548
16442SOL     OW50397   3.928   4.123   0.436 -0.6641 -0.4839 -0.2941
16442SOL    HW150398   3.979   4.188   0.388 -0.9683 -1.1866 -1.6228
16442SOL    HW250399   3.859   4.173   0.479 -0.6025  0.1318 -0.8923
16443SOL     OW50400   8.130   0.053   2.924  0.6602  0.0002 -0.2784
16443SOL    HW150401   8.174   0.104   2.857 -2.9147 -0.5268 -3.3608
16443SOL    HW250402   8.056   0.107   2.951  1.6539 -0.0724  2.9368
16444SOL     OW50403   2.035   3.522   3.432  0.1200 -0.1072 -0.2397
16444SOL    HW150404   1.993   3.455   3.486 -0.0458  1.6838  1.9820
16444SOL    HW250405   2.116   3.481   3.402 -0.0233 -1.3554  0.9730
16445SOL     OW50406   2.489   3.967   4.003 -0.6744 -0.3460  0.0066
16445SOL    HW150407   2.424   3.916   4.051 -2.8713  0.8530 -1.5152
16445SOL    HW250408   2.509   3.914   3.926 -0.7131 -0.2392 -0.0780
16446SOL     OW50409   7.247   2.323   4.431 -0.4788 -0.1285  0.1098
16446SOL    HW150410   7.339   2.346   4.415 -0.4468 -0.0743  0.3649
16446SOL    HW250411   7.241   2.317   4.526 -0.2364 -2.1906  0.0330
16447SOL     OW50412   4.458   2.056   3.515 -0.4725 -1.2967  0.3719
16447SOL    HW150413   4.431   2.119   3.449 -1.4631 -0.9130  1.1248
16447SOL    HW250414   4.381   2.043   3.570  1.0651  0.6421  3.2547
16448SOL     OW50415   3.675   6.968   3.878 -0.1343 -0.4831  0.3018
16448SOL    HW150416   3.752   6.937   3.829  0.2926  1.0956 -0.0686
16448SOL    HW250417   3.632   7.029   3.819 -0.3934  0.3914  1.3643
16449SOL     OW50418   0.463   3.408   7.733 -0.5303  0.4506  0.5657
16449SOL    HW150419   0.433   3.346   7.667 -0.9593 -0.9344  1.9872
16449SOL    HW250420   0.423   3.377   7.815  0.7009  1.5722  1.6436
16450SOL     OW50421   2.507   5.818   0.347  0.2299 -0.4885  0.3629
16450SOL    HW150422   2.523   5.906   0.383  1.6293 -0.3697 -0.4708
16450SOL    HW250423   2.424   5.792   0.386  0.3156  0.7583  1.4993
16451SOL     OW50424   7.599   2.368   0.273 -0.4417  0.4388 -0.2860
16451SOL    HW150425   7.557   2.283   0.258 -0.3743  0.0603  1.4058
16451SOL    HW250426   7.550   2.405   0.347 -0.8942  2.1984 -1.4057
16452SOL     OW50427   6.418   7.728   0.952  0.7202 -0.0332  0.3196
16452SOL    HW150428   6.500   7.777   0.946  1.3294 -1.1388 -0.6951
16452SOL    HW250429   6.353   7.784   0.908  0.9166  0.8131  1.0670
16453SOL     OW50430   5.696   3.242   4.975 -0.2681 -0.2389 -0.0888
16453SOL    HW150431   5.751   3.179   4.928 -1.6056 -0.5210 -1.3571
16453SOL    HW250432   5.614   3.242   4.926 -1.4748  0.0117  1.8580
16454SOL     OW50433   0.095   3.273   3.191  0.0017 -0.0093 -0.2398
16454SOL    HW150434   0.002   3.293   3.206 -0.3731 -1.3037 -0.6312
16454SOL    HW250435   0.137   3.290   3.276  0.0606  3.6955 -0.8712
16455SOL     OW50436   5.948   1.722   6.549 -0.0071  0.1879 -0.2967
16455SOL    HW150437   6.012   1.785   6.582  0.5978 -0.8491  0.5273
16455SOL    HW250438   5.974   1.638   6.585 -1.3639 -0.4018 -0.6059
16456SOL     OW50439   1.388   3.106   4.341  0.1751 -0.5405  0.1592
16456SOL    HW150440   1.412   3.014   4.336 -1.0109 -0.8758  0.3401
16456SOL    HW250441   1.402   3.140   4.253  2.5315 -0.3652  0.5308
16457SOL     OW50442   0.625   5.577   2.644 -0.4319  0.1720  0.0443
16457SOL    HW150443   0.698   5.638   2.655  0.0835  0.1784 -2.6984
16457SOL    HW250444   0.650   5.500   2.695 -0.0704  1.3763  1.7703
16458SOL     OW50445   7.418   5.284   6.203 -0.0835 -0.3617 -0.1522
16458SOL    HW150446   7.389   5.212   6.259 -1.4060 -0.1987 -0.5974
16458SOL    HW250447   7.374   5.269   6.119  0.7184  0.2087 -0.6852
16459SOL     OW50448   2.161   3.272   1.473  0.2022 -0.5117  0.6175
16459SOL    HW150449   2.185   3.328   1.547  0.9423  0.3862 -0.2760
16459SOL    HW250450   2.166   3.330   1.397  2.4547 -2.1214 -0.5450
16460SOL     OW50451   6.096   6.868   7.494 -0.2777  0.2701  0.2689
16460SOL    HW150452   6.023   6.865   7.433  0.2223 -0.2198 -0.3169
16460SOL    HW250453   6.169   6.904   7.443  0.0539  0.1792  0.6694
16461SOL     OW50454   2.027   4.357   3.402  0.2252 -0.4619  0.3204
16461SOL    HW150455   2.006   4.417   3.330  0.9407 -1.4007 -0.7042
16461SOL    HW250456   1.941   4.331   3.437 -0.1489 -0.2395 -0.4048
16462SOL     OW50457   1.990   4.122   5.018  0.1108  0.4014 -0.1795
16462SOL    HW150458   1.958   4.185   5.083  0.1137 -0.1323  0.3467
16462SOL    HW250459   2.007   4.175   4.940  0.9436  1.2080  0.5251
16463SOL     OW50460   0.941   7.813   7.112  0.1599  0.1228 -0.1505
16463SOL    HW150461   0.894   7.882   7.066 -0.3685  0.0219  0.2247
16463SOL    HW250462   1.010   7.786   7.052  0.3332  0.9362 -0.3219
16464SOL     OW50463   1.281   2.078   2.183  0.0350  0.0091 -0.1786
16464SOL    HW150464   1.273   2.025   2.262 -0.4943 -0.5619 -0.5974
16464SOL    HW250465   1.208   2.050   2.128  1.1085 -0.5139 -1.3946
16465SOL     OW50466   7.371   4.240   6.232  0.1641  0.6518  0.1852
16465SOL    HW150467   7.366   4.335   6.219 -1.2089  0.5210 -0.4306
16465SOL    HW250468   7.409   4.229   6.319  1.2359  1.7393 -0.1113
16466SOL     OW50469   7.183   2.578   3.015 -0.3046 -0.3762  0.1605
16466SOL    HW150470   7.251   2.548   2.955 -0.3162 -0.3726  0.1458
16466SOL    HW250471   7.224   2.574   3.102  0.2719  1.2074 -0.0116
16467SOL     OW50472   6.369   1.131   5.596  0.3412  0.7824  0.2022
16467SOL    HW150473   6.347   1.128   5.689  0.2499 -0.3874  0.1609
16467SOL    HW250474   6.464   1.125   5.593  0.3088  0.2368  0.2062
16468SOL     OW50475   3.159   1.382   3.795  0.1747 -0.0888  0.3553
16468SOL    HW150476   3.097   1.447   3.760  0.2659  0.1671  0.6641
16468SOL    HW250477   3.106   1.305   3.812 -0.2804  0.4716  1.6171
16469SOL     OW50478   2.019   2.304   5.889  0.4437 -0.1928 -0.1785
16469SOL    HW150479   2.096   2.350   5.857 -1.1852  1.8891 -1.2623
16469SOL    HW250480   1.957   2.305   5.816 -1.0871 -0.7180  1.0511
16470SOL     OW50481   0.304   7.164   0.349 -0.2917  0.0810 -0.1388
16470SOL    HW150482   0.327   7.086   0.299  2.6810  0.0053  1.1642
16470SOL    HW250483   0.249   7.132   0.421  0.6802 -0.7758  0.2299
16471SOL     OW50484   7.585   3.968   2.416 -0.2996 -0.9651 -0.3155
16471SOL    HW150485   7.509   4.018   2.386  1.2303  2.0023  0.3746
16471SOL    HW250486   7.655   3.992   2.355  0.7648 -1.4141  0.6807
16472SOL     OW50487   6.170   4.070   6.908  0.3681  0.4802  0.1313
16472SOL    HW150488   6.183   3.975   6.913  0.9293  0.5550  0.2030
16472SOL    HW250489   6.233   4.105   6.971 -0.1423  0.8780  0.4265
16473SOL     OW50490   0.388   7.699   0.701  0.1087  0.1427  0.6153
16473SOL    HW150491   0.448   7.773   0.715  1.4517 -0.9282  0.6308
16473SOL    HW250492   0.396   7.680   0.608 -2.9398  2.2332 -0.2410
16474SOL     OW50493   5.148   6.439   1.981  0.0361  0.0608 -0.0512
16474SOL    HW150494   5.057   6.417   1.961 -0.1163 -0.0068  0.6876
16474SOL    HW250495   5.160   6.526   1.943 -0.2629 -0.0214 -0.3478
16475SOL     OW50496   3.533   6.548   0.554 -0.0081 -0.4098  0.4982
16475SOL    HW150497   3.575   6.619   0.504 -2.5034  0.3573 -0.6704
16475SOL    HW250498   3.582   6.470   0.531  0.5702  0.3789 -1.0739
16476SOL     OW50499   2.618   2.743   4.415 -0.1969  0.1826 -0.1548
16476SOL    HW150500   2.527   2.768   4.426  0.4100  1.8416  1.6989
16476SOL    HW250501   2.665   2.791   4.483  1.7510 -2.5604  0.6005
16477SOL     OW50502   6.771   6.147   2.763  0.2147  0.2671  0.0278
16477SOL    HW150503   6.845   6.204   2.785  0.6167  1.1933 -3.2015
16477SOL    HW250504   6.712   6.203   2.712 -1.8155 -0.9833  0.8735
16478SOL     OW50505   1.743   3.633   3.200 -0.2866  0.1212 -0.0504
16478SOL    HW150506   1.657   3.591   3.208 -1.0911  1.0878 -2.5000
16478SOL    HW250507   1.795   3.570   3.151 -0.3959  0.5290 -0.7012
16479SOL     OW50508   1.293   2.217   7.842 -0.0034  0.0665 -1.2389
16479SOL    HW150509   1.254   2.193   7.758 -1.0921 -0.0721 -0.7135
16479SOL    HW250510   1.268   2.309   7.855 -1.2104 -0.3563 -0.3555
16480SOL     OW50511   7.895   1.846   2.486  0.1723  0.3270 -0.3860
16480SOL    HW150512   7.937   1.932   2.480 -1.5625  1.2782  0.4122
16480SOL    HW250513   7.928   1.810   2.568 -1.0302  1.3832  0.6157
16481SOL     OW50514   5.854   4.576   1.762 -0.4512  0.2454  0.1073
16481SOL    HW150515   5.934   4.602   1.808  0.4532 -0.9999 -0.7063
16481SOL    HW250516   5.801   4.656   1.759  0.4681  0.9268  1.2422
16482SOL     OW50517   4.407   2.705   2.053 -0.3600 -0.4456  0.4456
16482SOL    HW150518   4.427   2.753   2.133 -0.3973 -1.7900  1.2884
16482SOL    HW250519   4.363   2.769   1.997  1.4731  1.1046  0.6472
16483SOL     OW50520   7.596   2.250   1.879  0.1660  0.6033 -0.1894
16483SOL    HW150521   7.683   2.247   1.839 -0.5281 -0.8137 -1.7103
16483SOL    HW250522   7.584   2.163   1.917 -0.3320  1.0117  0.6061
16484SOL     OW50523   4.707   4.079   3.744  0.5181  0.1342  0.0792
16484SOL    HW150524   4.699   4.138   3.818 -0.7490  0.7078 -0.4862
16484SOL    HW250525   4.743   4.133   3.673 -0.6136  0.2363 -0.4302
16485SOL     OW50526   2.687   6.651   7.593  0.6851 -0.2236 -0.1307
16485SOL    HW150527   2.704   6.724   7.653  1.3437  0.4249 -1.0792
16485SOL    HW250528   2.611   6.607   7.630 -0.3640  1.5500 -0.0611
16486SOL     OW50529   5.220   2.832   6.404 -0.1996 -0.0035  0.0836
16486SOL    HW150530   5.206   2.922   6.374 -0.4481 -0.6230 -1.8171
16486SOL    HW250531   5.169   2.826   6.485  1.8764  2.2745  1.7092
16487SOL     OW50532   4.165   4.127   5.066 -0.3489  0.3118 -0.3846
16487SOL    HW150533   4.243   4.183   5.063 -0.7824  0.9212 -0.5530
16487SOL    HW250534   4.143   4.110   4.974 -0.3870  0.0996 -0.3377
16488SOL     OW50535   1.047   2.425   2.380  0.3195  0.6230  0.6736
16488SOL    HW150536   0.961   2.407   2.417  0.2498  0.7558  0.5762
16488SOL    HW250537   1.079   2.500   2.429  0.3391  0.6352  0.6420
16489SOL     OW50538   7.866   5.675   7.419  0.5437 -0.1487  0.0162
16489SOL    HW150539   7.807   5.740   7.380  0.1195 -1.4071 -1.5527
16489SOL    HW250540   7.927   5.653   7.349  1.1749 -0.8545  0.7746
16490SOL     OW50541   0.725   1.268   7.110  0.2421  0.0836 -0.5025
16490SOL    HW150542   0.798   1.235   7.163 -0.7651  0.5213  1.2400
16490SOL    HW250543   0.690   1.190   7.066 -0.0609 -0.6612  0.9909
16491SOL     OW50544   4.645   1.194   5.971  0.1087  0.1496 -0.1666
16491SOL    HW150545   4.609   1.154   5.892 -2.0879 -1.0455  1.3358
16491SOL    HW250546   4.656   1.121   6.032  0.9158  1.1648  0.9533
16492SOL     OW50547   4.343   5.728   4.192 -0.1471 -0.1718 -0.0210
16492SOL    HW150548   4.261   5.720   4.241  0.0425 -1.4157  0.1314
16492SOL    HW250549   4.409   5.693   4.251  0.4655  0.5891 -0.2423
16493SOL     OW50550   7.461   1.576   2.951 -0.0601 -0.0226  0.0875
16493SOL    HW150551   7.469   1.581   3.046  0.4489 -1.1466  0.1190
16493SOL    HW250552   7.530   1.633   2.918  1.1802 -1.2836  0.4094
16494SOL     OW50553   1.644   7.030   7.439 -0.5527 -0.4591  0.5362
16494SOL    HW150554   1.615   6.971   7.369 -0.3644  0.1547 -0.0723
16494SOL    HW250555   1.727   6.994   7.467  0.0326  0.0236 -0.4945
16495SOL     OW50556   1.496   4.774   2.622  0.2923  0.3466  0.0146
16495SOL    HW150557   1.453   4.694   2.652  0.0396  0.5716  0.2503
16495SOL    HW250558   1.572   4.743   2.572 -0.4780 -0.0668 -0.9369
16496SOL     OW50559   7.021   0.293   5.874 -0.8927  0.2428 -0.2555
16496SOL    HW150560   6.942   0.340   5.898 -1.3318  0.2440 -1.6056
16496SOL    HW250561   7.082   0.361   5.846  0.4742  0.4758  2.9213
16497SOL     OW50562   7.545   2.846   1.313 -0.3008 -0.0791 -0.2119
16497SOL    HW150563   7.515   2.832   1.403  0.2047 -1.9104 -0.2775
16497SOL    HW250564   7.509   2.771   1.264  0.9561 -0.1206 -1.1279
16498SOL     OW50565   3.757   7.327   5.065  0.4169 -0.8539 -0.6343
16498SOL    HW150566   3.786   7.262   5.001  1.0452 -0.1768 -1.0542
16498SOL    HW250567   3.719   7.397   5.012 -0.6006 -1.0361 -0.1680
16499SOL     OW50568   2.351   2.128   0.640  0.4241 -0.2642 -0.0513
16499SOL    HW150569   2.304   2.046   0.627  1.6365 -0.7416 -1.7421
16499SOL    HW250570   2.365   2.163   0.552 -1.0740  2.4153  0.6527
16500SOL     OW50571   4.232   4.051   0.235  0.2117  0.1053 -0.4601
16500SOL    HW150572   4.233   4.091   0.322  0.0402  2.6676 -1.5638
16500SOL    HW250573   4.206   3.960   0.251  0.3663  0.4568  2.1648
16501SOL     OW50574   7.155   1.781   2.977 -0.2264 -0.5287 -0.0358
16501SOL    HW150575   7.179   1.864   2.935 -0.4849  0.3997  1.5789
16501SOL    HW250576   7.169   1.715   2.909 -1.8747  1.0304 -2.0184
16502SOL     OW50577   3.371   2.511   6.429  0.0306  0.1727 -0.6539
16502SOL    HW150578   3.276   2.524   6.428  0.2470  2.0203 -0.6297
16502SOL    HW250579   3.386   2.458   6.507 -0.8496  1.3045  0.3341
16503SOL     OW50580   2.725   7.797   0.537 -0.8610  0.6215 -0.0022
16503SOL    HW150581   2.644   7.821   0.582 -0.3057  0.1850  1.2753
16503SOL    HW250582   2.789   7.862   0.566 -0.6614  0.7676 -0.7424
16504SOL     OW50583   7.829   0.739   7.926  0.0780  0.0381  0.4253
16504SOL    HW150584   7.857   0.648   7.915 -3.4657 -1.1942  0.2852
16504SOL    HW250585   7.791   0.762   7.842  1.1428  1.8299  0.3826
16505SOL     OW50586   2.022   6.943   4.573  0.3345  0.1492 -0.3997
16505SOL    HW150587   2.076   6.999   4.517 -0.5230  1.1422 -0.2748
16505SOL    HW250588   2.055   6.854   4.558  1.1078  0.5755 -1.3278
16506SOL     OW50589   4.192   5.635   5.880  0.3334 -0.6819  0.0747
16506SOL    HW150590   4.262   5.621   5.944  1.9068  1.7258 -0.9871
16506SOL    HW250591   4.115   5.656   5.933  0.7932 -1.7814  1.2285
16507SOL     OW50592   1.187   3.649   4.676 -0.1175  0.1932 -0.2566
16507SOL    HW150593   1.109   3.703   4.687 -1.4244 -1.6845  0.1342
16507SOL    HW250594   1.249   3.684   4.741 -0.3729  2.0633 -0.9499
16508SOL     OW50595   4.018   7.848   0.456  0.4147 -0.8417 -0.2466
16508SOL    HW150596   3.947   7.790   0.427 -1.6833  0.0882  2.6364
16508SOL    HW250597   4.077   7.791   0.505 -0.7664 -0.9129  1.1599
16509SOL     OW50598   3.201   7.573   4.690 -0.2486 -0.1918 -0.6764
16509SOL    HW150599   3.149   7.645   4.654 -0.0731  1.0960  1.4768
16509SOL    HW250600   3.140   7.499   4.691 -1.9650  1.1222  1.2224
16510SOL     OW50601   5.668   3.175   0.785 -0.1978 -0.5502 -0.5976
16510SOL    HW150602   5.628   3.249   0.830 -1.4200 -1.7704  0.4207
16510SOL    HW250603   5.727   3.136   0.849  1.2695  0.1486 -1.4851
16511SOL     OW50604   7.074   2.579   0.223 -0.5770  0.1820 -0.2309
16511SOL    HW150605   7.163   2.557   0.251 -0.7798  0.7948  0.9455
16511SOL    HW250606   7.061   2.669   0.252 -1.5173  0.1649 -0.5663
16512SOL     OW50607   0.989   0.480   7.420  0.0088 -0.9006 -0.5618
16512SOL    HW150608   0.981   0.473   7.325 -1.2713  1.8223 -0.7527
16512SOL    HW250609   1.071   0.527   7.434  0.7725 -2.2682 -0.1909
16513SOL     OW50610   2.436   3.378   1.928 -0.1687 -0.3159 -0.5720
16513SOL    HW150611   2.407   3.457   1.883  0.2378  0.0046 -0.2842
16513SOL    HW250612   2.356   3.336   1.959 -0.4014 -0.1632 -0.9703
16514SOL     OW50613   1.023   4.397   1.029 -0.3600  0.5642  0.0255
16514SOL    HW150614   1.047   4.488   1.013  3.2110 -0.5248 -2.1541
16514SOL    HW250615   1.064   4.376   1.113  0.0173  0.6298 -0.1403
16515SOL     OW50616   1.165   3.147   5.831 -0.2699  0.4256 -0.0842
16515SOL    HW150617   1.074   3.117   5.830  0.3053 -1.4038  0.0158
16515SOL    HW250618   1.214   3.076   5.871  1.2722  1.2274 -0.4678
16516SOL     OW50619   6.968   4.686   7.644  0.9896  0.0678  0.0825
16516SOL    HW150620   6.994   4.642   7.725 -0.8015 -0.5004  0.4092
16516SOL    HW250621   6.946   4.614   7.584  1.0021  0.5002 -0.4488
16517SOL     OW50622   7.243   1.023   1.020 -0.0814 -0.1359 -0.1226
16517SOL    HW150623   7.244   1.116   1.042  0.4460  0.0091 -0.7146
16517SOL    HW250624   7.314   1.013   0.957  0.2633 -1.0620  0.3974
16518SOL     OW50625   7.279   4.988   5.791  1.1453 -0.4266 -0.5808
16518SOL    HW150626   7.342   4.951   5.854  0.4524 -0.9657 -0.1926
16518SOL    HW250627   7.287   4.932   5.714  1.6506 -0.0561 -0.8060
16519SOL     OW50628   1.656   3.815   1.882 -0.0087 -0.2633  0.3449
16519SOL    HW150629   1.684   3.815   1.791  0.5112  0.9261  0.4952
16519SOL    HW250630   1.560   3.824   1.878 -0.0411 -0.7660 -0.0851
16520SOL     OW50631   6.238   7.918   1.791 -0.4380 -0.4905 -0.1568
16520SOL    HW150632   6.309   7.855   1.803 -1.8946 -2.3313 -0.7076
16520SOL    HW250633   6.232   7.930   1.696  0.6203  1.5277 -0.0372
16521SOL     OW50634   7.645   0.485   3.313  0.1271  0.2915  0.2148
16521SOL    HW150635   7.563   0.526   3.339 -0.4419 -0.0021 -1.0184
16521SOL    HW250636   7.628   0.391   3.317  0.0173  0.2283 -1.0874
16522SOL     OW50637   5.900   8.107   2.231  0.1515 -0.1122  0.7346
16522SOL    HW150638   5.957   8.183   2.242  0.7709 -0.3788 -0.4425
16522SOL    HW250639   5.888   8.073   2.319 -1.1074  2.0260  1.4521
16523SOL     OW50640   2.218   7.110   3.088 -0.1164 -0.2857 -0.4823
16523SOL    HW150641   2.236   7.202   3.106  0.2209 -0.3894 -0.2697
16523SOL    HW250642   2.304   7.074   3.064 -0.1951 -0.6030 -0.2944
16524SOL     OW50643   0.989   4.363   4.898 -0.4452  0.3321  0.2163
16524SOL    HW150644   0.981   4.446   4.945  1.3756  1.5870 -1.5585
16524SOL    HW250645   1.059   4.377   4.835 -1.5129 -1.8619 -1.6212
16525SOL     OW50646   1.466   6.118   2.342 -0.2462  0.2622 -0.5249
16525SOL    HW150647   1.427   6.115   2.255  0.0566  2.2061 -0.7762
16525SOL    HW250648   1.555   6.150   2.328  0.6656 -1.7086  0.3027
16526SOL     OW50649   8.151   7.829   1.403 -0.0961 -0.1576 -0.1804
16526SOL    HW150650   8.129   7.802   1.493  0.3304  1.1719  0.3502
16526SOL    HW250651   8.207   7.760   1.370  1.5798  0.3682  1.3996
16527SOL     OW50652   7.666   1.755   2.859 -0.0277  0.0517 -0.9188
16527SOL    HW150653   7.714   1.835   2.838 -0.7423  0.4287 -1.1360
16527SOL    HW250654   7.712   1.719   2.934 -0.0140  0.9477 -0.4861
16528SOL     OW50655   4.247   6.686   2.606 -0.6618 -0.1195 -0.1018
16528SOL    HW150656   4.336   6.676   2.574 -0.7269 -0.0905 -0.2912
16528SOL    HW250657   4.199   6.724   2.533 -1.1018 -1.2377 -0.4121
16529SOL     OW50658   3.434   6.856   4.916 -0.1198  0.8760  0.3767
16529SOL    HW150659   3.493   6.792   4.876 -1.6626  0.1692 -0.8961
16529SOL    HW250660   3.414   6.820   5.002  0.5496  0.6430  0.4391
16530SOL     OW50661   3.628   5.061   0.225  0.1108 -0.6002  0.2583
16530SOL    HW150662   3.544   5.044   0.268  1.3679 -1.1113  2.6842
16530SOL    HW250663   3.682   4.985   0.246  2.4557  1.4278  2.3108
16531SOL     OW50664   3.271   6.639   7.547 -0.0484 -0.3537 -0.3013
16531SOL    HW150665   3.312   6.557   7.574  1.2993  0.4535  0.2049
16531SOL    HW250666   3.237   6.678   7.627 -0.9612 -0.5458 -0.5823
16532SOL     OW50667   5.711   6.434   5.785  0.1245  0.4931 -0.3410
16532SOL    HW150668   5.797   6.414   5.747  0.6553  1.3939  0.3345
16532SOL    HW250669   5.703   6.375   5.860  0.4760  0.8774  0.0092
16533SOL     OW50670   2.318   5.467   8.022 -0.0982 -0.2484  0.6857
16533SOL    HW150671   2.348   5.394   7.968 -0.2179  0.5294 -0.4672
16533SOL    HW250672   2.395   5.490   8.075  0.0477 -0.9692  0.8061
16534SOL     OW50673   3.155   3.597   6.348  0.0851  0.6780 -0.0989
16534SOL    HW150674   3.173   3.591   6.254  1.6757  0.1152  0.2130
16534SOL    HW250675   3.088   3.531   6.364  3.2797 -2.9095 -0.0812
16535SOL     OW50676   2.611   3.929   0.652  0.2511  0.4565  0.1109
16535SOL    HW150677   2.521   3.903   0.635  0.5740 -0.2052 -0.6213
16535SOL    HW250678   2.623   4.010   0.602  0.7920 -0.7657 -1.8085
16536SOL     OW50679   2.615   1.481   7.354 -0.0659  0.0654 -0.0964
16536SOL    HW150680   2.691   1.445   7.399 -0.3669  1.1140  1.3193
16536SOL    HW250681   2.637   1.573   7.338 -0.6703  0.1461 -0.4897
16537SOL     OW50682   1.342   8.073   4.669 -0.3072 -0.2772  0.4743
16537SOL    HW150683   1.393   8.135   4.618 -0.5181 -0.2935  0.2403
16537SOL    HW250684   1.273   8.126   4.709  0.7506  0.0133  2.0005
16538SOL     OW50685   6.506   6.767   7.574  0.0422  0.3108  0.2274
16538SOL    HW150686   6.424   6.737   7.613  0.1331  0.5636  0.6154
16538SOL    HW250687   6.530   6.844   7.625  0.3208  0.4662 -0.1348
16539SOL     OW50688   5.509   7.941   1.797  0.0409  0.0670 -0.6339
16539SOL    HW150689   5.426   7.899   1.774  1.2827 -2.2920 -1.1970
16539SOL    HW250690   5.523   8.007   1.728  0.1280 -1.7625 -2.4655
16540SOL     OW50691   1.665   3.080   1.221  0.1261 -0.2565  0.4107
16540SOL    HW150692   1.667   3.146   1.289  3.1664 -0.8611  1.0285
16540SOL    HW250693   1.573   3.078   1.193 -0.2957  3.4193  1.0448
16541SOL     OW50694   6.737   1.858   7.104 -0.3619  0.5414 -0.2728
16541SOL    HW150695   6.718   1.946   7.136 -2.0305  0.4540 -0.9250
16541SOL    HW250696   6.652   1.815   7.100  0.3143 -0.8145 -0.8345
16542SOL     OW50697   1.137   7.173   0.181 -0.2161  0.3689  0.9071
16542SOL    HW150698   1.193   7.190   0.257  1.3593 -1.7505  0.3186
16542SOL    HW250699   1.131   7.257   0.136  1.8028  0.8781  1.4919
16543SOL     OW50700   3.830   7.625   7.491 -0.6831 -0.0211 -0.1522
16543SOL    HW150701   3.785   7.541   7.506 -0.6715  0.1742  1.0258
16543SOL    HW250702   3.794   7.656   7.407 -3.7281  0.7095  1.2734
16544SOL     OW50703   5.934   6.328   4.674 -0.3314  0.1156  0.3828
16544SOL    HW150704   5.865   6.375   4.721  0.7426  1.5539  0.5902
16544SOL    HW250705   5.970   6.392   4.613  1.2761 -0.3604  0.7744
16545SOL     OW50706   2.155   0.456   1.262 -0.0042  0.2772  0.1911
16545SOL    HW150707   2.168   0.399   1.337  0.1331  0.2391  0.1391
16545SOL    HW250708   2.134   0.396   1.190 -1.7957  0.4072  0.5476
16546SOL     OW50709   3.108   2.693   0.810 -0.2098  0.6054  0.6412
16546SOL    HW150710   3.202   2.695   0.790  0.2061 -2.3817  1.7117
16546SOL    HW250711   3.066   2.675   0.727  0.5265 -1.2291  0.6150
16547SOL     OW50712   2.040   6.414   0.861 -0.0871  0.0796 -0.3592
16547SOL    HW150713   1.951   6.386   0.841 -0.7725  0.9251  1.3445
16547SOL    HW250714   2.045   6.413   0.956  1.6298  0.3798 -0.4169
16548SOL     OW50715   3.802   4.880   8.054  0.5694 -0.4620 -0.3139
16548SOL    HW150716   3.775   4.932   7.979 -2.0155  0.2413  0.9881
16548SOL    HW250717   3.823   4.944   8.122  0.0073 -1.0860  0.4718
16549SOL     OW50718   1.720   3.852   5.397  0.6431 -0.5460  0.0539
16549SOL    HW150719   1.806   3.859   5.357  0.2770  0.9138 -0.5721
16549SOL    HW250720   1.736   3.863   5.491  1.4077 -3.1002  0.2929
16550SOL     OW50721   3.250   2.099   1.876 -0.3344  0.6032  0.8802
16550SOL    HW150722   3.162   2.093   1.841 -0.5631 -0.3093  1.5684
16550SOL    HW250723   3.242   2.157   1.952 -0.3672  0.4489  0.9962
16551SOL     OW50724   4.590   6.281   7.866  0.0436 -0.3363  0.4684
16551SOL    HW150725   4.683   6.305   7.868 -0.1861  0.7450 -0.8498
16551SOL    HW250726   4.545   6.358   7.901 -0.4681 -0.1306 -0.6138
16552SOL     OW50727   7.668   2.359   4.918  0.5279 -0.0700  0.6853
16552SOL    HW150728   7.737   2.301   4.885  0.8743  1.1780 -0.9562
16552SOL    HW250729   7.587   2.324   4.881  0.8005  0.7427 -0.7772
16553SOL     OW50730   3.466   6.746   7.349 -0.8526 -0.1665 -0.0997
16553SOL    HW150731   3.452   6.841   7.358 -0.0645  0.0180 -0.6333
16553SOL    HW250732   3.405   6.706   7.410  0.6770  0.8023  2.2000
16554SOL     OW50733   4.470   3.866   2.925  0.3381 -0.0431 -0.2201
16554SOL    HW150734   4.486   3.919   3.003 -0.6177  0.1891 -0.1726
16554SOL    HW250735   4.549   3.876   2.872  1.2209 -0.6042  0.9347
16555SOL     OW50736   3.045   7.112   2.864 -0.5108 -0.1494  0.4940
16555SOL    HW150737   3.066   7.089   2.774  0.0413  0.5521  0.4368
16555SOL    HW250738   3.122   7.087   2.915 -0.5645  0.0376  0.6724
16556SOL     OW50739   0.705   2.825   6.028  0.0889  0.6610  0.3318
16556SOL    HW150740   0.677   2.840   5.937 -0.0814  1.7466  0.5450
16556SOL    HW250741   0.797   2.851   6.029 -0.3967  2.5300  0.8710
16557SOL     OW50742   0.506   6.925   2.130  0.6271 -0.5496 -0.1364
16557SOL    HW150743   0.538   6.869   2.201  0.2269 -2.3121 -1.2826
16557SOL    HW250744   0.547   6.889   2.051  0.7810  1.1488 -0.8649
16558SOL     OW50745   4.738   1.992   0.261  0.4423  0.1611  0.2797
16558SOL    HW150746   4.727   1.966   0.352  0.3707  0.7112  0.4289
16558SOL    HW250747   4.729   2.087   0.261 -0.9163  0.0663 -0.4884
16559SOL     OW50748   7.084   8.004   2.056 -0.1368 -0.1245  0.4250
16559SOL    HW150749   7.095   8.079   1.996 -1.7444  1.0180  1.4935
16559SOL    HW250750   7.113   8.038   2.141  0.5628 -1.2285  0.6444
16560SOL     OW50751   4.202   2.019   5.918 -0.3402 -0.0506  0.3593
16560SOL    HW150752   4.144   1.950   5.887 -0.0525 -0.2909  0.3441
16560SOL    HW250753   4.154   2.100   5.903 -0.4886 -0.2144 -0.0743
16561SOL     OW50754   0.900   8.126   0.641 -0.3049 -0.1169  0.0210
16561SOL    HW150755   0.946   8.188   0.697  1.3907 -1.0305 -0.2755
16561SOL    HW250756   0.852   8.180   0.579  0.9601  0.9173 -0.1063
16562SOL     OW50757   8.143   1.084   4.077 -0.2858 -0.1539 -0.1732
16562SOL    HW150758   8.160   1.046   3.991 -1.5166 -0.9483 -0.0788
16562SOL    HW250759   8.111   1.011   4.130  0.9220  0.2068  1.1268
16563SOL     OW50760   7.080   0.075   1.467 -0.7352 -0.1127 -0.2064
16563SOL    HW150761   7.018   0.035   1.406 -1.2274 -0.4569  0.5011
16563SOL    HW250762   7.131   0.001   1.501 -0.0102  0.1541 -0.6967
16564SOL     OW50763   7.642   1.088   7.961  0.3364 -0.9283  0.1661
16564SOL    HW150764   7.658   1.065   8.053  0.2312 -1.8856 -0.0484
16564SOL    HW250765   7.562   1.042   7.938 -0.0890 -0.0461 -0.1866
16565SOL     OW50766   1.910   5.299   0.680  0.1534 -0.5795  0.5374
16565SOL    HW150767   1.979   5.258   0.733  0.5050  1.1601  1.5212
16565SOL    HW250768   1.932   5.393   0.682 -1.7949 -0.0784  0.1909
16566SOL     OW50769   0.272   7.101   1.695 -0.6561 -0.0674 -0.2774
16566SOL    HW150770   0.290   7.012   1.725 -0.8676 -0.1610 -0.4187
16566SOL    HW250771   0.182   7.097   1.662 -0.7603  0.2649 -0.0391
16567SOL     OW50772   4.965   3.113   1.509 -0.1658  0.0820  0.1649
16567SOL    HW150773   4.900   3.183   1.502 -0.4088 -0.1518  0.1003
16567SOL    HW250774   5.042   3.157   1.545 -0.2847  0.4048  0.0313
16568SOL     OW50775   1.936   4.716   1.441  0.6903  0.0634 -0.1423
16568SOL    HW150776   2.029   4.726   1.462  0.5565 -0.1558  0.5994
16568SOL    HW250777   1.921   4.622   1.442  0.4990  0.0889 -0.4525
16569SOL     OW50778   1.148   2.253   7.619  0.6387  0.0540 -0.0325
16569SOL    HW150779   1.056   2.242   7.644  1.0027 -1.6622  0.6895
16569SOL    HW250780   1.162   2.189   7.550  0.9899  1.1793 -1.0298
16570SOL     OW50781   0.302   3.180   1.026  0.5779 -0.2036  0.0495
16570SOL    HW150782   0.324   3.092   0.994  1.4501  0.1406 -0.3146
16570SOL    HW250783   0.291   3.168   1.121  0.2625 -0.7844 -0.0518
16571SOL     OW50784   7.818   2.531   8.027  0.4622  0.2868  0.0985
16571SOL    HW150785   7.895   2.488   7.990  0.5098  0.7315 -0.3386
16571SOL    HW250786   7.786   2.471   8.094  0.8061 -0.1996 -0.1688
16572SOL     OW50787   0.206   3.571   2.517  0.5328 -0.0078  0.1158
16572SOL    HW150788   0.267   3.498   2.512  0.4287 -0.1014  0.2274
16572SOL    HW250789   0.206   3.608   2.428 -0.7732 -1.2514 -0.4542
16573SOL     OW50790   6.154   5.999   4.804 -0.3366  0.2141  0.1422
16573SOL    HW150791   6.084   5.943   4.836  0.4490 -1.4374 -0.8976
16573SOL    HW250792   6.159   6.070   4.868 -3.1623  0.6071  0.0614
16574SOL     OW50793   2.459   7.361   1.464  0.3359  0.3805  0.1164
16574SOL    HW150794   2.528   7.409   1.509  0.3586  1.9279 -1.4408
16574SOL    HW250795   2.398   7.429   1.435 -0.7193 -0.7481 -0.4210
16575SOL     OW50796   1.126   0.066   1.755 -0.1254  0.0100  0.7364
16575SOL    HW150797   1.199   0.053   1.815  0.3187 -0.8018  0.0429
16575SOL    HW250798   1.166   0.075   1.669 -0.8729 -2.5804  0.0235
16576SOL     OW50799   3.752   0.786   4.599  0.0124  0.2213 -0.0903
16576SOL    HW150800   3.667   0.821   4.570 -0.0826  0.4851  0.4958
16576SOL    HW250801   3.730   0.717   4.662  0.1731 -1.5080 -1.8344
16577SOL     OW50802   2.070   2.877   3.542 -0.3585 -0.5415 -0.4920
16577SOL    HW150803   2.068   2.873   3.638 -0.6714  2.7642 -0.2256
16577SOL    HW250804   2.146   2.931   3.522 -0.3339 -1.1330 -2.1082
16578SOL     OW50805   2.814   1.083   2.750  0.0014  0.3962 -0.0597
16578SOL    HW150806   2.817   1.056   2.658  0.8435 -1.0564  0.3532
16578SOL    HW250807   2.904   1.075   2.780 -0.3332  0.4411  1.0063
16579SOL     OW50808   0.019   2.310   5.990  0.1400  0.6041 -0.6366
16579SOL    HW150809  -0.048   2.260   6.036  0.0755 -0.1368 -1.5111
16579SOL    HW250810  -0.022   2.395   5.973 -0.5861  0.1520 -1.1836
16580SOL     OW50811   0.624   0.333   2.224 -0.0083 -0.0348 -0.2252
16580SOL    HW150812   0.586   0.368   2.143 -0.6497 -0.6604 -0.2055
16580SOL    HW250813   0.565   0.262   2.249  2.2468 -2.4443 -1.2858
16581SOL     OW50814   2.755   5.851   7.136 -0.1484 -0.2668  0.3187
16581SOL    HW150815   2.704   5.840   7.055 -0.6664  0.3621  0.5530
16581SOL    HW250816   2.729   5.776   7.190 -1.6633  0.5924  0.8593
16582SOL     OW50817   0.132   8.117   2.578  0.0385 -0.9335 -0.1971
16582SOL    HW150818   0.224   8.114   2.604 -0.3120  0.3636  1.3708
16582SOL    HW250819   0.124   8.200   2.531 -0.4017 -0.8281  0.0562
16583SOL     OW50820   7.678   4.638   4.329 -0.0707 -0.3013 -0.0336
16583SOL    HW150821   7.759   4.615   4.373  0.2889 -0.6001 -0.8351
16583SOL    HW250822   7.653   4.723   4.366  0.4825 -0.3193  0.3803
16584SOL     OW50823   8.021   0.607   5.987  0.7030 -0.0275 -0.3912
16584SOL    HW150824   8.092   0.657   6.027  0.3232 -0.6842  1.1973
16584SOL    HW250825   7.963   0.585   6.061 -2.1150  1.9950 -1.8046
16585SOL     OW50826   6.817   4.108   8.125  0.4564  0.1473  0.3032
16585SOL    HW150827   6.761   4.043   8.168  0.5186 -0.1127 -0.0051
16585SOL    HW250828   6.766   4.136   8.049  0.5905  0.1771  0.2251
16586SOL     OW50829   4.835   4.043   2.364 -0.5110  0.0391  0.0104
16586SOL    HW150830   4.927   4.029   2.384 -1.3412 -2.2523  2.9716
16586SOL    HW250831   4.799   3.955   2.351 -2.0701  0.9413 -2.6932
16587SOL     OW50832   3.619   6.083   4.321  0.3249  0.5283  0.1605
16587SOL    HW150833   3.608   6.149   4.252  1.2689  0.6045  0.0691
16587SOL    HW250834   3.667   6.012   4.280 -1.1054 -0.4603  0.1316
16588SOL     OW50835   1.710   3.047   0.776 -0.2612  0.6077 -0.0080
16588SOL    HW150836   1.729   3.139   0.758 -0.1110  0.4272 -0.8133
16588SOL    HW250837   1.688   3.010   0.690 -0.1230 -0.1540  0.2792
16589SOL     OW50838   1.729   5.444   0.445 -0.3041 -0.3343 -0.5823
16589SOL    HW150839   1.717   5.498   0.366 -0.2089 -0.0899 -0.4308
16589SOL    HW250840   1.815   5.469   0.479  0.0106 -1.0281 -0.8491
16590SOL     OW50841   1.873   5.520   5.186  0.4971 -0.2354  0.1063
16590SOL    HW150842   1.809   5.583   5.154  1.7112  1.6386  1.1193
16590SOL    HW250843   1.854   5.439   5.139 -1.8861  0.5463 -0.3878
16591SOL     OW50844   1.297   2.664   4.227 -0.1082 -0.1711 -0.4143
16591SOL    HW150845   1.369   2.643   4.286 -0.0765  0.9473 -0.0277
16591SOL    HW250846   1.326   2.630   4.142  1.4806  1.3509 -0.5494
16592SOL     OW50847   6.637   0.424   7.881 -0.2117 -0.8498  0.1590
16592SOL    HW150848   6.681   0.484   7.942 -1.4032 -0.8836  1.0875
16592SOL    HW250849   6.584   0.481   7.826 -1.0646 -0.9883  0.8069
16593SOL     OW50850   5.312   3.673   1.069  0.0882 -0.0872 -0.6196
16593SOL    HW150851   5.306   3.767   1.053 -1.9062 -0.1486 -0.4552
16593SOL    HW250852   5.264   3.633   0.997  2.1625 -1.1115 -1.5123
16594SOL     OW50853   5.530   0.038   2.965 -0.2449 -0.4258  0.4167
16594SOL    HW150854   5.512  -0.045   2.919 -1.6171 -0.5874  1.1929
16594SOL    HW250855   5.608   0.020   3.016 -0.4068 -1.1896  0.4131
16595SOL     OW50856   5.634   5.926   1.925  0.2684  0.2590 -0.1609
16595SOL    HW150857   5.548   5.883   1.919  0.2909  0.2063 -0.1125
16595SOL    HW250858   5.691   5.874   1.870  0.2095  0.4480 -0.4007
16596SOL     OW50859   1.609   5.270   2.174 -0.7277  0.2237 -0.3589
16596SOL    HW150860   1.671   5.209   2.214  0.6331  2.3714  0.9669
16596SOL    HW250861   1.530   5.263   2.227 -0.0563  0.6584  0.7357
16597SOL     OW50862   3.146   7.958   7.442 -0.0139  0.6963 -0.1521
16597SOL    HW150863   3.213   7.967   7.374 -1.8818 -1.7321 -2.5266
16597SOL    HW250864   3.149   8.041   7.490  1.7629  2.3646 -2.8637
16598SOL     OW50865   2.296   0.787   4.447 -0.3821 -0.1465  0.2824
16598SOL    HW150866   2.285   0.882   4.457 -0.3174 -0.0491 -0.4465
16598SOL    HW250867   2.381   0.768   4.485 -0.5424  0.0357  0.7339
16599SOL     OW50868   5.561   2.516   4.476 -0.1539  0.3632  0.3688
16599SOL    HW150869   5.484   2.468   4.506 -0.3332  0.2191 -0.3151
16599SOL    HW250870   5.533   2.561   4.397  1.1020 -1.7375 -1.4089
16600SOL     OW50871   3.182   0.244   1.472 -0.1175  0.2534 -0.1550
16600SOL    HW150872   3.094   0.262   1.439  0.6478  2.6741 -1.1448
16600SOL    HW250873   3.233   0.222   1.394  0.0912 -1.5641  0.4616
16601SOL     OW50874   3.245   3.984   7.485 -0.2846 -0.4341 -0.0624
16601SOL    HW150875   3.223   3.893   7.506 -1.3138 -0.0609  0.5825
16601SOL    HW250876   3.262   4.024   7.570  1.0013 -0.2152 -0.4100
16602SOL     OW50877   5.920   1.715   5.774 -0.2760  0.0084  0.0294
16602SOL    HW150878   5.882   1.642   5.822  0.3497 -0.0078  0.5125
16602SOL    HW250879   5.932   1.784   5.839 -0.4392  0.3840 -0.3314
16603SOL     OW50880   2.004   7.182   3.290  0.1895  0.0879 -0.3785
16603SOL    HW150881   2.009   7.277   3.285 -2.5415  0.3119 -0.4533
16603SOL    HW250882   2.046   7.152   3.209 -1.6773  1.4422 -1.9622
16604SOL     OW50883   1.590   5.637   6.787 -0.1702  0.0249  0.0681
16604SOL    HW150884   1.607   5.603   6.875 -1.2147 -1.2019 -0.1737
16604SOL    HW250885   1.629   5.573   6.728  0.9993  1.1131 -0.3927
16605SOL     OW50886   1.502   7.350   0.437  0.1913 -0.2812  0.1272
16605SOL    HW150887   1.550   7.271   0.458 -0.5766 -0.7356  0.2219
16605SOL    HW250888   1.560   7.422   0.463  1.7376 -0.7459 -1.7831
16606SOL     OW50889   4.244   6.077   1.040  0.2039 -0.3575  0.2997
16606SOL    HW150890   4.271   6.149   1.097  0.7540 -0.7928  0.5952
16606SOL    HW250891   4.161   6.106   1.003  0.3254  0.3484  0.5621
16607SOL     OW50892   5.394   6.414   1.555 -0.2326  0.7257 -0.4021
16607SOL    HW150893   5.387   6.318   1.557 -0.0423  0.6482 -2.1261
16607SOL    HW250894   5.307   6.445   1.581 -0.0020  0.1339  1.2142
16608SOL     OW50895   5.430   6.854   7.829 -0.4772 -0.0321  0.3474
16608SOL    HW150896   5.409   6.845   7.922 -1.3155  1.2330  0.2942
16608SOL    HW250897   5.387   6.779   7.788  0.0508 -0.7020  0.9900
16609SOL     OW50898   3.604   4.154   5.971 -0.1593  0.5340  0.8069
16609SOL    HW150899   3.579   4.151   6.063  1.4940  2.9499  1.4434
16609SOL    HW250900   3.665   4.081   5.960 -0.8754 -0.1717  1.4467
16610SOL     OW50901   2.545   2.106   1.827  0.1640  0.0464  0.0153
16610SOL    HW150902   2.490   2.184   1.831 -0.8049 -0.6548  0.8437
16610SOL    HW250903   2.497   2.045   1.771  0.7398 -0.0986 -0.3322
16611SOL     OW50904   6.749   2.580   2.090  0.6093  0.2983 -0.2623
16611SOL    HW150905   6.755   2.509   2.153  2.3719  0.5865 -0.0467
16611SOL    HW250906   6.797   2.652   2.130  0.9128  0.8143 -1.4947
16612SOL     OW50907   6.570   0.349   4.180 -0.3845 -0.1104  0.0101
16612SOL    HW150908   6.630   0.342   4.255 -1.0724 -1.5451  0.4542
16612SOL    HW250909   6.507   0.279   4.193 -0.3561 -0.5831 -2.0981
16613SOL     OW50910   5.668   0.813   7.667  0.2255  0.1394  0.1060
16613SOL    HW150911   5.702   0.816   7.577  1.9890  1.8001  0.7486
16613SOL    HW250912   5.628   0.726   7.674 -0.2441  0.0719 -2.3584
16614SOL     OW50913   2.755   6.459   0.769 -0.7766  0.9544  0.5977
16614SOL    HW150914   2.843   6.488   0.793 -0.4508  0.0343  0.5501
16614SOL    HW250915   2.720   6.531   0.717  0.4271  0.8299 -0.4572
16615SOL     OW50916   3.907   6.591   7.751 -0.1624  0.3610 -0.0498
16615SOL    HW150917   3.958   6.511   7.733  0.4986  0.9178 -0.7059
16615SOL    HW250918   3.920   6.645   7.674 -1.7630  0.5343 -0.2247
16616SOL     OW50919   6.686   1.699   6.455 -0.4701 -0.0188 -0.1630
16616SOL    HW150920   6.604   1.746   6.473 -0.2768  0.9129 -1.4958
16616SOL    HW250921   6.659   1.623   6.404 -0.4752  0.7282 -1.3259
16617SOL     OW50922   6.549   0.438   3.899 -0.0313 -0.9972  0.6603
16617SOL    HW150923   6.502   0.520   3.915  1.4952  0.2228 -0.7556
16617SOL    HW250924   6.572   0.406   3.986  2.0184  1.7441  1.2823
16618SOL     OW50925   6.292   6.640   7.672 -0.1384  0.0303 -0.0159
16618SOL    HW150926   6.291   6.545   7.681 -0.1311 -0.0853 -1.1360
16618SOL    HW250927   6.212   6.661   7.625 -0.1141  0.5700  0.1766
16619SOL     OW50928   2.945   4.408   4.134 -0.0238  0.1433  0.1454
16619SOL    HW150929   2.953   4.503   4.140  2.0864  0.0498 -0.3428
16619SOL    HW250930   2.858   4.393   4.096  0.1698  1.9390 -1.1261
16620SOL     OW50931   2.691   1.772   3.504 -0.4286  0.0908  0.0854
16620SOL    HW150932   2.658   1.852   3.462 -0.8003  1.0155  2.0222
16620SOL    HW250933   2.626   1.753   3.571  0.6802 -0.6949  0.9631
16621SOL     OW50934   4.361   2.403   6.654  0.1148  0.6392 -0.1352
16621SOL    HW150935   4.382   2.359   6.571 -1.4392 -1.1360  0.3452
16621SOL    HW250936   4.302   2.474   6.630 -2.6264 -1.5783 -0.3821
16622SOL     OW50937   4.522   1.658   7.177  0.2934  0.2629 -0.1056
16622SOL    HW150938   4.544   1.734   7.124 -0.0568  0.0283 -0.5969
16622SOL    HW250939   4.606   1.616   7.195  0.2952 -0.7275 -2.1167
16623SOL     OW50940   5.033   5.235   3.532 -0.1069 -0.3190  0.2622
16623SOL    HW150941   4.952   5.188   3.554 -1.2454  0.4213 -1.9647
16623SOL    HW250942   5.086   5.171   3.485  0.7256 -0.8517  1.8623
16624SOL     OW50943   6.209   4.017   7.727  0.3475 -0.1623 -0.1286
16624SOL    HW150944   6.165   3.996   7.809  0.9039 -0.0108  0.2165
16624SOL    HW250945   6.207   4.113   7.722  0.0598 -0.1832 -0.4371
16625SOL     OW50946   5.394   7.035   7.642 -0.4965  0.3676  0.2300
16625SOL    HW150947   5.409   6.980   7.719 -1.4868  0.6428  0.6290
16625SOL    HW250948   5.301   7.056   7.645 -0.7750 -0.4324 -1.5963
16626SOL     OW50949   1.565   7.773   0.360 -0.0426 -0.7305  0.3136
16626SOL    HW150950   1.529   7.800   0.445  2.6894 -0.8695  1.6317
16626SOL    HW250951   1.584   7.680   0.371  0.8014 -0.6348 -0.2769
16627SOL     OW50952   4.099   5.274   6.655 -0.9384  0.3829  0.0397
16627SOL    HW150953   4.178   5.256   6.704 -0.4162 -1.3425 -1.3274
16627SOL    HW250954   4.049   5.335   6.710 -0.1879 -1.0524  2.4445
16628SOL     OW50955   5.692   0.961   0.467 -0.6276  0.0087  0.3896
16628SOL    HW150956   5.782   0.988   0.447 -1.0600  1.2512  0.0411
16628SOL    HW250957   5.641   0.991   0.392 -1.5908  0.7815  1.3364
16629SOL     OW50958   2.292   5.898   2.797 -0.2909 -0.2997  0.0386
16629SOL    HW150959   2.267   5.965   2.734 -1.2887  1.0383  1.7570
16629SOL    HW250960   2.249   5.819   2.767  1.5454 -0.4757 -2.4895
16630SOL     OW50961   5.206   1.675   5.051 -0.4084  0.4343 -0.3779
16630SOL    HW150962   5.149   1.668   5.127 -1.3044  1.5268 -0.9198
16630SOL    HW250963   5.168   1.614   4.987  1.0473 -1.4051  0.4269
16631SOL     OW50964   3.288   2.356   7.181 -0.6802  0.0505 -0.5554
16631SOL    HW150965   3.277   2.344   7.276  0.2271 -0.0376 -0.4539
16631SOL    HW250966   3.219   2.417   7.157  0.0598  1.3533  0.4546
16632SOL     OW50967   5.954   3.236   5.204  0.2164  0.2531 -0.0777
16632SOL    HW150968   6.025   3.177   5.228  1.2524  2.0832  1.6982
16632SOL    HW250969   5.973   3.317   5.251 -2.7138  1.0557 -0.0545
16633SOL     OW50970   5.165   5.942   2.361 -0.0802  0.0803  0.0201
16633SOL    HW150971   5.132   6.014   2.414  1.6753  2.7455 -2.2612
16633SOL    HW250972   5.259   5.941   2.377 -0.1708 -2.6240  0.9252
16634SOL     OW50973   5.718   0.321   4.395 -0.1349  0.6259 -0.1269
16634SOL    HW150974   5.702   0.262   4.321  1.9653  1.1228 -1.0509
16634SOL    HW250975   5.790   0.377   4.366  0.5596  1.0580  2.2000
16635SOL     OW50976   6.921   6.329   3.997  0.9216 -0.3478 -0.6279
16635SOL    HW150977   6.997   6.273   3.979  1.8258  0.4048  0.7314
16635SOL    HW250978   6.911   6.381   3.917  1.5742 -0.7347 -0.9743
16636SOL     OW50979   7.689   4.335   6.306  0.0616  0.3234  0.0224
16636SOL    HW150980   7.723   4.304   6.222  2.2562  1.4312  0.4437
16636SOL    HW250981   7.609   4.283   6.320  0.6975 -1.2659 -1.7957
16637SOL     OW50982   6.812   3.825   3.008  0.5921 -0.8396  0.8498
16637SOL    HW150983   6.767   3.785   3.083 -1.3129 -0.2638  0.0597
16637SOL    HW250984   6.806   3.919   3.023 -0.4627 -0.6873 -0.3562
16638SOL     OW50985   0.117   3.151   5.532 -0.1619  0.5619  1.1420
16638SOL    HW150986   0.135   3.121   5.621  2.5468  0.5008  0.6635
16638SOL    HW250987   0.114   3.070   5.480  1.4396  0.7014  0.7526
16639SOL     OW50988   1.118   6.617   1.538 -0.0955 -0.4395  0.0893
16639SOL    HW150989   1.187   6.573   1.587  1.3563  0.3616 -1.1276
16639SOL    HW250990   1.037   6.589   1.580  0.9655 -1.1995  1.7529
16640SOL     OW50991   5.214   4.272   2.235 -0.3151  0.0821  0.4198
16640SOL    HW150992   5.223   4.178   2.251  2.4211  0.2432  0.2439
16640SOL    HW250993   5.252   4.313   2.313 -0.6803  1.0526  0.1055
16641SOL     OW50994   1.002   2.188   6.259 -0.5447 -0.4125  0.1547
16641SOL    HW150995   1.013   2.279   6.229  0.8670 -1.2145 -2.0205
16641SOL    HW250996   0.924   2.191   6.315 -0.0717  2.2630  0.8202
16642SOL     OW50997   4.137   3.018   6.357 -0.2417  0.1800  0.1970
16642SOL    HW150998   4.150   2.949   6.422 -0.4930  0.3413  0.4156
16642SOL    HW250999   4.042   3.027   6.349 -0.2874  2.3038  2.0913
16643SOL     OW51000   6.908   2.129   2.242 -0.6696  0.2523 -0.5461
16643SOL    HW151001   6.864   2.091   2.166 -1.6902  2.5864 -1.2075
16643SOL    HW251002   6.934   2.216   2.214  1.6223  0.1242  0.8710
16644SOL     OW51003   5.455   1.853   5.476 -0.1739  0.1483  0.0115
16644SOL    HW151004   5.423   1.943   5.466  0.2504  0.3208  0.2154
16644SOL    HW251005   5.540   1.852   5.433 -1.2317 -0.7885 -2.1883
16645SOL     OW51006   3.110   2.889   2.582 -0.1929 -0.1762 -0.3567
16645SOL    HW151007   3.129   2.870   2.490  1.3490  2.4242 -0.6789
16645SOL    HW251008   3.159   2.822   2.631 -0.9460 -1.5179 -1.3634
16646SOL     OW51009   1.410   7.873   5.777 -0.1012 -0.0283  0.0530
16646SOL    HW151010   1.468   7.927   5.831 -2.4954  0.7845  1.9704
16646SOL    HW251011   1.462   7.794   5.758  1.3970  0.3320  2.2660
16647SOL     OW51012   2.004   5.652   7.834  0.0143  0.0048  0.4430
16647SOL    HW151013   1.955   5.570   7.842 -0.3225  0.2839  1.3977
16647SOL    HW251014   2.032   5.671   7.923 -0.0760  1.0329  0.2566
16648SOL     OW51015   6.014   5.364   5.281 -0.2644  0.3202  0.2481
16648SOL    HW151016   6.032   5.387   5.372  0.8762 -2.1307  0.7396
16648SOL    HW251017   5.921   5.383   5.269 -0.6964 -0.2429  2.2726
16649SOL     OW51018   3.779   6.393   5.610  0.1668  0.2505  0.3959
16649SOL    HW151019   3.686   6.389   5.628 -0.1683  0.0325 -1.2130
16649SOL    HW251020   3.798   6.313   5.561  0.5248  1.7373 -2.0366
16650SOL     OW51021   1.695   1.731   1.557 -0.5380 -0.2522 -0.0194
16650SOL    HW151022   1.749   1.674   1.502 -0.2909 -0.7410  0.7125
16650SOL    HW251023   1.636   1.775   1.496  0.3431 -0.0920 -0.7836
16651SOL     OW51024   1.524   5.196   2.926 -0.0901  0.5189 -0.0078
16651SOL    HW151025   1.525   5.105   2.898  0.1925  0.7601 -0.7895
16651SOL    HW251026   1.616   5.220   2.936 -0.1102  1.0566 -0.9593
16652SOL     OW51027   6.919   1.421   1.137 -0.1006  0.0995  0.0781
16652SOL    HW151028   6.939   1.410   1.230  0.8044  1.5754  0.0868
16652SOL    HW251029   6.836   1.375   1.125 -2.1543  2.7749  2.4161
16653SOL     OW51030   6.764   2.571   2.654 -0.1787 -0.0841  0.2475
16653SOL    HW151031   6.794   2.515   2.726 -1.5740 -0.2144  0.7567
16653SOL    HW251032   6.723   2.510   2.593  0.4092  0.1091 -0.3397
16654SOL     OW51033   4.450   7.067   1.915  0.1045 -0.3285 -0.1305
16654SOL    HW151034   4.478   6.977   1.930 -2.2311 -0.9052  1.1931
16654SOL    HW251035   4.357   7.068   1.938  0.4909  2.8860  1.9208
16655SOL     OW51036   6.431   2.599   5.377  0.0585  0.1838 -0.2836
16655SOL    HW151037   6.410   2.627   5.466  0.2581  2.3502 -0.8479
16655SOL    HW251038   6.515   2.554   5.385  0.6408  1.3430  0.5012
16656SOL     OW51039   6.984   3.489   6.310 -0.0691  0.1412 -0.5325
16656SOL    HW151040   6.912   3.428   6.326  1.1328 -1.6334 -1.5399
16656SOL    HW251041   6.975   3.513   6.217 -1.5736  3.0286  0.2296
16657SOL     OW51042   0.710   3.422   0.771  0.3796 -1.0056  0.2636
16657SOL    HW151043   0.669   3.506   0.749  0.8341 -0.9093 -0.2420
16657SOL    HW251044   0.660   3.390   0.847  0.2206 -0.2646  0.4844
16658SOL     OW51045   6.789   5.759   4.527  0.1837  0.6238 -0.2742
16658SOL    HW151046   6.729   5.705   4.477 -1.4086  0.5460  1.5834
16658SOL    HW251047   6.824   5.701   4.595  2.7627  0.5571 -1.5510
16659SOL     OW51048   4.153   1.095   3.585 -0.6789  0.1116  0.2596
16659SOL    HW151049   4.100   1.133   3.656 -1.5863 -1.0598  0.2242
16659SOL    HW251050   4.159   1.002   3.607  0.4129  0.0285 -0.3508
16660SOL     OW51051   2.818   0.180   6.384  0.4584 -0.4891 -0.5885
16660SOL    HW151052   2.751   0.157   6.321 -0.3528  1.3697 -0.4731
16660SOL    HW251053   2.827   0.103   6.440 -0.4187 -1.3392 -1.5987
16661SOL     OW51054   3.994   2.033   1.592  0.1110  0.7228  0.8862
16661SOL    HW151055   4.050   1.978   1.647 -1.0755 -1.1502  0.2860
16661SOL    HW251056   3.918   2.053   1.646 -0.4217  0.0269  0.4049
16662SOL     OW51057   4.741   2.909   6.287 -0.0956  0.4087 -0.1091
16662SOL    HW151058   4.689   2.929   6.209 -0.2675  1.0231  0.1629
16662SOL    HW251059   4.713   2.821   6.312  0.0397  0.1578 -0.8015
16663SOL     OW51060   4.554   6.175   1.841 -0.5405  0.2258 -0.5070
16663SOL    HW151061   4.517   6.241   1.900 -0.7838  0.0258 -0.4376
16663SOL    HW251062   4.621   6.223   1.792 -1.6044  0.8575 -1.3826
16664SOL     OW51063   2.676   5.010   4.497  0.5896  0.0187  0.0791
16664SOL    HW151064   2.656   5.066   4.422  2.9903  0.7966 -0.0470
16664SOL    HW251065   2.654   5.063   4.573 -1.0988 -0.4826 -0.0068
16665SOL     OW51066   3.349   2.718   3.538 -0.3084  0.1698  0.7716
16665SOL    HW151067   3.398   2.692   3.460 -1.4574 -1.3008  0.4942
16665SOL    HW251068   3.388   2.801   3.565  1.9814 -0.6878  0.2824
16666SOL     OW51069   5.904   4.290   4.637 -0.2518  0.0022  0.2994
16666SOL    HW151070   5.834   4.272   4.574  1.7079 -0.2404 -1.9234
16666SOL    HW251071   5.887   4.379   4.668 -2.5508 -0.6974  1.2887
16667SOL     OW51072   6.102   3.901   4.015 -0.4610  0.0809 -0.0473
16667SOL    HW151073   6.143   3.856   3.941  0.2246  0.3914  0.1302
16667SOL    HW251074   6.013   3.866   4.019 -0.2437 -0.5385 -0.5104
16668SOL     OW51075   1.887   3.097   2.199  0.1745  0.2089  0.3899
16668SOL    HW151076   1.899   3.069   2.108  2.8918 -1.2763  1.0900
16668SOL    HW251077   1.960   3.156   2.215 -0.2372  0.4029  1.6517
16669SOL     OW51078   7.907   6.196   0.941  0.6979 -0.4397  0.2057
16669SOL    HW151079   7.995   6.220   0.911 -0.5540  2.4671 -1.6374
16669SOL    HW251080   7.886   6.264   1.006  0.0073 -1.4659  1.0713
16670SOL     OW51081   5.913   6.110   6.071 -0.1221 -0.1842 -0.1542
16670SOL    HW151082   5.958   6.150   6.145 -0.8218 -1.6129  1.0933
16670SOL    HW251083   5.976   6.048   6.035  0.7955  1.5981 -1.8046
16671SOL     OW51084   6.576   2.487   1.915  0.2447 -0.0571 -0.2205
16671SOL    HW151085   6.577   2.543   1.838  0.9177 -0.6420 -0.6465
16671SOL    HW251086   6.633   2.531   1.978 -2.9029  2.2424  1.3258
16672SOL     OW51087   2.491   4.439   3.657 -0.2192 -0.5821 -0.1987
16672SOL    HW151088   2.397   4.448   3.672  0.2810  2.2632  2.0824
16672SOL    HW251089   2.509   4.495   3.581 -0.3817 -1.4147 -0.8638
16673SOL     OW51090   2.760   3.041   2.936 -0.2096 -0.2312  0.3070
16673SOL    HW151091   2.808   2.960   2.920 -1.5726 -1.5071  2.1584
16673SOL    HW251092   2.806   3.082   3.010 -0.9778 -0.6324  1.0220
16674SOL     OW51093   7.271   4.346   1.183 -0.5689 -0.2597 -0.5024
16674SOL    HW151094   7.258   4.311   1.271 -0.1702  0.4076 -0.1765
16674SOL    HW251095   7.322   4.279   1.138  1.5798  0.5684  0.6040
16675SOL     OW51096   2.607   6.332   7.517  0.3139 -0.2695 -0.1933
16675SOL    HW151097   2.626   6.369   7.430  1.5180  1.2709  0.6780
16675SOL    HW251098   2.673   6.264   7.529 -0.3895 -1.0858 -0.8050
16676SOL     OW51099   1.311   2.518   2.715  0.1258 -0.6990 -0.1292
16676SOL    HW151100   1.400   2.510   2.749  0.0192  0.4756  0.4653
16676SOL    HW251101   1.319   2.572   2.637  0.1865 -2.3059 -1.2944
16677SOL     OW51102   4.107   3.230   7.698  0.2095  0.0450  0.3931
16677SOL    HW151103   4.076   3.142   7.678  1.5520 -0.5308  0.6827
16677SOL    HW251104   4.058   3.256   7.776 -0.0932 -0.5010  0.3879
16678SOL     OW51105   0.367   8.077   5.243 -0.8206  0.7950 -0.0056
16678SOL    HW151106   0.372   7.983   5.230 -2.8401  0.3048  2.1441
16678SOL    HW251107   0.451   8.100   5.283 -0.4167 -0.1253 -0.3039
16679SOL     OW51108   6.230   6.325   1.298  0.6586 -0.0445  0.7685
16679SOL    HW151109   6.255   6.246   1.251  0.0880  1.0501 -1.5113
16679SOL    HW251110   6.135   6.328   1.291  0.6810  0.8854  0.7081
16680SOL     OW51111   7.634   6.012   2.718 -0.0229 -0.1734  0.0931
16680SOL    HW151112   7.682   5.974   2.644 -0.7599 -2.4661  0.7028
16680SOL    HW251113   7.608   5.937   2.771 -2.4651  1.1162  0.9067
16681SOL     OW51114   4.466   4.150   1.918 -0.0733  0.5267 -0.6144
16681SOL    HW151115   4.462   4.243   1.939 -0.7907  1.5012 -4.3102
16681SOL    HW251116   4.510   4.147   1.833  1.7116 -2.7702  0.2482
16682SOL     OW51117   7.297   4.005   4.222 -0.0649 -0.6724 -0.3002
16682SOL    HW151118   7.252   4.073   4.173 -0.7636  0.4724  1.8151
16682SOL    HW251119   7.256   4.006   4.309  1.8942 -1.7567  0.7193
16683SOL     OW51120   1.852   6.981   0.273  0.3907  0.2467  0.3813
16683SOL    HW151121   1.816   6.892   0.270 -0.2563  0.4980  0.5204
16683SOL    HW251122   1.940   6.972   0.238  0.1472 -0.3642 -0.0980
16684SOL     OW51123   7.671   0.870   7.435 -0.9087 -0.0913  0.1195
16684SOL    HW151124   7.714   0.933   7.377 -2.0821 -0.9268 -1.7233
16684SOL    HW251125   7.596   0.918   7.471 -0.4008  0.3045  0.6746
16685SOL     OW51126   6.648   3.941   0.106  0.4741 -0.1085 -0.0294
16685SOL    HW151127   6.677   3.968   0.193  0.2999  0.8483 -0.2548
16685SOL    HW251128   6.682   3.852   0.095  3.5992  1.0051 -0.3995
16686SOL     OW51129   0.426   6.272   5.686  0.7567  0.5528 -0.4569
16686SOL    HW151130   0.489   6.217   5.639  0.9747 -0.5309  1.0551
16686SOL    HW251131   0.424   6.236   5.774 -0.5904  1.7610  0.0305
16687SOL     OW51132   4.185   8.124   2.110  0.2328 -0.1834 -0.0200
16687SOL    HW151133   4.229   8.043   2.084 -0.8973 -0.8560  0.1185
16687SOL    HW251134   4.256   8.188   2.116  1.4291 -1.5748  1.6425
16688SOL     OW51135   3.149   8.008   1.083 -0.0992  0.0854  0.0145
16688SOL    HW151136   3.218   7.990   1.019 -0.9438 -1.3812 -0.5500
16688SOL    HW251137   3.165   8.098   1.112  0.4996  0.6960 -2.0385
16689SOL     OW51138   2.798   2.281   7.332 -0.0158  0.0600 -0.2717
16689SOL    HW151139   2.812   2.330   7.413 -3.4584  0.0401  0.4777
16689SOL    HW251140   2.830   2.339   7.263  0.8742  1.0435  0.9243
16690SOL     OW51141   2.768   0.683   3.744 -0.1389  0.2733 -0.8445
16690SOL    HW151142   2.813   0.615   3.694  0.1963  1.1383 -1.7591
16690SOL    HW251143   2.738   0.639   3.823  2.2959 -0.3768 -0.1987
16691SOL     OW51144   0.924   2.352   5.330 -0.0595  0.7104  0.0991
16691SOL    HW151145   0.982   2.279   5.309 -1.1004  0.6054 -2.7915
16691SOL    HW251146   0.837   2.312   5.339 -0.2457  1.2966  1.1187
16692SOL     OW51147   1.447   6.612   7.979  0.4973 -0.0349 -0.0896
16692SOL    HW151148   1.467   6.641   7.890  0.9673 -0.0564  0.0066
16692SOL    HW251149   1.394   6.683   8.016  2.3699  1.1651  0.4408
16693SOL     OW51150   7.457   4.376   5.884 -0.6480  1.0602  0.5341
16693SOL    HW151151   7.551   4.392   5.870 -0.6222  0.3162 -0.2093
16693SOL    HW251152   7.443   4.397   5.976  0.8858 -1.7195  1.5182
16694SOL     OW51153   4.090   1.269   5.029 -0.3597 -0.1840 -0.2029
16694SOL    HW151154   4.080   1.261   5.124  0.4947  0.3800 -0.0495
16694SOL    HW251155   4.044   1.350   5.007  1.0891  0.7490  0.0452
16695SOL     OW51156   1.337   6.885   0.726 -0.0003 -0.2685 -0.0439
16695SOL    HW151157   1.262   6.944   0.738 -2.2585 -2.8221 -0.4326
16695SOL    HW251158   1.402   6.937   0.679 -1.1489  2.3416  1.0773
16696SOL     OW51159   3.158   4.976   3.624 -0.5441 -0.3281  0.1582
16696SOL    HW151160   3.195   5.052   3.579 -3.5535  1.0942 -0.1160
16696SOL    HW251161   3.134   4.915   3.554 -0.6022 -0.3518  0.1986
16697SOL     OW51162   2.658   3.161   5.510 -0.1665 -0.2751 -0.1199
16697SOL    HW151163   2.594   3.089   5.514 -0.6409  0.0295 -1.5914
16697SOL    HW251164   2.687   3.162   5.419  2.7355 -1.0355  0.6699
16698SOL     OW51165   1.189   1.850   4.554 -0.4582 -0.3165  0.2357
16698SOL    HW151166   1.197   1.755   4.556  1.3076 -0.2822 -1.4943
16698SOL    HW251167   1.280   1.882   4.549 -0.8827  1.5800  2.5532
16699SOL     OW51168   8.142   2.543   7.605  0.5513 -0.0762 -0.0571
16699SOL    HW151169   8.214   2.604   7.587  1.3620 -0.5150  1.5321
16699SOL    HW251170   8.099   2.531   7.521  0.9760  1.9232 -0.6077
16700SOL     OW51171   2.476   6.829   4.907  0.4633  0.2981 -0.1032
16700SOL    HW151172   2.394   6.786   4.930  1.1118 -0.0981  1.5654
16700SOL    HW251173   2.517   6.769   4.845  0.5375 -0.6567  0.8307
16701SOL     OW51174   2.736   6.706   5.096  0.5346 -0.2677  0.6102
16701SOL    HW151175   2.826   6.738   5.082  0.4259 -0.1153  0.2397
16701SOL    HW251176   2.705   6.685   5.008 -0.4529  1.4758  0.4986
16702SOL     OW51177   3.676   5.788   1.261 -0.0428  0.1817  0.2127
16702SOL    HW151178   3.587   5.801   1.293  0.3926 -1.2993  2.2669
16702SOL    HW251179   3.716   5.875   1.265 -0.7655  0.4786  1.3753
16703SOL     OW51180   4.948   6.005   3.273 -1.1491  0.1294  0.6433
16703SOL    HW151181   5.000   6.020   3.352  0.3407 -2.0004  0.1539
16703SOL    HW251182   4.907   5.919   3.287  0.4571 -1.0921 -1.4940
16704SOL     OW51183   5.075   7.540   1.018 -0.2415  0.6981  0.2180
16704SOL    HW151184   4.986   7.575   1.024 -0.2579  0.4676  2.4536
16704SOL    HW251185   5.129   7.608   1.060  0.6451  0.7922 -1.0325
16705SOL     OW51186   5.322   5.423   3.917  0.1656 -0.0548  0.5238
16705SOL    HW151187   5.246   5.420   3.860  0.5103  1.9981 -0.1319
16705SOL    HW251188   5.286   5.442   4.004 -0.2461 -1.7291  0.7400
16706SOL     OW51189   6.009   3.488   3.073  0.4331 -0.3236  0.1730
16706SOL    HW151190   6.050   3.561   3.025 -2.0601  0.7081 -0.5226
16706SOL    HW251191   6.065   3.413   3.053  1.5994  0.8454 -1.2789
16707SOL     OW51192   7.746   2.520   4.351  0.3553  0.3971 -0.4518
16707SOL    HW151193   7.777   2.472   4.428 -1.0207  0.2871  0.0648
16707SOL    HW251194   7.791   2.479   4.277 -0.1165 -1.1051  0.0657
16708SOL     OW51195   4.702   2.529   1.343 -1.2179 -0.1429 -0.3364
16708SOL    HW151196   4.636   2.567   1.400 -0.5027  0.7938 -0.0973
16708SOL    HW251197   4.658   2.456   1.299 -2.5771  0.8311 -0.6427
16709SOL     OW51198   3.080   0.551   2.966 -0.2862 -0.1327 -0.0809
16709SOL    HW151199   3.048   0.493   3.035  0.8665 -0.4851  0.1909
16709SOL    HW251200   3.070   0.639   3.002 -1.2301 -0.2148 -0.1396
16710SOL     OW51201   2.553   5.772   6.559  0.0841 -0.0610  0.2097
16710SOL    HW151202   2.626   5.819   6.598  0.2334 -0.3978  0.3337
16710SOL    HW251203   2.580   5.680   6.557  0.5707  0.0839 -1.7794
16711SOL     OW51204   4.667   6.363   4.063 -0.2039  0.2337  0.1203
16711SOL    HW151205   4.742   6.303   4.062  0.1255  0.6288  0.6262
16711SOL    HW251206   4.698   6.439   4.112 -1.0317  0.2783  0.5859
16712SOL     OW51207   0.971   3.605   6.247  0.1695 -0.9150 -0.3785
16712SOL    HW151208   0.944   3.547   6.176 -0.6648  0.1084 -0.9389
16712SOL    HW251209   1.003   3.684   6.203  1.6615 -1.0747  0.3551
16713SOL     OW51210   1.573   2.280   5.121  0.6546 -0.5089 -0.5759
16713SOL    HW151211   1.503   2.256   5.060  0.6526 -0.6877 -0.5062
16713SOL    HW251212   1.620   2.352   5.078 -0.9517  1.1705  0.3499
16714SOL     OW51213   0.144   1.604   0.784  0.2459 -0.6017 -0.3044
16714SOL    HW151214   0.130   1.521   0.739 -0.9306 -0.8893  0.5622
16714SOL    HW251215   0.059   1.627   0.820  0.4085  1.3057 -1.0414
16715SOL     OW51216   1.746   7.738   6.431  0.2791  0.4838 -0.3816
16715SOL    HW151217   1.718   7.830   6.432  0.5422  0.5751  0.8235
16715SOL    HW251218   1.775   7.722   6.342  0.5591  1.6773 -0.5197
16716SOL     OW51219   2.762   6.992   4.908 -0.2426  0.4780 -0.6134
16716SOL    HW151220   2.847   6.953   4.927  1.1738  3.4661 -0.1310
16716SOL    HW251221   2.756   6.994   4.813  1.3438  2.2587 -0.7247
16717SOL     OW51222   3.714   1.232   3.377  0.2222  0.8651  0.0431
16717SOL    HW151223   3.715   1.194   3.289  0.3727 -0.0340  0.4258
16717SOL    HW251224   3.632   1.281   3.380 -0.5799 -0.4268 -0.0500
16718SOL     OW51225   1.532   0.681   6.524  0.0168  0.2146  0.5257
16718SOL    HW151226   1.601   0.617   6.545 -0.2003  0.0791  0.8318
16718SOL    HW251227   1.580   0.758   6.492  0.2495 -0.3664 -0.5815
16719SOL     OW51228   6.132   5.438   1.537 -0.4733  0.6561  0.5883
16719SOL    HW151229   6.186   5.437   1.617 -0.4861  2.6782  0.6596
16719SOL    HW251230   6.178   5.379   1.477  2.0560  2.5466  0.5355
16720SOL     OW51231   4.316   6.015   2.848  0.3181 -0.2683  0.1427
16720SOL    HW151232   4.381   6.086   2.851 -1.4190  1.3482  1.5998
16720SOL    HW251233   4.363   5.942   2.807  3.5893  0.2570  2.5655
16721SOL     OW51234   4.058   1.676   7.441  1.4287  0.2074 -0.5655
16721SOL    HW151235   3.994   1.605   7.443  1.3327  0.2565 -1.3457
16721SOL    HW251236   4.132   1.640   7.392  1.0377  0.9040 -1.7072
16722SOL     OW51237   4.921   7.169   3.881  0.3877  0.5482 -0.6091
16722SOL    HW151238   4.867   7.248   3.875 -0.2074  0.2073  0.0598
16722SOL    HW251239   5.010   7.198   3.860  0.5819  1.8335  1.6862
16723SOL     OW51240   1.043   4.663   0.930  0.5894 -0.3004  0.5846
16723SOL    HW151241   1.121   4.690   0.978 -0.6083  0.4525  2.2009
16723SOL    HW251242   0.998   4.744   0.910  0.8793 -0.6304 -1.5779
16724SOL     OW51243   2.176   5.440   3.018 -0.4144  0.5619  0.2481
16724SOL    HW151244   2.251   5.395   3.057 -1.1837 -0.1112  0.9862
16724SOL    HW251245   2.102   5.415   3.073 -1.2902  0.7275 -0.8262
16725SOL     OW51246   1.544   2.672   6.161 -0.2037 -0.6181  0.2559
16725SOL    HW151247   1.459   2.681   6.119 -0.2182 -1.6301  0.0453
16725SOL    HW251248   1.582   2.760   6.158 -1.0885 -0.2365  0.0398
16726SOL     OW51249   2.297   4.620   6.769 -0.1880  0.4058  0.4388
16726SOL    HW151250   2.299   4.654   6.858  0.7823  0.8797  0.2483
16726SOL    HW251251   2.205   4.601   6.753 -0.3537  0.1195  1.6139
16727SOL     OW51252   5.157   7.589   1.389  0.3733  0.1207  0.1977
16727SOL    HW151253   5.214   7.666   1.381  0.3892  0.0119 -0.8706
16727SOL    HW251254   5.146   7.558   1.299 -0.3069 -0.6414  0.5331
16728SOL     OW51255   2.326   2.620   3.562  0.2230  1.1382 -0.3980
16728SOL    HW151256   2.332   2.705   3.607 -0.8500  1.2569 -0.4477
16728SOL    HW251257   2.417   2.596   3.545  0.6826  1.2097  1.6261
16729SOL     OW51258   7.026   2.249   3.839 -0.0023  0.3652 -0.1954
16729SOL    HW151259   6.984   2.303   3.906  0.9665  0.6194  0.2256
16729SOL    HW251260   6.988   2.280   3.757 -1.9394 -0.6342  0.2713
16730SOL     OW51261   4.977   4.447   7.175 -0.4047  0.2568 -0.0875
16730SOL    HW151262   5.006   4.498   7.100  1.6255  0.0337  0.4930
16730SOL    HW251263   4.970   4.358   7.142 -0.0895  0.2590 -0.1628
16731SOL     OW51264   8.111   0.992   4.989  0.3547  0.5166 -0.1457
16731SOL    HW151265   8.206   0.980   4.980  0.6113  1.3983  1.1462
16731SOL    HW251266   8.080   1.008   4.900  0.9983 -2.3032 -0.9887
16732SOL     OW51267   4.577   5.708   7.210  1.0006  0.0615 -0.3453
16732SOL    HW151268   4.642   5.649   7.249  0.6592 -0.2861 -0.2792
16732SOL    HW251269   4.551   5.664   7.129 -0.6266 -0.8698  0.6055
16733SOL     OW51270   4.567   6.053   3.695 -0.5110  0.1390  0.4176
16733SOL    HW151271   4.547   5.962   3.675  0.3832 -0.1653  0.8446
16733SOL    HW251272   4.650   6.069   3.649 -0.2672  0.4952  0.9768
16734SOL     OW51273   1.821   3.901   2.408  0.3550 -0.2673 -0.3713
16734SOL    HW151274   1.819   3.928   2.316  0.3163  0.5280 -0.1434
16734SOL    HW251275   1.897   3.843   2.414  2.2735  2.1478 -0.2554
16735SOL     OW51276   0.010   7.055   5.732 -0.3542 -0.4736 -0.1956
16735SOL    HW151277  -0.085   7.060   5.724 -0.3883  0.0716  0.4932
16735SOL    HW251278   0.042   7.137   5.693 -0.1254 -0.9030 -0.9371
16736SOL     OW51279   7.417   2.003   7.727 -0.3355  0.1158 -0.1118
16736SOL    HW151280   7.443   2.021   7.818 -1.7035 -0.9435  0.5170
16736SOL    HW251281   7.324   1.981   7.733 -0.1793 -1.0386 -1.6349
16737SOL     OW51282   3.685   0.307   0.922 -0.2568 -0.4009 -0.6552
16737SOL    HW151283   3.702   0.401   0.930  0.1478 -0.5366  0.3088
16737SOL    HW251284   3.760   0.273   0.873  0.3134 -0.4107  0.1935
16738SOL     OW51285   5.323   7.063   2.886 -0.5155  0.5395 -0.2771
16738SOL    HW151286   5.415   7.047   2.906 -0.8631  0.3971  1.3176
16738SOL    HW251287   5.321   7.154   2.855  0.4205 -0.0764 -2.3956
16739SOL     OW51288   0.862   0.827   7.815 -0.1135 -0.4797  0.0165
16739SOL    HW151289   0.770   0.821   7.790  0.1405  0.0362 -1.0959
16739SOL    HW251290   0.909   0.778   7.747  0.4793 -0.2722  0.2637
16740SOL     OW51291   4.510   4.750   1.180 -0.2064 -0.3458  0.0298
16740SOL    HW151292   4.437   4.694   1.204  0.3947 -1.1275  0.0864
16740SOL    HW251293   4.495   4.772   1.088 -0.8612  0.0488  0.2331
16741SOL     OW51294   2.201   3.122   4.614 -0.1102 -0.0898  0.1295
16741SOL    HW151295   2.118   3.074   4.609 -0.5237  0.4110  1.7058
16741SOL    HW251296   2.266   3.060   4.581 -1.1572 -0.2865 -1.7014
16742SOL     OW51297   0.218   2.116   0.129  0.2526  0.3529  0.5893
16742SOL    HW151298   0.179   2.063   0.199 -0.9877 -0.2612 -0.5454
16742SOL    HW251299   0.296   2.067   0.103  0.6779  0.5427  1.4567
16743SOL     OW51300   5.585   2.680   0.584 -0.0323 -0.2739 -0.4573
16743SOL    HW151301   5.588   2.673   0.679 -1.3443  2.2147 -0.1551
16743SOL    HW251302   5.541   2.599   0.556 -1.3791 -0.1932  1.2391
16744SOL     OW51303   5.700   4.413   1.965 -0.2981  0.1355  0.0251
16744SOL    HW151304   5.625   4.358   1.943  1.2369 -1.4316 -1.6328
16744SOL    HW251305   5.692   4.488   1.906 -1.0133  0.4477  0.4986
16745SOL     OW51306   6.096   0.604   7.011  0.6330  0.0072  0.1563
16745SOL    HW151307   6.131   0.527   6.966 -0.9045  0.6786 -2.3762
16745SOL    HW251308   6.148   0.677   6.976 -0.1827  0.4695 -0.1300
16746SOL     OW51309   2.726   5.894   1.479  0.1860 -0.2704  0.2896
16746SOL    HW151310   2.763   5.807   1.495 -0.0854 -0.6031 -0.8099
16746SOL    HW251311   2.767   5.950   1.546  0.5291 -1.1884  0.8671
16747SOL     OW51312   7.722   3.306   7.189 -0.0772  0.2588  0.3187
16747SOL    HW151313   7.759   3.381   7.237  0.6014  1.3935 -1.8348
16747SOL    HW251314   7.768   3.307   7.105 -0.6721 -2.1066 -0.0858
16748SOL     OW51315   7.315   7.541   4.197 -0.4181 -0.9515 -0.0146
16748SOL    HW151316   7.355   7.522   4.112  1.0654  0.8430  0.2165
16748SOL    HW251317   7.230   7.579   4.175 -0.3724 -1.2181 -0.6791
16749SOL     OW51318   3.752   2.855   2.601 -0.4549 -1.2488 -0.2399
16749SOL    HW151319   3.739   2.763   2.579 -2.3137 -1.0868  0.0926
16749SOL    HW251320   3.664   2.890   2.615  0.1776  0.6829 -0.7540
16750SOL     OW51321   4.248   2.008   4.840 -0.2768 -0.4919 -0.0772
16750SOL    HW151322   4.324   2.005   4.781 -0.6239  0.2643 -0.5823
16750SOL    HW251323   4.182   1.955   4.796 -0.8217  0.7468 -0.8173
16751SOL     OW51324   8.136   1.808   5.028  0.0243 -0.5571 -0.6288
16751SOL    HW151325   8.132   1.746   4.955  0.4641  0.0501 -1.1733
16751SOL    HW251326   8.131   1.894   4.987  0.4914 -0.2072  0.0392
16752SOL     OW51327   2.897   7.885   1.757 -0.9254  0.0759  0.2053
16752SOL    HW151328   2.869   7.846   1.674  0.4890  3.9970 -2.4337
16752SOL    HW251329   2.830   7.951   1.775  0.6728  1.8110  0.0405
16753SOL     OW51330   5.475   1.178   4.320  0.0232  0.2369  0.0819
16753SOL    HW151331   5.548   1.204   4.376  0.1884 -1.7710  0.8639
16753SOL    HW251332   5.516   1.164   4.234  0.2135  0.9044  0.0571
16754SOL     OW51333   2.444   3.585   5.041  0.2180  0.2895 -0.5984
16754SOL    HW151334   2.469   3.523   5.109  1.1430  1.2483 -0.0250
16754SOL    HW251335   2.378   3.539   4.989  0.6680 -1.0495 -0.0268
16755SOL     OW51336   0.885   0.167   1.381  0.3542  0.6713 -0.3465
16755SOL    HW151337   0.846   0.107   1.443 -0.9842  1.0441 -0.7903
16755SOL    HW251338   0.950   0.217   1.432  0.9831 -0.6417  0.1692
16756SOL     OW51339   2.259   6.480   7.964  0.6868  0.2317 -0.0338
16756SOL    HW151340   2.182   6.432   7.933 -0.5568  0.9501  1.7313
16756SOL    HW251341   2.235   6.572   7.952  1.1083  0.4673  0.8519
16757SOL     OW51342   0.910   1.483   6.266 -0.3398 -0.3475 -0.0491
16757SOL    HW151343   0.975   1.549   6.293 -0.7445 -0.1149  0.3571
16757SOL    HW251344   0.896   1.501   6.173  0.6335 -0.7885 -0.2927
16758SOL     OW51345   7.667   4.444   6.897  0.4760 -0.6602  0.4290
16758SOL    HW151346   7.616   4.382   6.949 -1.5866  0.5027 -0.1115
16758SOL    HW251347   7.678   4.520   6.954 -4.0420  1.7121 -1.4123
16759SOL     OW51348   6.101   2.404   8.026 -0.0009 -0.0851 -0.1263
16759SOL    HW151349   6.183   2.450   8.008  0.6776 -1.1370  0.2079
16759SOL    HW251350   6.045   2.425   7.952 -0.1138  2.1349  0.5068
16760SOL     OW51351   1.029   2.455   3.743 -0.0592 -0.0319 -0.4255
16760SOL    HW151352   1.053   2.518   3.810  3.0453 -1.4734  0.0201
16760SOL    HW251353   1.110   2.440   3.693 -1.5421 -1.0856 -2.7330
16761SOL     OW51354   7.384   2.588   7.624 -0.3016 -0.8469 -0.4262
16761SOL    HW151355   7.412   2.506   7.663  1.2992 -0.5032 -0.7643
16761SOL    HW251356   7.338   2.562   7.544 -0.8051 -1.4413  0.0495
16762SOL     OW51357   4.907   5.105   7.213 -0.0554 -0.9854 -0.1726
16762SOL    HW151358   4.991   5.059   7.204  1.4077  1.7193 -1.3656
16762SOL    HW251359   4.876   5.081   7.301  1.2437 -3.1350 -0.2331
16763SOL     OW51360   0.799   4.856   3.073  0.0976  0.1230 -0.0440
16763SOL    HW151361   0.872   4.800   3.046 -0.0310  0.2035 -0.5774
16763SOL    HW251362   0.840   4.938   3.100  0.1893  0.3119 -0.7222
16764SOL     OW51363   4.923   3.176   2.070 -0.5831  0.2608  0.2701
16764SOL    HW151364   4.970   3.255   2.100 -0.4139  0.6341 -0.9359
16764SOL    HW251365   4.854   3.209   2.013 -1.0920 -0.4188  0.4828
16765SOL     OW51366   5.474   2.432   1.484 -0.6193  0.1720 -0.2089
16765SOL    HW151367   5.516   2.477   1.557 -0.4310  0.1176 -0.2803
16765SOL    HW251368   5.409   2.494   1.451 -0.4795  0.3263 -0.1993
16766SOL     OW51369   1.006   7.867   0.118 -0.2202  0.0981  0.6577
16766SOL    HW151370   0.944   7.807   0.159 -1.5090 -0.2265 -1.5562
16766SOL    HW251371   0.967   7.954   0.131 -1.1196 -0.0876 -0.5550
16767SOL     OW51372   3.491   0.793   7.321  0.5972  0.2633 -0.3726
16767SOL    HW151373   3.478   0.763   7.411  1.1373  0.1440 -0.3300
16767SOL    HW251374   3.411   0.767   7.275 -0.3685  1.7251  0.4184
16768SOL     OW51375   3.067   6.252   7.287 -0.7118 -0.0784  0.8707
16768SOL    HW151376   3.103   6.283   7.204 -1.6198 -1.7514 -0.2070
16768SOL    HW251377   3.008   6.322   7.315 -1.5109 -0.0816 -0.6795
16769SOL     OW51378   5.499   7.686   3.078 -0.2863 -0.2421 -0.2152
16769SOL    HW151379   5.446   7.686   3.158  0.2327 -1.2772  0.1596
16769SOL    HW251380   5.525   7.594   3.067 -1.2810 -0.3470 -2.2208
16770SOL     OW51381   7.346   6.883   3.144 -0.9766  0.0373 -0.3187
16770SOL    HW151382   7.417   6.847   3.197 -0.6689 -1.5838 -1.7307
16770SOL    HW251383   7.276   6.901   3.206 -0.2862 -0.9014  0.7568
16771SOL     OW51384   7.642   3.251   6.847 -0.8001  0.2599 -0.3397
16771SOL    HW151385   7.684   3.293   6.922 -1.1044  1.0804 -0.6117
16771SOL    HW251386   7.643   3.318   6.778  1.1503 -1.0744 -1.7175
16772SOL     OW51387   4.076   7.866   0.086  0.0382  0.1671  0.3278
16772SOL    HW151388   4.048   7.941   0.140  0.8656  1.2136 -0.6566
16772SOL    HW251389   4.001   7.848   0.030 -0.5129 -0.3752  1.2088
16773SOL     OW51390   0.954   2.545   0.235 -0.4184 -0.0474 -0.6685
16773SOL    HW151391   0.986   2.582   0.153 -0.6694  2.9750  0.4651
16773SOL    HW251392   0.867   2.510   0.214 -0.9939  1.7692 -1.4920
16774SOL     OW51393   4.843   5.089   6.169  0.6191  0.0909  0.2655
16774SOL    HW151394   4.788   5.131   6.235 -0.6302 -1.2494  0.1179
16774SOL    HW251395   4.799   5.108   6.086 -0.5070 -2.2053  0.2697
16775SOL     OW51396   6.140   0.622   6.672  0.3471  0.4247  0.1207
16775SOL    HW151397   6.203   0.693   6.684  1.6361 -0.9363  2.2362
16775SOL    HW251398   6.192   0.551   6.633 -0.5345  0.1320 -0.5336
16776SOL     OW51399   5.709   3.501   2.231 -0.3016 -0.8467 -0.4179
16776SOL    HW151400   5.654   3.505   2.309 -1.3818 -1.9460 -1.0950
16776SOL    HW251401   5.725   3.407   2.217  3.0219 -0.5662  0.5950
16777SOL     OW51402   0.924   0.781   0.122  0.5487 -0.1964  0.6126
16777SOL    HW151403   0.936   0.798   0.216 -1.2406 -0.7408  0.9816
16777SOL    HW251404   0.926   0.868   0.082  1.1694  0.0608  1.1815
16778SOL     OW51405   3.832   5.926   6.950 -1.0435 -0.5262  0.1736
16778SOL    HW151406   3.906   5.888   6.903 -0.4396 -0.8313  1.3436
16778SOL    HW251407   3.864   6.010   6.983 -1.9943  0.4782 -1.3631
16779SOL     OW51408   7.894   0.063   3.514 -0.4278  0.0305 -0.3096
16779SOL    HW151409   7.876   0.051   3.421  0.7103  1.8434 -0.8077
16779SOL    HW251410   7.836   0.001   3.558 -0.3854 -1.4566 -2.2448
16780SOL     OW51411   4.047   1.385   1.910 -0.3615  0.7759  0.2374
16780SOL    HW151412   4.142   1.377   1.913 -0.3214  1.1130 -0.0910
16780SOL    HW251413   4.026   1.445   1.982 -0.4736 -0.5405  1.3317
16781SOL     OW51414   5.304   5.459   4.399 -0.0811  0.4153  0.2359
16781SOL    HW151415   5.252   5.462   4.318  0.4804  0.5144 -0.1291
16781SOL    HW251416   5.276   5.536   4.449  0.1205  0.7866 -0.2144
16782SOL     OW51417   3.839   3.231   1.242 -0.5691  0.0213  0.2384
16782SOL    HW151418   3.767   3.216   1.304 -0.1117  1.1818  1.0962
16782SOL    HW251419   3.904   3.164   1.264  0.0791  1.1089  1.8383
16783SOL     OW51420   4.668   7.668   1.312 -0.0655  0.4500  0.1842
16783SOL    HW151421   4.718   7.669   1.394 -0.4151 -0.3325  0.4135
16783SOL    HW251422   4.632   7.579   1.307 -1.6430  1.0675  0.1471
16784SOL     OW51423   2.649   2.336   1.588 -0.0808  0.6072 -0.0570
16784SOL    HW151424   2.633   2.320   1.495  0.4711  0.4234 -0.1262
16784SOL    HW251425   2.566   2.370   1.621 -0.5771 -0.2532 -0.4051
16785SOL     OW51426   4.607   0.976   4.840 -0.2652  0.1612 -0.0678
16785SOL    HW151427   4.595   1.041   4.770  1.3954  0.2130 -0.3521
16785SOL    HW251428   4.527   0.924   4.838 -1.1487  1.4865 -0.5977
16786SOL     OW51429   6.141   3.710   2.980 -0.4701  0.1284  0.0259
16786SOL    HW151430   6.233   3.737   2.987 -0.6596  1.1594 -1.0780
16786SOL    HW251431   6.095   3.766   3.042 -0.3631 -0.3914  0.5823
16787SOL     OW51432   3.147   3.879   4.771  0.0433  0.0791  0.2981
16787SOL    HW151433   3.178   3.807   4.825  1.0054 -1.5638 -2.2737
16787SOL    HW251434   3.060   3.852   4.741  0.4752 -0.1355 -0.8062
16788SOL     OW51435   2.161   2.921   5.815 -0.0569  0.2583  0.6938
16788SOL    HW151436   2.176   3.006   5.774 -2.9909 -0.4933 -2.4415
16788SOL    HW251437   2.096   2.938   5.883  0.8488  0.7705  1.4469
16789SOL     OW51438   1.561   0.369   1.051  0.0362  0.0851 -0.6667
16789SOL    HW151439   1.531   0.394   1.139  0.6516 -1.1908 -0.0781
16789SOL    HW251440   1.625   0.436   1.028 -0.8100  0.9621 -0.5533
16790SOL     OW51441   2.426   6.286   4.449  0.1882  0.3938 -0.1029
16790SOL    HW151442   2.515   6.317   4.439  0.6937 -0.6467  0.9505
16790SOL    HW251443   2.425   6.201   4.405 -0.1469  0.1789  0.3147
16791SOL     OW51444   6.292   4.498   2.902 -0.0140  0.4035 -0.1814
16791SOL    HW151445   6.238   4.566   2.942 -1.3876  0.5870 -2.2137
16791SOL    HW251446   6.376   4.540   2.886 -0.3287  1.1310  0.0524
16792SOL     OW51447   6.192   5.656   1.189  0.5463 -0.8043 -0.1563
16792SOL    HW151448   6.121   5.646   1.126  0.1185 -0.4952  0.2705
16792SOL    HW251449   6.150   5.690   1.267  0.8918 -2.2052  0.6753
16793SOL     OW51450   8.105   7.417   3.432 -0.6025  0.2675  0.4912
16793SOL    HW151451   8.032   7.468   3.395 -0.3887  0.3767  0.2113
16793SOL    HW251452   8.069   7.377   3.510 -0.5603  1.5183  1.1864
16794SOL     OW51453   0.028   5.924   2.654 -0.2074 -0.7618  0.1457
16794SOL    HW151454   0.069   5.859   2.597  1.1797  0.4264 -0.2736
16794SOL    HW251455   0.083   5.924   2.732  0.0177  0.1478 -0.0085
16795SOL     OW51456   5.483   6.688   3.887  0.0287 -0.3855  0.0010
16795SOL    HW151457   5.551   6.720   3.828 -0.4777 -0.3841 -0.5838
16795SOL    HW251458   5.493   6.741   3.966  1.1284 -0.8179  0.1715
16796SOL     OW51459   7.260   6.483   1.836  0.4345  0.0970  0.4404
16796SOL    HW151460   7.257   6.534   1.755  2.4512  0.9663  0.8557
16796SOL    HW251461   7.199   6.529   1.895  0.4604  0.6389  0.0538
16797SOL     OW51462   5.458   2.654   2.569  0.5756 -0.0212  0.4007
16797SOL    HW151463   5.505   2.637   2.651  1.0643 -0.5327  0.0224
16797SOL    HW251464   5.436   2.567   2.536 -0.3791  0.2067  0.4214
16798SOL     OW51465   0.744   0.754   3.034  0.0122 -0.2637 -0.5350
16798SOL    HW151466   0.800   0.677   3.038  2.0510  1.1260 -0.5202
16798SOL    HW251467   0.701   0.757   3.120 -1.2689 -2.1506 -1.0591
16799SOL     OW51468   7.034   6.536   6.570  0.2305  0.7485  0.1355
16799SOL    HW151469   6.986   6.511   6.649 -0.2172 -2.9669 -1.1347
16799SOL    HW251470   6.987   6.613   6.537 -2.8660 -0.7088  0.7711
16800SOL     OW51471   5.199   2.122   0.923 -0.1003  0.1135  0.0351
16800SOL    HW151472   5.155   2.066   0.986  0.0980  0.0432  0.1108
16800SOL    HW251473   5.187   2.211   0.958 -1.4084  0.2334 -0.6822
16801SOL     OW51474   2.504   4.686   1.355 -0.3075 -0.4770 -0.4241
16801SOL    HW151475   2.463   4.623   1.296 -0.5383 -1.7443  1.0087
16801SOL    HW251476   2.508   4.640   1.439 -0.1483  1.3106  0.5916
16802SOL     OW51477   8.151   3.165   4.767 -0.3816  0.3921  0.0282
16802SOL    HW151478   8.172   3.210   4.685  1.1640  0.5179  0.4628
16802SOL    HW251479   8.230   3.175   4.821 -1.1975 -0.0911  1.3537
16803SOL     OW51480   6.963   2.020   7.368 -0.0877 -0.5532  0.2642
16803SOL    HW151481   6.951   1.961   7.442 -1.2563 -0.3574  0.2462
16803SOL    HW251482   6.879   2.018   7.322  0.5671 -0.5595 -0.9728
16804SOL     OW51483   5.577   3.704   2.837  0.0603 -0.2917  0.3183
16804SOL    HW151484   5.595   3.798   2.836  1.0584 -0.4360  1.9388
16804SOL    HW251485   5.662   3.663   2.848 -0.4408 -1.3683  0.3505
16805SOL     OW51486   7.693   2.669   2.394 -0.4427 -0.5884  0.0254
16805SOL    HW151487   7.664   2.579   2.385 -1.1588 -0.3346 -0.3294
16805SOL    HW251488   7.710   2.698   2.304 -0.6757 -0.2297  0.0933
16806SOL     OW51489   4.367   3.450   5.796 -0.0275 -0.2704  0.1085
16806SOL    HW151490   4.412   3.369   5.771 -0.3685 -0.5238  0.3009
16806SOL    HW251491   4.308   3.469   5.723  0.2436 -0.0460 -0.0553
16807SOL     OW51492   0.965   3.748   5.256  0.3131  0.2159  0.5310
16807SOL    HW151493   1.047   3.763   5.209  0.0675  1.2851  0.4047
16807SOL    HW251494   0.926   3.672   5.213  0.8176  0.2400  0.0198
16808SOL     OW51495   1.115   2.132   0.575  0.1811  0.6258 -0.3270
16808SOL    HW151496   1.205   2.120   0.543  0.3900 -0.1663  0.5213
16808SOL    HW251497   1.073   2.048   0.558 -0.3422  0.9216 -0.5107
16809SOL     OW51498   3.482   0.152   1.564 -0.5994 -0.5068 -0.4831
16809SOL    HW151499   3.470   0.064   1.600 -1.2406 -0.2446 -0.0502
16809SOL    HW251500   3.415   0.159   1.496 -1.6461  0.2423  0.6025
16810SOL     OW51501   5.892   6.376   2.869  0.3556 -0.3223  0.3760
16810SOL    HW151502   5.945   6.314   2.918 -0.1519 -0.3743  0.8579
16810SOL    HW251503   5.885   6.453   2.926 -1.6340 -1.0095  1.1212
16811SOL     OW51504   2.954   3.473   2.058  0.3257  0.1121  0.3475
16811SOL    HW151505   2.868   3.465   2.018  1.0004 -0.8455 -1.0346
16811SOL    HW251506   2.942   3.533   2.131 -1.5317 -0.1369  0.2875
16812SOL     OW51507   2.362   4.487   3.206  0.1936 -0.0754  0.0313
16812SOL    HW151508   2.293   4.512   3.145  0.3312 -0.1425 -0.1508
16812SOL    HW251509   2.442   4.524   3.169  0.5273 -1.4028 -0.6404
16813SOL     OW51510   4.015   5.245   3.022  0.4597  0.0476  0.5124
16813SOL    HW151511   4.100   5.215   2.990  1.1216  2.3639 -0.0614
16813SOL    HW251512   4.009   5.211   3.111  2.1784  0.2041  0.7147
16814SOL     OW51513   0.936   0.422   7.913 -0.2647  0.2456 -0.1115
16814SOL    HW151514   0.909   0.399   7.824 -1.8298 -0.6214  0.5562
16814SOL    HW251515   0.990   0.500   7.902  0.1305 -0.2349 -1.8790
16815SOL     OW51516   0.324   3.977   1.102 -0.7114  0.2062 -0.7203
16815SOL    HW151517   0.279   3.940   1.178 -0.4107  0.3676 -0.4634
16815SOL    HW251518   0.415   3.948   1.111 -0.2887  1.6329 -0.0940
16816SOL     OW51519   5.433   2.363   3.179  0.1721 -0.0189 -0.6328
16816SOL    HW151520   5.400   2.432   3.237  0.8192 -1.0162  0.9963
16816SOL    HW251521   5.449   2.407   3.096 -0.9860  1.4351 -0.1351
16817SOL     OW51522   6.015   4.990   2.126  0.2053  0.2154 -0.1081
16817SOL    HW151523   5.980   5.060   2.072 -0.1517 -0.8932 -1.3770
16817SOL    HW251524   5.944   4.969   2.187 -0.5668 -0.5528 -1.2338
16818SOL     OW51525   5.517   6.371   3.150 -0.7486 -0.1645 -0.3502
16818SOL    HW151526   5.508   6.277   3.136  0.2605 -0.0094 -2.5158
16818SOL    HW251527   5.588   6.379   3.214 -1.0112 -0.8715  0.0366
16819SOL     OW51528   5.929   5.903   4.181  0.0156  0.3422 -0.1605
16819SOL    HW151529   5.929   5.989   4.140 -0.4603 -0.4741 -2.0070
16819SOL    HW251530   6.005   5.858   4.143 -0.8313 -0.6736 -0.7340
16820SOL     OW51531   2.388   2.790   0.838 -0.6423 -0.4782 -0.1796
16820SOL    HW151532   2.468   2.744   0.863 -1.2372 -0.2709  2.3151
16820SOL    HW251533   2.418   2.876   0.809  0.4158 -1.9666 -4.2220
16821SOL     OW51534   1.479   2.476   6.325 -0.0479 -0.2416  0.5944
16821SOL    HW151535   1.489   2.548   6.261  1.0767  0.2069  1.2578
16821SOL    HW251536   1.497   2.397   6.275 -1.4135 -0.0976 -0.1786
16822SOL     OW51537   3.228   6.359   5.504  0.5753 -0.1525 -0.3115
16822SOL    HW151538   3.145   6.365   5.552 -0.0350  0.2400 -1.4002
16822SOL    HW251539   3.228   6.270   5.468  0.2587  0.1104 -0.9653
16823SOL     OW51540   2.860   5.298   4.424 -0.1665 -0.6091 -0.4018
16823SOL    HW151541   2.767   5.292   4.446  0.0857  0.9913  1.4694
16823SOL    HW251542   2.871   5.242   4.348 -2.4104 -1.8569  0.1049
16824SOL     OW51543   5.496   0.587   7.613  0.2508  0.0902  0.2660
16824SOL    HW151544   5.514   0.594   7.519 -0.1099  0.6403  0.2334
16824SOL    HW251545   5.448   0.505   7.622  0.1962  0.0842 -0.0423
16825SOL     OW51546   4.598   1.578   4.619 -0.9354 -0.0099 -0.0317
16825SOL    HW151547   4.572   1.669   4.634 -0.5094  0.2840 -0.9742
16825SOL    HW251548   4.672   1.584   4.560  0.7589 -0.8734  1.8897
16826SOL     OW51549   0.961   7.205   4.188 -0.3037  0.2215 -0.1729
16826SOL    HW151550   0.954   7.207   4.093  0.3569  2.2813 -0.2364
16826SOL    HW251551   0.918   7.124   4.214 -1.0866 -0.0541 -2.1679
16827SOL     OW51552   7.369   0.960   0.655 -0.4535 -0.0550 -0.4403
16827SOL    HW151553   7.281   0.924   0.661 -0.4639  0.1033  0.4978
16827SOL    HW251554   7.419   0.894   0.607 -0.7255 -0.8602  0.3551
16828SOL     OW51555   2.324   3.704   5.779  0.4805 -0.5966  0.0829
16828SOL    HW151556   2.288   3.662   5.857 -1.3621 -0.9872 -0.9283
16828SOL    HW251557   2.258   3.768   5.754  1.1541 -0.3120 -1.0180
16829SOL     OW51558   7.756   7.452   7.118 -0.0862  0.0169  0.8967
16829SOL    HW151559   7.842   7.461   7.160 -0.2165  1.1339  0.9577
16829SOL    HW251560   7.775   7.452   7.024  0.2478 -2.9004  0.8565
16830SOL     OW51561   3.910   5.724   2.301 -0.1458  0.6091 -0.3500
16830SOL    HW151562   3.859   5.777   2.362 -0.3930 -0.4884  0.4127
16830SOL    HW251563   3.873   5.637   2.308  1.9835 -0.3025  0.4236
16831SOL     OW51564   2.035   0.063   0.757 -0.1099 -0.3442 -0.2458
16831SOL    HW151565   2.007   0.154   0.768 -1.0074 -0.5482 -0.7084
16831SOL    HW251566   2.011   0.021   0.840 -1.5957 -0.5970 -0.7592
16832SOL     OW51567   0.838   7.539   5.043 -0.0650  0.0165  0.0173
16832SOL    HW151568   0.923   7.557   5.083  0.9644 -0.6010 -1.7760
16832SOL    HW251569   0.844   7.447   5.015 -1.1705  0.0858 -0.5033
16833SOL     OW51570   6.800   2.056   8.073  0.1500  0.1280 -0.4250
16833SOL    HW151571   6.734   2.061   8.142 -0.1828  0.1073 -0.7416
16833SOL    HW251572   6.875   2.012   8.114  0.0276  0.2916 -0.0217
16834SOL     OW51573   2.593   2.437   2.267  0.5042 -0.1759 -0.2023
16834SOL    HW151574   2.653   2.503   2.234  1.5872 -0.7512  0.5353
16834SOL    HW251575   2.613   2.432   2.361 -1.0050 -0.0843  0.1492
16835SOL     OW51576   2.908   1.827   5.160 -0.0899 -0.3743  0.1699
16835SOL    HW151577   2.844   1.762   5.191 -0.1322  0.1909  1.3053
16835SOL    HW251578   2.992   1.781   5.165 -0.2999 -0.8709 -0.6071
16836SOL     OW51579   3.437   0.542   0.776 -0.6623  0.5515 -0.1785
16836SOL    HW151580   3.465   0.572   0.862 -2.4485 -0.3097  0.7509
16836SOL    HW251581   3.363   0.484   0.793 -0.0373 -0.9599 -2.1907
16837SOL     OW51582   6.722   3.952   5.930  0.4691 -0.1896 -0.5086
16837SOL    HW151583   6.690   4.016   5.992  1.6702 -0.8247  0.8153
16837SOL    HW251584   6.651   3.889   5.922 -0.5718  1.0682 -1.5439
16838SOL     OW51585   1.626   1.672   2.997  0.2589 -0.5043  0.0143
16838SOL    HW151586   1.571   1.750   2.997 -0.0365 -0.7078  0.4630
16838SOL    HW251587   1.567   1.601   2.969  0.1854 -0.7885  0.8503
16839SOL     OW51588   7.694   2.647   4.928  0.1669 -0.0330  0.6467
16839SOL    HW151589   7.707   2.553   4.930  1.7603  0.1554  0.6289
16839SOL    HW251590   7.666   2.670   5.017  0.6100 -0.4193  0.8894
16840SOL     OW51591   6.028   6.767   1.326 -0.9849 -0.5330 -0.0859
16840SOL    HW151592   5.962   6.765   1.257 -0.5812 -0.0852 -0.4982
16840SOL    HW251593   5.992   6.827   1.392  0.2152  2.0762 -1.6224
16841SOL     OW51594   7.053   1.863   0.947  0.4541  0.1513 -0.1108
16841SOL    HW151595   7.101   1.865   0.864  0.3906  1.4040 -0.1436
16841SOL    HW251596   7.067   1.775   0.981  1.1671 -0.1180 -1.0598
16842SOL     OW51597   4.497   7.940   4.212  0.2295  0.5060  0.3291
16842SOL    HW151598   4.509   7.992   4.291 -0.2838 -0.7169  1.2502
16842SOL    HW251599   4.435   7.871   4.238  0.0164  0.1036 -1.1490
16843SOL     OW51600   4.129   3.988   2.487 -0.3911 -0.4345 -0.1981
16843SOL    HW151601   4.221   4.006   2.507  0.3817 -0.7877 -3.0192
16843SOL    HW251602   4.087   4.074   2.486  0.2540 -0.1173 -0.3514
16844SOL     OW51603   4.869   6.750   0.206  0.0729 -0.0402 -0.0173
16844SOL    HW151604   4.814   6.696   0.150 -1.7174 -0.1353  1.6984
16844SOL    HW251605   4.854   6.840   0.177  2.0823 -0.2781 -2.0533
16845SOL     OW51606   6.756   1.477   6.843 -0.2439  0.1540 -0.2743
16845SOL    HW151607   6.736   1.493   6.935  2.1723 -1.7871  0.7079
16845SOL    HW251608   6.819   1.545   6.820 -1.0148  0.7736 -0.5919
16846SOL     OW51609   2.517   7.894   3.448 -0.3922 -0.1718 -0.3786
16846SOL    HW151610   2.612   7.907   3.457 -0.7075  2.8365 -0.2957
16846SOL    HW251611   2.483   7.903   3.537 -0.7717 -1.1157 -0.4260
16847SOL     OW51612   6.894   5.456   5.009 -0.2126 -0.7331  0.6833
16847SOL    HW151613   6.871   5.423   4.921  2.0403  0.6367 -0.5139
16847SOL    HW251614   6.810   5.476   5.050 -1.5080 -3.9414 -0.0563
16848SOL     OW51615   7.730   0.010   5.486  0.1708  0.0121 -0.2838
16848SOL    HW151616   7.791  -0.060   5.510  0.0109 -0.3776 -0.9596
16848SOL    HW251617   7.646  -0.036   5.472  0.3505  0.1191 -1.9797
16849SOL     OW51618   3.835   0.278   4.572  0.5331 -0.4124  0.3497
16849SOL    HW151619   3.866   0.189   4.556 -0.4318 -0.5429 -0.9274
16849SOL    HW251620   3.821   0.315   4.485 -1.3760  0.1559  0.8524
16850SOL     OW51621   2.260   2.652   6.287  0.0674 -0.0494  0.0669
16850SOL    HW151622   2.274   2.676   6.379  0.0649 -0.1630  0.0976
16850SOL    HW251623   2.281   2.732   6.238  0.0928  0.0043  0.1646
16851SOL     OW51624   3.144   1.042   7.202  0.0587 -0.3294  0.0791
16851SOL    HW151625   3.077   1.104   7.230  0.2948 -0.1635  0.2786
16851SOL    HW251626   3.218   1.058   7.261  0.2770 -0.5046 -0.1451
16852SOL     OW51627   4.845   2.259   1.709 -0.5979  0.6166  0.0282
16852SOL    HW151628   4.881   2.318   1.643  2.6090 -1.1280 -0.0011
16852SOL    HW251629   4.776   2.210   1.663 -1.7943  2.7187 -0.5434
16853SOL     OW51630   3.420   4.760   2.146 -0.0478  0.0542  0.3126
16853SOL    HW151631   3.460   4.723   2.068 -0.2889  0.1008  0.1648
16853SOL    HW251632   3.461   4.714   2.219  0.5466  0.3658  0.1797
16854SOL     OW51633   3.125   1.195   6.724 -0.7735  0.2248 -0.4913
16854SOL    HW151634   3.035   1.228   6.727 -1.8370 -2.5229  1.3053
16854SOL    HW251635   3.127   1.124   6.788  2.2802 -0.8325 -1.5787
16855SOL     OW51636   3.743   3.541   4.479 -0.2706 -0.1783 -0.3246
16855SOL    HW151637   3.744   3.524   4.573  0.5010  0.3301 -0.2277
16855SOL    HW251638   3.736   3.637   4.472 -1.2629 -0.2725 -0.8031
16856SOL     OW51639   0.188   5.016   4.027  0.4118 -0.3975  0.1667
16856SOL    HW151640   0.196   4.921   4.029  2.6239 -0.2685  1.5741
16856SOL    HW251641   0.141   5.035   3.946  0.1177 -2.6660 -0.2528
16857SOL     OW51642   3.184   1.377   7.359 -0.7598  0.2249 -0.2423
16857SOL    HW151643   3.254   1.325   7.399 -2.3219 -1.2910  0.6806
16857SOL    HW251644   3.106   1.321   7.364 -2.4638  2.4849  0.3700
16858SOL     OW51645   6.854   2.816   2.236  0.3277 -0.4954  0.5045
16858SOL    HW151646   6.831   2.785   2.323  1.5551 -1.4282  0.5253
16858SOL    HW251647   6.774   2.858   2.203 -0.7488 -1.8333  1.3196
16859SOL     OW51648   1.226   0.768   4.532  0.4463  0.0756 -0.0827
16859SOL    HW151649   1.141   0.808   4.512  0.3544 -0.9410 -1.8278
16859SOL    HW251650   1.211   0.721   4.614  0.2469  2.5500  1.4250
16860SOL     OW51651   4.409   1.856   3.305 -0.2393  0.4189 -0.1585
16860SOL    HW151652   4.467   1.895   3.370  0.1418 -1.5576  0.7556
16860SOL    HW251653   4.321   1.866   3.342 -0.3194  1.6516 -0.6234
16861SOL     OW51654   5.956   5.752   1.996 -0.1275  0.2452  0.6164
16861SOL    HW151655   5.901   5.780   1.922 -0.2277  1.8356  1.2492
16861SOL    HW251656   6.026   5.817   1.999 -0.4484  0.5643  2.2699
16862SOL     OW51657   5.696   3.157   3.010 -0.3582 -0.0908  0.3835
16862SOL    HW151658   5.785   3.156   3.044 -0.2383  0.2375  0.0901
16862SOL    HW251659   5.683   3.246   2.978 -0.1166 -0.6166 -1.2982
16863SOL     OW51660   2.046   5.506   5.402  0.0080 -0.5781 -0.2339
16863SOL    HW151661   2.018   5.590   5.437 -1.4000 -0.7241 -0.9034
16863SOL    HW251662   1.998   5.498   5.319  1.4630 -1.2577 -1.0543
16864SOL     OW51663   6.135   8.113   0.395  0.4202  0.1694 -0.1213
16864SOL    HW151664   6.201   8.182   0.391 -0.6112  1.1595 -0.8040
16864SOL    HW251665   6.141   8.079   0.484  1.6442  0.4350 -0.0861
16865SOL     OW51666   3.966   0.250   5.377 -0.1498 -0.4316 -0.2251
16865SOL    HW151667   3.961   0.303   5.297 -0.3270 -0.9431 -0.5530
16865SOL    HW251668   3.912   0.298   5.440 -0.8971 -0.5767 -0.7319
16866SOL     OW51669   6.684   8.134   7.943 -0.1344 -0.7155  0.1459
16866SOL    HW151670   6.644   8.209   7.898 -1.5794 -1.0594  0.8134
16866SOL    HW251671   6.709   8.169   8.029  0.1053 -0.7649  0.0986
16867SOL     OW51672   7.757   0.180   0.228 -0.0560  0.2783  0.0412
16867SOL    HW151673   7.750   0.126   0.149 -1.7797  1.2875 -0.5630
16867SOL    HW251674   7.849   0.207   0.231  0.5920 -1.7281 -0.2482
16868SOL     OW51675   0.439   7.808   1.838 -0.0679 -0.2311 -0.0867
16868SOL    HW151676   0.349   7.806   1.871  0.5417 -2.6243  1.7217
16868SOL    HW251677   0.439   7.747   1.764  0.0543 -0.1076 -0.1904
16869SOL     OW51678   1.582   6.300   7.850 -0.1366  0.0332 -0.3617
16869SOL    HW151679   1.491   6.298   7.881 -1.0127 -0.8596 -2.7435
16869SOL    HW251680   1.583   6.370   7.784  1.0943  0.4431  0.0645
16870SOL     OW51681   1.108   0.583   3.501 -0.6795  0.0694  0.0423
16870SOL    HW151682   1.150   0.536   3.429  2.4004  1.0231  1.0704
16870SOL    HW251683   1.076   0.664   3.462  0.5651  0.3758 -0.4108
16871SOL     OW51684   2.784   5.765   7.522 -0.2335 -0.6289 -0.2513
16871SOL    HW151685   2.822   5.679   7.504  2.2322  0.1818  0.6049
16871SOL    HW251686   2.843   5.826   7.478 -0.6936  0.7138  0.9285
16872SOL     OW51687   4.404   8.106   2.932  0.1608 -0.5816  0.0571
16872SOL    HW151688   4.424   8.153   2.850 -3.0651  1.7396  0.3943
16872SOL    HW251689   4.460   8.148   2.997 -0.7380  1.0589 -0.1569
16873SOL     OW51690   6.007   5.226   3.899 -0.2820 -0.2595 -0.1477
16873SOL    HW151691   6.096   5.251   3.923 -0.1098  0.8106 -1.7710
16873SOL    HW251692   5.952   5.274   3.961  0.2226  0.2533 -0.0871
16874SOL     OW51693   6.127   4.718   6.610  0.0029 -0.2011 -0.5454
16874SOL    HW151694   6.182   4.649   6.574  0.3102 -0.3706  0.2260
16874SOL    HW251695   6.099   4.685   6.695 -1.2832 -0.1011 -0.9119
16875SOL     OW51696   5.143   6.941   0.413  0.0857  0.5335  0.0608
16875SOL    HW151697   5.116   7.033   0.410  0.7574  0.7264 -0.6684
16875SOL    HW251698   5.232   6.944   0.448 -0.6452 -0.0522  2.1148
16876SOL     OW51699   6.831   1.762   4.713  0.0674 -0.3628  0.3919
16876SOL    HW151700   6.841   1.811   4.795 -0.7100 -0.3366  0.4784
16876SOL    HW251701   6.919   1.762   4.674  0.4409 -0.3583  1.2108
16877SOL     OW51702   4.585   5.951   4.535  0.2745 -0.1913  0.3845
16877SOL    HW151703   4.672   5.939   4.574 -0.0773 -0.7928  1.0218
16877SOL    HW251704   4.592   6.031   4.484  0.8928  0.3739  1.3265
16878SOL     OW51705   5.089   7.189   7.012 -0.1703 -0.2320 -0.1149
16878SOL    HW151706   5.097   7.206   6.919  1.6173 -0.5461 -0.0535
16878SOL    HW251707   4.997   7.204   7.032 -0.0585  2.7289 -1.3619
16879SOL     OW51708   7.792   4.667   1.518 -1.1095 -0.4785 -0.3047
16879SOL    HW151709   7.713   4.627   1.483 -1.5600  1.1026 -1.2118
16879SOL    HW251710   7.760   4.740   1.571 -0.2651  0.1597 -0.6562
16880SOL     OW51711   2.238   6.929   2.428  0.2910  0.4424  0.0284
16880SOL    HW151712   2.305   6.866   2.401  0.2824  0.9770 -1.3039
16880SOL    HW251713   2.227   6.914   2.522 -0.4447 -2.2336 -0.4156
16881SOL     OW51714   1.248   1.644   5.494  0.2179 -0.1105  1.2783
16881SOL    HW151715   1.320   1.654   5.431  0.2676 -0.8905  1.2034
16881SOL    HW251716   1.171   1.626   5.440  0.2638 -0.7971  1.4311
16882SOL     OW51717   0.465   0.139   7.055  0.1483  0.3731 -0.1681
16882SOL    HW151718   0.549   0.105   7.087  0.3456  1.0649  0.0681
16882SOL    HW251719   0.420   0.168   7.135 -1.1119 -1.6609 -0.0547
16883SOL     OW51720   1.212   7.596   5.994  0.2777  0.4420  0.1326
16883SOL    HW151721   1.143   7.660   5.980  0.3060  0.0414 -2.0908
16883SOL    HW251722   1.168   7.511   5.992  0.3437  0.2956  2.3769
16884SOL     OW51723   3.207   7.764   1.621  0.4144  0.1264  0.5087
16884SOL    HW151724   3.281   7.748   1.563  0.3644 -0.3331  0.5739
16884SOL    HW251725   3.226   7.850   1.661  0.1980  0.6825 -0.5521
16885SOL     OW51726   7.092   6.176   6.296 -0.4377  0.6056  0.5316
16885SOL    HW151727   7.113   6.084   6.317  0.7297  0.7668  0.1365
16885SOL    HW251728   7.144   6.227   6.359 -2.7282  1.0147  2.2214
16886SOL     OW51729   7.882   0.573   6.227 -0.1649 -0.7999  0.1250
16886SOL    HW151730   7.944   0.539   6.291  0.6374  2.0606  1.0028
16886SOL    HW251731   7.830   0.637   6.275 -1.5095 -0.6543 -1.4194
16887SOL     OW51732   4.938   2.994   3.799  0.1721 -0.7344  0.0002
16887SOL    HW151733   4.867   2.938   3.769  0.2406  0.0511 -1.7184
16887SOL    HW251734   4.903   3.083   3.791  1.0700 -0.3793 -0.1337
16888SOL     OW51735   0.266   6.153   3.420  0.5178  0.3368  0.0646
16888SOL    HW151736   0.226   6.190   3.499  0.6123 -0.1954  0.3638
16888SOL    HW251737   0.360   6.165   3.432  0.4519  2.7064 -1.1888
16889SOL     OW51738   7.610   5.627   4.447 -0.2158 -0.0246  0.5351
16889SOL    HW151739   7.587   5.592   4.360  0.5432 -0.8918  0.6607
16889SOL    HW251740   7.615   5.721   4.435 -3.7035  0.2576  0.4853
16890SOL     OW51741   7.275   6.620   4.711 -0.2921 -0.4798  0.1218
16890SOL    HW151742   7.224   6.613   4.792  0.7543 -0.1326  0.8423
16890SOL    HW251743   7.314   6.534   4.700  0.8971 -0.0710  0.9293
16891SOL     OW51744   7.153   3.168   5.541  0.2692 -0.8382  0.1249
16891SOL    HW151745   7.154   3.073   5.526  0.5863 -0.6139 -1.4149
16891SOL    HW251746   7.243   3.196   5.525  0.2197 -0.2841  0.7604
16892SOL     OW51747   3.660   0.797   2.118  0.5115 -0.0555 -0.2748
16892SOL    HW151748   3.619   0.758   2.196  0.1583  0.3508 -0.2576
16892SOL    HW251749   3.664   0.725   2.056 -2.3348  0.3834 -1.1262
16893SOL     OW51750   0.614   2.672   7.786  0.1182  0.2848 -0.1259
16893SOL    HW151751   0.672   2.633   7.852  0.3427  0.7550 -0.0405
16893SOL    HW251752   0.589   2.599   7.729  1.3778  0.2015 -0.5958
16894SOL     OW51753   7.830   5.985   2.483  0.5731 -0.6480 -0.3278
16894SOL    HW151754   7.810   6.066   2.436 -0.0309 -0.2458  0.5923
16894SOL    HW251755   7.886   6.014   2.556 -0.7760 -0.8344  0.8146
16895SOL     OW51756   2.556   6.564   0.256  0.0406 -0.6101 -0.0691
16895SOL    HW151757   2.507   6.536   0.179  0.2858 -0.0683 -0.4266
16895SOL    HW251758   2.544   6.659   0.259  1.3934 -0.4050 -0.4065
16896SOL     OW51759   0.044   0.693   2.786  0.0847  0.3970 -0.0750
16896SOL    HW151760   0.073   0.663   2.872 -0.4636 -1.3916 -0.4726
16896SOL    HW251761  -0.013   0.768   2.804  0.4043  0.3805  1.0616
16897SOL     OW51762   2.535   3.789   7.904 -0.1475 -0.3477 -0.1278
16897SOL    HW151763   2.557   3.749   7.988  2.3296 -1.5636 -1.2259
16897SOL    HW251764   2.537   3.716   7.842  0.3403  0.8345 -1.5732
16898SOL     OW51765   0.288   7.419   2.889 -0.7388 -0.4108 -0.6296
16898SOL    HW151766   0.228   7.451   2.956  0.9453  1.7590 -0.0571
16898SOL    HW251767   0.267   7.325   2.881 -0.8810 -0.8474  3.0804
16899SOL     OW51768   2.494   5.535   7.611  0.0279 -0.3664 -0.3812
16899SOL    HW151769   2.498   5.584   7.528 -1.9273 -0.1653 -0.4018
16899SOL    HW251770   2.483   5.444   7.584  0.1022 -0.3871 -0.3412
16900SOL     OW51771   6.887   4.286   0.761 -0.8369  0.0094  0.0039
16900SOL    HW151772   6.928   4.208   0.797  2.5615  1.6123 -0.0165
16900SOL    HW251773   6.822   4.311   0.826  0.6069 -0.7900  1.8592
16901SOL     OW51774   3.290   0.355   2.033  0.1248 -0.1428 -0.6371
16901SOL    HW151775   3.204   0.317   2.049  0.0667  0.6249  1.1791
16901SOL    HW251776   3.349   0.280   2.025 -0.5776 -0.6564 -1.0763
16902SOL     OW51777   4.665   5.219   6.816 -0.4085 -0.2151  0.4592
16902SOL    HW151778   4.670   5.269   6.897  1.6640  0.8157 -0.2527
16902SOL    HW251779   4.715   5.139   6.834  2.1264  1.0685 -0.4516
16903SOL     OW51780   0.599   8.082   3.844 -0.4213  0.4841  0.5151
16903SOL    HW151781   0.519   8.135   3.838 -0.2686  0.5504 -1.3123
16903SOL    HW251782   0.572   8.003   3.891 -1.5281  0.5882  0.0868
16904SOL     OW51783   4.582   3.580   0.955 -0.1367  0.1964 -0.4676
16904SOL    HW151784   4.563   3.548   1.043 -1.9581 -0.3243 -0.9985
16904SOL    HW251785   4.645   3.517   0.920 -0.0500 -0.0847  0.1722
16905SOL     OW51786   0.512   0.820   2.905  0.1049  0.6673  0.5077
16905SOL    HW151787   0.594   0.818   2.954 -0.5559  0.9839  1.6967
16905SOL    HW251788   0.444   0.816   2.973 -0.8939  2.9540 -0.2316
16906SOL     OW51789   0.170   0.009   4.210 -0.3152  0.5098 -0.6863
16906SOL    HW151790   0.151   0.070   4.139 -2.3876  1.9204  0.9624
16906SOL    HW251791   0.136   0.052   4.289  1.7701 -1.0358  1.1789
16907SOL     OW51792   5.892   0.414   0.922 -0.1725  0.2390  0.4675
16907SOL    HW151793   5.824   0.472   0.954 -0.6787  1.1065 -1.9770
16907SOL    HW251794   5.851   0.365   0.851  1.2796 -0.4063  0.0231
16908SOL     OW51795   6.724   6.408   1.795  0.2113 -0.2232  0.2730
16908SOL    HW151796   6.698   6.354   1.869  0.0433 -0.1986  0.2336
16908SOL    HW251797   6.804   6.368   1.762  0.3074 -0.2123  0.4907
16909SOL     OW51798   7.489   4.758   4.588 -0.1563  0.0316 -0.6927
16909SOL    HW151799   7.570   4.754   4.639  0.3531 -0.0423 -1.4879
16909SOL    HW251800   7.422   4.783   4.652  0.2974 -0.9295  0.1927
16910SOL     OW51801   0.352   5.356   6.290  0.1667  0.1988 -0.1171
16910SOL    HW151802   0.322   5.272   6.256  0.5873  0.4526 -1.1455
16910SOL    HW251803   0.358   5.343   6.385 -1.6943 -0.3065 -0.0447
16911SOL     OW51804   4.118   2.821   3.496  0.3843  0.0131  0.0032
16911SOL    HW151805   4.059   2.896   3.483 -1.3360 -1.0364  1.3767
16911SOL    HW251806   4.097   2.763   3.423 -0.5786 -0.5151  0.6813
16912SOL     OW51807   4.601   5.260   0.278 -0.4476 -0.0199 -0.8862
16912SOL    HW151808   4.659   5.185   0.287  0.2415  0.5064 -0.8918
16912SOL    HW251809   4.603   5.304   0.363 -1.5785 -0.5095 -0.5782
16913SOL     OW51810   0.953   3.809   1.983 -0.3298 -0.3883  0.3932
16913SOL    HW151811   0.934   3.801   2.077  2.7146 -1.2447  1.0400
16913SOL    HW251812   0.942   3.902   1.964  1.2349  0.2396  2.2185
16914SOL     OW51813   0.522   3.131   2.120  0.2837 -0.0526 -0.1833
16914SOL    HW151814   0.483   3.218   2.105  0.3786  0.3545  1.6651
16914SOL    HW251815   0.610   3.138   2.083  0.2027  0.5643 -0.2795
16915SOL     OW51816   6.910   2.167   3.330 -0.8007 -0.1432  0.4419
16915SOL    HW151817   6.940   2.244   3.282 -0.1588 -0.2923  0.6015
16915SOL    HW251818   6.974   2.099   3.309  0.4586  0.2266  2.7836
16916SOL     OW51819   0.641   4.297   7.939  0.2495 -0.3044  0.1045
16916SOL    HW151820   0.712   4.233   7.940 -0.7671 -1.5903 -2.0703
16916SOL    HW251821   0.610   4.300   8.030  1.2381 -1.8461  0.5319
16917SOL     OW51822   5.292   7.661   2.058 -0.0411  0.2897  0.4677
16917SOL    HW151823   5.239   7.731   2.095 -1.2155 -0.0627 -0.4684
16917SOL    HW251824   5.333   7.700   1.980 -0.1399  0.1334  0.3364
16918SOL     OW51825   6.755   7.128   2.182  0.0889 -0.8155 -0.2023
16918SOL    HW151826   6.693   7.076   2.131  0.4272 -1.7447  0.3095
16918SOL    HW251827   6.814   7.166   2.118 -0.5230 -0.5856 -0.6313
16919SOL     OW51828   1.011   5.957   4.480  0.3489  0.3577  0.3662
16919SOL    HW151829   1.093   5.956   4.528  0.3844  0.3372  0.3049
16919SOL    HW251830   1.033   5.994   4.395  0.5293 -0.7283 -0.0773
16920SOL     OW51831   5.964   6.409   3.528  0.2937 -0.3303  0.0341
16920SOL    HW151832   6.054   6.377   3.535  0.2695 -0.0226  2.4368
16920SOL    HW251833   5.972   6.488   3.474  1.3196 -0.7619 -0.4871
16921SOL     OW51834   5.274   3.222   2.138 -0.2019 -0.1158  0.0953
16921SOL    HW151835   5.345   3.192   2.194 -0.5797  0.0331  0.6705
16921SOL    HW251836   5.258   3.150   2.078 -0.6149 -0.7982  0.9899
16922SOL     OW51837   5.472   4.602   2.919  0.0268 -0.3542  0.5374
16922SOL    HW151838   5.412   4.546   2.968  0.8044 -1.0547  0.7009
16922SOL    HW251839   5.502   4.548   2.846  0.1514  0.1269  0.2260
16923SOL     OW51840   1.828   7.377   0.724  0.2254  0.1441  0.2253
16923SOL    HW151841   1.803   7.340   0.808 -0.6285  4.1260  1.9863
16923SOL    HW251842   1.751   7.426   0.696  0.8173 -0.3117 -2.4914
16924SOL     OW51843   4.513   7.037   7.279 -0.0383  0.1249 -0.1191
16924SOL    HW151844   4.432   7.044   7.230  0.0624 -0.1135 -0.3216
16924SOL    HW251845   4.569   7.106   7.244 -0.2848  0.5352  0.2805
16925SOL     OW51846   0.737   0.815   1.293  0.0871 -0.8163  0.6202
16925SOL    HW151847   0.820   0.778   1.324  0.2613 -1.4895 -0.5741
16925SOL    HW251848   0.751   0.910   1.295  0.5007 -0.8891  1.4335
16926SOL     OW51849   2.916   7.034   7.633 -0.5604  0.1874  0.0715
16926SOL    HW151850   2.967   7.020   7.553 -0.6471 -2.2731  0.3650
16926SOL    HW251851   2.968   7.094   7.685 -0.3287  1.5662 -1.6553
16927SOL     OW51852   0.318   5.358   2.444 -0.1313 -0.1904 -0.2119
16927SOL    HW151853   0.243   5.417   2.456  0.5813  0.2184  3.6461
16927SOL    HW251854   0.279   5.271   2.437 -1.0426  0.1434  0.4171
16928SOL     OW51855   8.003   1.322   0.371  0.1980 -0.2897  0.2466
16928SOL    HW151856   8.084   1.319   0.320 -0.3619 -0.6652 -0.6440
16928SOL    HW251857   8.006   1.243   0.426  0.1812 -0.5947 -0.1863
16929SOL     OW51858   2.822   5.729   1.986  0.0245  0.6936 -0.8272
16929SOL    HW151859   2.727   5.735   1.979  0.1374  1.5405 -1.9665
16929SOL    HW251860   2.847   5.665   1.920  0.1748 -0.2736  0.1523
16930SOL     OW51861   4.749   3.658   7.992 -0.4050 -0.2207 -0.0665
16930SOL    HW151862   4.787   3.746   7.986 -0.5570 -0.2163 -1.1902
16930SOL    HW251863   4.823   3.599   7.974 -0.2464 -0.3476  0.9356
16931SOL     OW51864   1.137   2.597   1.645 -0.1063  0.3103  0.2706
16931SOL    HW151865   1.115   2.617   1.736  1.5227 -0.0097  0.7509
16931SOL    HW251866   1.219   2.549   1.649  0.1545  0.5470 -1.3957
16932SOL     OW51867   6.867   2.163   5.504 -0.1391  0.0063  0.2608
16932SOL    HW151868   6.948   2.210   5.527 -0.2883 -0.1046  1.0315
16932SOL    HW251869   6.890   2.112   5.426  0.0539  1.2897 -0.5572
16933SOL     OW51870   6.207   0.918   0.341  0.7732 -0.3899 -0.0428
16933SOL    HW151871   6.208   1.001   0.293 -2.2964 -0.5013 -0.5035
16933SOL    HW251872   6.201   0.851   0.273  1.4315 -0.9000  0.3872
16934SOL     OW51873   3.239   8.133   8.091 -0.1683  0.1218  0.0153
16934SOL    HW151874   3.279   8.220   8.101 -0.0436  0.0295  0.3314
16934SOL    HW251875   3.162   8.148   8.036  1.7088 -0.0811 -2.9601
16935SOL     OW51876   2.058   0.854   0.160  0.4071 -0.5739 -0.3606
16935SOL    HW151877   2.103   0.918   0.216 -3.8187  2.2159  0.3722
16935SOL    HW251878   2.030   0.785   0.221  0.6693 -0.4898 -0.1401
16936SOL     OW51879   1.427   6.724   7.682 -0.3002 -0.6377  0.1180
16936SOL    HW151880   1.334   6.743   7.687 -0.2250  0.0732 -0.8355
16936SOL    HW251881   1.470   6.805   7.709  0.0564 -1.1348  1.0947
16937SOL     OW51882   0.892   0.485   4.661  0.4932  0.4277 -0.3751
16937SOL    HW151883   0.842   0.470   4.581  1.4445 -1.6157 -0.6452
16937SOL    HW251884   0.828   0.473   4.732 -0.2582  1.8432 -0.7791
16938SOL     OW51885   4.862   2.034   4.037  0.3677 -0.6715  0.0460
16938SOL    HW151886   4.935   1.994   4.086  0.4486 -1.6016 -0.7881
16938SOL    HW251887   4.881   2.127   4.038  0.8834 -0.7690  0.9456
16939SOL     OW51888   1.454   8.034   1.691 -0.1429 -0.0751 -0.4575
16939SOL    HW151889   1.543   7.999   1.696 -0.9335 -2.2634 -0.6566
16939SOL    HW251890   1.446   8.066   1.601  0.3988  0.0476 -0.4666
16940SOL     OW51891   1.952   5.875   1.378 -0.1429  0.1103  0.5312
16940SOL    HW151892   1.951   5.807   1.311  0.9503  0.8675 -0.2759
16940SOL    HW251893   1.965   5.828   1.461 -1.9197 -0.8741  0.3146
16941SOL     OW51894   6.324   1.614   2.792 -0.2461 -0.3965 -0.3892
16941SOL    HW151895   6.328   1.575   2.879 -1.8532 -1.9350 -0.9341
16941SOL    HW251896   6.267   1.691   2.804  1.2514  0.6668  0.2791
16942SOL     OW51897   7.899   1.552   2.394  0.2332 -0.0861 -0.0636
16942SOL    HW151898   7.829   1.539   2.330 -0.3631  0.2264  0.5191
16942SOL    HW251899   7.885   1.640   2.429  0.4785 -0.3014  0.5933
16943SOL     OW51900   2.464   1.355   6.867  0.0175 -0.7103 -0.1404
16943SOL    HW151901   2.501   1.267   6.861  2.0536  0.0513  0.3693
16943SOL    HW251902   2.466   1.375   6.961 -3.7131 -1.3690  0.2218
16944SOL     OW51903   1.840   6.554   0.522 -0.4029 -0.1460 -0.0339
16944SOL    HW151904   1.895   6.626   0.554  0.0318 -0.6856  0.4333
16944SOL    HW251905   1.786   6.530   0.597 -1.1498  0.2520 -0.4349
16945SOL     OW51906   2.777   5.346   2.505  0.6750  0.0688  0.4476
16945SOL    HW151907   2.709   5.414   2.500  0.4228 -0.2780 -1.5699
16945SOL    HW251908   2.805   5.334   2.415  2.2028 -1.0595  1.0353
16946SOL     OW51909   2.554   5.634   3.381 -0.1827 -0.1613  0.3477
16946SOL    HW151910   2.554   5.729   3.398  1.0028  0.4320 -2.5001
16946SOL    HW251911   2.469   5.605   3.414 -0.4417  1.8003  1.6404
16947SOL     OW51912   1.311   5.341   3.362 -0.1898 -0.2427 -0.6304
16947SOL    HW151913   1.316   5.260   3.412 -0.7817  0.1034  0.0206
16947SOL    HW251914   1.383   5.336   3.300  0.9446 -0.4193  0.6550
16948SOL     OW51915   0.079   0.759   5.228 -0.1032  0.1790 -0.2146
16948SOL    HW151916   0.002   0.784   5.279 -0.9110  2.0233 -2.1417
16948SOL    HW251917   0.151   0.811   5.266  0.4445 -2.0023  1.9836
16949SOL     OW51918   1.963   1.870   7.360 -0.4843  0.6036 -0.2700
16949SOL    HW151919   1.933   1.958   7.339 -0.3257  1.2394  1.9265
16949SOL    HW251920   2.056   1.881   7.382 -0.6536  0.0408  0.7929
16950SOL     OW51921   4.361   3.103   7.029 -0.6356 -0.0946 -0.0056
16950SOL    HW151922   4.360   3.113   7.125 -0.7808 -0.9037  0.0880
16950SOL    HW251923   4.380   3.190   6.996  1.8814 -0.2220  0.8359
16951SOL     OW51924   0.263   5.025   4.847 -0.4798  0.3110 -0.0807
16951SOL    HW151925   0.220   4.985   4.922  1.7234 -0.6783  0.7708
16951SOL    HW251926   0.236   4.971   4.772 -0.3848 -0.5857  0.5076
16952SOL     OW51927   2.850   2.779   5.252 -0.1401  0.2260  0.5409
16952SOL    HW151928   2.838   2.705   5.192  1.5370  0.7324 -0.4796
16952SOL    HW251929   2.867   2.739   5.337  1.2021 -0.5883 -0.0900
16953SOL     OW51930   4.192   0.715   3.284  0.3120  0.1462  0.0322
16953SOL    HW151931   4.251   0.715   3.359  1.0096 -5.0019 -0.1809
16953SOL    HW251932   4.249   0.710   3.208 -0.4330  0.9943 -0.6095
16954SOL     OW51933   1.086   6.688   5.603  0.3056 -0.1055  0.4296
16954SOL    HW151934   1.101   6.738   5.684  2.0993  1.7728 -0.9692
16954SOL    HW251935   1.061   6.601   5.634  0.9438  0.5228  3.0137
16955SOL     OW51936   0.041   5.930   7.870 -0.4351 -0.2214  0.3614
16955SOL    HW151937  -0.011   5.953   7.793 -1.6466 -0.6169  1.0280
16955SOL    HW251938  -0.016   5.951   7.944  0.5808 -0.1652  1.1460
16956SOL     OW51939   0.430   5.525   5.153  0.1914 -0.3856 -0.3179
16956SOL    HW151940   0.425   5.568   5.067  0.9722  0.0970 -0.1361
16956SOL    HW251941   0.524   5.507   5.165  0.2564  0.6758  0.9782
16957SOL     OW51942   6.507   6.140   5.214  0.1723 -0.0368  0.5883
16957SOL    HW151943   6.425   6.188   5.223 -0.5770 -1.0901 -0.3394
16957SOL    HW251944   6.483   6.059   5.168  1.7154 -0.3979  0.3470
16958SOL     OW51945   4.661   3.479   0.536  0.0822 -0.0793 -0.0705
16958SOL    HW151946   4.745   3.467   0.581  0.4577 -1.5468 -1.0927
16958SOL    HW251947   4.599   3.496   0.607  0.6182 -2.5457  1.1046
16959SOL     OW51948   1.884   5.653   7.006 -0.9646 -0.1152 -0.3501
16959SOL    HW151949   1.885   5.606   7.089 -0.9713 -1.6622 -1.1951
16959SOL    HW251950   1.798   5.696   7.005 -1.0111 -0.1765  0.3909
16960SOL     OW51951   1.364   7.408   2.577  0.0631  0.0210  0.1064
16960SOL    HW151952   1.325   7.491   2.552  0.9586  0.0595 -1.2863
16960SOL    HW251953   1.318   7.343   2.524 -0.3518 -0.3435  0.8901
16961SOL     OW51954   7.213   1.466   3.106  0.1345  0.0805  0.1091
16961SOL    HW151955   7.210   1.406   3.181 -0.4448  0.2164  0.2022
16961SOL    HW251956   7.279   1.531   3.130 -0.6222  0.5913  0.8729
16962SOL     OW51957   1.213   4.311   3.347  0.2115  0.1291  0.3701
16962SOL    HW151958   1.194   4.266   3.265  1.0546 -2.1134  1.3147
16962SOL    HW251959   1.128   4.334   3.383 -0.1427  1.9668 -1.5154
16963SOL     OW51960   0.494   4.688   6.562  0.6391  0.3387  0.3335
16963SOL    HW151961   0.526   4.609   6.517 -0.2814  0.5845 -0.7881
16963SOL    HW251962   0.497   4.756   6.495 -0.6095  0.7505  0.6827
16964SOL     OW51963   2.997   1.999   0.565  0.1478  0.3510 -0.2294
16964SOL    HW151964   2.981   2.089   0.593  0.4740  0.5434 -0.6655
16964SOL    HW251965   3.058   1.964   0.630 -0.1897  0.3536  0.0949
16965SOL     OW51966   2.746   2.316   0.467 -0.4972  0.2303 -0.3430
16965SOL    HW151967   2.788   2.397   0.440 -0.9225  0.5648 -0.0138
16965SOL    HW251968   2.672   2.306   0.407  0.2450 -0.5487 -1.1600
16966SOL     OW51969   0.603   6.538   1.048 -0.9051 -0.1750  0.2399
16966SOL    HW151970   0.609   6.571   0.959  1.7934 -0.9082  0.0678
16966SOL    HW251971   0.509   6.523   1.062 -1.4669  0.7259 -2.1545
16967SOL     OW51972   6.356   7.006   6.547  0.2975 -0.0937 -0.2059
16967SOL    HW151973   6.286   7.044   6.600 -0.3709 -1.3647 -0.1406
16967SOL    HW251974   6.327   6.916   6.530  1.4628 -0.3375 -1.0016
16968SOL     OW51975   6.167   1.194   1.303 -0.0816  0.3282 -0.2336
16968SOL    HW151976   6.227   1.266   1.323  0.4625 -0.1703 -0.0322
16968SOL    HW251977   6.186   1.128   1.370 -0.6642  0.0491 -0.3384
16969SOL     OW51978   2.341   5.586   1.059  0.1565  0.4894  0.0570
16969SOL    HW151979   2.257   5.569   1.016 -0.5365 -1.2854  1.9345
16969SOL    HW251980   2.357   5.679   1.044 -1.6996  0.6842 -1.0859
16970SOL     OW51981   4.424   4.968   4.232  0.2212 -0.3497 -0.3007
16970SOL    HW151982   4.445   5.025   4.306  0.7429  1.1362 -1.5363
16970SOL    HW251983   4.506   4.963   4.182 -0.7139  0.6486 -2.0333
16971SOL     OW51984   1.926   0.523   1.634 -0.2958 -0.1022  0.9427
16971SOL    HW151985   1.847   0.557   1.675 -0.5472  2.1067 -1.1510
16971SOL    HW251986   1.996   0.582   1.660  0.2177 -0.6918  0.9392
16972SOL     OW51987   3.442   3.597   0.811  0.4997 -0.7276  0.0381
16972SOL    HW151988   3.509   3.553   0.759  0.3420 -0.7802 -0.1217
16972SOL    HW251989   3.489   3.665   0.859  0.2861  1.0104 -2.0609
16973SOL     OW51990   1.970   5.355   3.168 -0.4513 -0.0431  0.2238
16973SOL    HW151991   1.991   5.432   3.222  1.5878 -1.2225  1.2146
16973SOL    HW251992   1.984   5.280   3.226 -0.6534 -1.2562 -1.2404
16974SOL     OW51993   6.139   6.210   7.791 -0.1471 -0.4093  0.3078
16974SOL    HW151994   6.161   6.243   7.878  1.0901  0.8026 -0.4153
16974SOL    HW251995   6.063   6.263   7.765 -1.6710 -2.0076  1.3178
16975SOL     OW51996   2.217   2.023   3.359 -0.2840  0.6065 -0.1154
16975SOL    HW151997   2.164   1.985   3.289 -0.7196 -0.0806  0.5732
16975SOL    HW251998   2.238   1.950   3.416  2.7369  0.5568 -1.1368
16976SOL     OW51999   5.131   1.169   2.352 -0.8847 -0.2444  0.2031
16976SOL    HW152000   5.179   1.103   2.302 -2.0935 -0.9183 -0.1177
16976SOL    HW252001   5.197   1.232   2.378 -0.2554  0.5941 -2.9542
16977SOL     OW52002   1.246   3.165   7.593  0.5204 -0.2785 -0.4739
16977SOL    HW152003   1.208   3.225   7.657  0.1255  1.5279 -2.2939
16977SOL    HW252004   1.171   3.114   7.561  0.1634  0.9130 -1.6104
16978SOL     OW52005   0.047   1.384   0.542  0.2350  0.4452 -0.1902
16978SOL    HW152006   0.045   1.329   0.621 -0.6433 -0.7481 -0.9975
16978SOL    HW252007  -0.044   1.385   0.512  0.3639  1.8056 -0.5861
16979SOL     OW52008   5.319   1.331   2.450 -0.4266 -0.2952 -0.0593
16979SOL    HW152009   5.302   1.407   2.507 -2.0008 -0.5845 -0.1117
16979SOL    HW252010   5.412   1.338   2.429  0.1496  0.0030  2.2992
16980SOL     OW52011   1.166   3.449   0.273  0.1810 -0.2311 -0.1240
16980SOL    HW152012   1.102   3.479   0.338  2.4776  1.6946  1.4141
16980SOL    HW252013   1.147   3.356   0.262 -0.8043 -0.4743  2.7696
16981SOL     OW52014   1.340   4.888   0.628  0.2865  0.0999 -0.7201
16981SOL    HW152015   1.263   4.832   0.628 -0.1845  0.7138  0.5309
16981SOL    HW252016   1.343   4.925   0.539 -0.4417 -0.4761 -0.9889
16982SOL     OW52017   3.769   8.158   2.405 -0.0464 -0.5425  0.0751
16982SOL    HW152018   3.789   8.233   2.462  0.0179 -2.4835  2.7736
16982SOL    HW252019   3.680   8.133   2.430 -0.4897 -0.7254 -1.5980
16983SOL     OW52020   6.770   8.137   5.604  0.5184 -0.0568 -0.1756
16983SOL    HW152021   6.843   8.096   5.558  0.6465 -0.0439  0.0174
16983SOL    HW252022   6.810   8.183   5.678  0.4928  1.3695 -1.0277
16984SOL     OW52023   5.707   0.150   6.198  0.0592 -0.5546  0.5682
16984SOL    HW152024   5.622   0.193   6.196  0.4821  0.2793  0.2371
16984SOL    HW252025   5.757   0.197   6.264  1.4343  1.2854 -1.6160
16985SOL     OW52026   4.980   3.435   2.099 -0.1610 -0.0434 -0.2594
16985SOL    HW152027   4.902   3.470   2.057 -0.6540  0.3798  0.9674
16985SOL    HW252028   5.021   3.511   2.141  0.0793 -0.5078  0.3750
16986SOL     OW52029   2.522   4.404   6.100  0.1215  0.4586 -0.5458
16986SOL    HW152030   2.601   4.351   6.088 -0.2169  0.0338 -0.9233
16986SOL    HW252031   2.531   4.440   6.188  0.7478  0.4329 -0.5957
16987SOL     OW52032   4.202   6.988   5.377  0.4932 -0.0621  0.2014
16987SOL    HW152033   4.117   6.963   5.341 -0.3748  0.7529  1.5764
16987SOL    HW252034   4.243   7.040   5.309 -0.6779  0.6329  0.0090
16988SOL     OW52035   2.014   0.624   6.455 -0.2529 -0.0137 -0.0835
16988SOL    HW152036   2.068   0.589   6.526 -2.5909 -0.0483  1.8033
16988SOL    HW252037   2.047   0.713   6.442  1.0722 -0.4476  0.1043
16989SOL     OW52038   5.812   4.339   1.626 -0.6853  0.0269  0.1320
16989SOL    HW152039   5.830   4.414   1.684 -0.8067  1.4385 -1.5874
16989SOL    HW252040   5.734   4.299   1.664 -1.0325  1.1965  0.7176
16990SOL     OW52041   7.149   4.360   0.204 -0.1231  0.0151 -0.7747
16990SOL    HW152042   7.212   4.313   0.150  0.4701  1.3030 -1.2292
16990SOL    HW252043   7.081   4.295   0.224  0.9857 -1.2011 -0.8428
16991SOL     OW52044   1.484   7.698   6.056 -0.5607 -0.2291  0.0237
16991SOL    HW152045   1.400   7.676   6.016 -0.7071  0.4741 -0.0766
16991SOL    HW252046   1.460   7.735   6.142 -0.3381 -0.2577  0.0983
16992SOL     OW52047   5.701   0.457   3.231 -0.1666 -0.3354 -0.7585
16992SOL    HW152048   5.752   0.527   3.189 -0.9670  0.2441 -0.7904
16992SOL    HW252049   5.636   0.504   3.283  0.8011 -1.0258  1.1542
16993SOL     OW52050   5.889   3.219   7.624  0.2833  0.2390 -0.2165
16993SOL    HW152051   5.976   3.194   7.654 -0.7983 -1.9341  1.3309
16993SOL    HW252052   5.853   3.140   7.585 -0.9086  1.2049 -1.1799
16994SOL     OW52053   4.089   8.009   1.832 -0.0696 -0.2489 -0.4103
16994SOL    HW152054   4.003   7.974   1.807 -0.1740 -0.1614 -0.1732
16994SOL    HW252055   4.078   8.039   1.922 -0.5364  2.1775 -1.2144
16995SOL     OW52056   6.053   4.318   7.477 -0.0216  0.0944  0.3207
16995SOL    HW152057   6.101   4.360   7.406 -1.3407 -1.4835 -1.6107
16995SOL    HW252058   6.014   4.240   7.437  0.6941 -1.9409  3.2107
16996SOL     OW52059   6.205   6.343   1.772 -0.0112  0.1032 -0.2033
16996SOL    HW152060   6.228   6.418   1.717  2.0906  0.6230  1.2999
16996SOL    HW252061   6.286   6.295   1.784 -0.7232 -0.8258  1.2214
16997SOL     OW52062   0.022   1.438   2.181  0.2794  0.1928  0.1416
16997SOL    HW152063   0.011   1.486   2.099 -0.1671  0.4508  0.3544
16997SOL    HW252064  -0.018   1.353   2.165  2.2867 -0.6518 -0.7078
16998SOL     OW52065   3.378   4.447   5.943 -0.5866  0.3635 -0.1823
16998SOL    HW152066   3.314   4.404   5.887 -0.0500  0.0432 -0.5465
16998SOL    HW252067   3.325   4.505   5.998 -1.1088  0.8022 -1.1162
16999SOL     OW52068   3.591   7.781   3.326  0.1517 -0.1676 -0.2518
16999SOL    HW152069   3.650   7.777   3.250 -2.3859  1.3244 -2.5167
16999SOL    HW252070   3.623   7.857   3.376  2.2295 -1.5331  0.6366
17000SOL     OW52071   5.063   4.929   6.416 -0.6047 -0.7938  0.0064
17000SOL    HW152072   5.015   4.846   6.423 -0.1340 -1.3244 -2.2082
17000SOL    HW252073   5.004   4.994   6.453 -1.3666 -1.9858  0.9619
17001SOL     OW52074   6.186   3.598   2.013  0.3929  0.2239  0.2199
17001SOL    HW152075   6.152   3.681   1.981 -2.0779  0.1484  2.3500
17001SOL    HW252076   6.144   3.585   2.098  3.8150 -1.2788  1.8884
17002SOL     OW52077   6.176   2.095   4.070 -0.2868 -0.6862  0.0098
17002SOL    HW152078   6.189   2.036   3.996 -2.7726 -0.0677 -1.0204
17002SOL    HW252079   6.126   2.168   4.034 -1.6920 -0.4023  2.3218
17003SOL     OW52080   2.457   2.500   4.339  0.0277  0.4091  0.0628
17003SOL    HW152081   2.507   2.572   4.378  0.3696  1.0581 -1.4931
17003SOL    HW252082   2.386   2.484   4.402  0.9904  0.8579  1.3131
17004SOL     OW52083   4.401   0.174   0.235  0.2705  0.3308 -0.0466
17004SOL    HW152084   4.457   0.210   0.304 -2.5355  0.1599  2.5935
17004SOL    HW252085   4.425   0.082   0.230  0.8902  0.4655  0.3170
17005SOL     OW52086   4.496   3.487   3.467  0.0598  0.0145 -0.3817
17005SOL    HW152087   4.550   3.442   3.402 -0.2722  0.0588 -0.6900
17005SOL    HW252088   4.547   3.482   3.548 -0.6140 -2.2537 -0.0265
17006SOL     OW52089   3.967   4.613   6.573 -0.2855 -0.0780 -0.0287
17006SOL    HW152090   4.061   4.626   6.585  0.3729 -2.7891 -1.4159
17006SOL    HW252091   3.946   4.662   6.493  0.1061 -0.0490 -0.1170
17007SOL     OW52092   5.206   4.011   2.281 -0.1633  0.5616  0.3398
17007SOL    HW152093   5.164   3.992   2.365  0.7395  1.2068  0.9597
17007SOL    HW252094   5.195   3.931   2.229  1.1721 -0.6931  1.8689
17008SOL     OW52095   1.923   5.778   6.264  0.2623 -0.0054 -0.4521
17008SOL    HW152096   1.904   5.809   6.176 -0.5076  0.0878 -0.2643
17008SOL    HW252097   1.904   5.853   6.321 -1.5989 -0.7442  0.0061
17009SOL     OW52098   1.946   6.261   3.558 -0.7370  0.2633 -0.6931
17009SOL    HW152099   1.911   6.344   3.525 -1.5012  0.6900  1.0659
17009SOL    HW252100   2.024   6.244   3.505 -0.0503  2.5740 -0.5274
17010SOL     OW52101   2.127   3.820   2.919 -0.1907 -0.1488  0.3066
17010SOL    HW152102   2.199   3.795   2.862  0.5657 -2.0223  1.9552
17010SOL    HW252103   2.168   3.842   3.003 -1.2887  2.2167  0.3050
17011SOL     OW52104   4.723   0.542   4.078 -0.4776  0.1291  0.4592
17011SOL    HW152105   4.772   0.527   3.997 -2.4918 -2.0875 -0.4656
17011SOL    HW252106   4.748   0.470   4.135 -2.4272 -0.9605  0.0217
17012SOL     OW52107   3.413   7.928   1.377 -0.4221  0.3388  0.0060
17012SOL    HW152108   3.482   7.994   1.364  0.0890 -0.1818  0.0614
17012SOL    HW252109   3.337   7.964   1.330  0.0446  0.6604 -0.5126
17013SOL     OW52110   1.322   8.034   7.352  0.3789  0.1094 -0.0885
17013SOL    HW152111   1.349   8.012   7.441 -0.7255  0.7233  0.4202
17013SOL    HW252112   1.352   8.124   7.340 -1.3255  0.8027  0.4862
17014SOL     OW52113   5.049   5.258   6.223 -0.2586 -0.4421 -0.3768
17014SOL    HW152114   5.134   5.227   6.192  0.2786  1.2360 -0.6742
17014SOL    HW252115   4.994   5.180   6.222  1.8263 -2.1405  2.0035
17015SOL     OW52116   4.209   3.553   3.683 -0.1835  0.3010 -0.1584
17015SOL    HW152117   4.278   3.606   3.644  0.2875  0.1227  0.4201
17015SOL    HW252118   4.146   3.540   3.612 -0.0342  1.1614 -0.4640
17016SOL     OW52119   2.050   4.500   6.705 -0.4417  0.2070  0.1633
17016SOL    HW152120   2.083   4.489   6.616 -1.6488  0.0449 -0.2899
17016SOL    HW252121   2.000   4.582   6.703 -2.1926 -0.8222  0.1227
17017SOL     OW52122   6.730   1.556   7.125  0.4934  0.6200 -0.2890
17017SOL    HW152123   6.791   1.598   7.186 -0.5199  0.0872  1.1224
17017SOL    HW252124   6.660   1.620   7.113 -0.1073  0.1024  0.3842
17018SOL     OW52125   0.527   7.069   6.638  0.1765  0.4161 -0.3536
17018SOL    HW152126   0.578   7.146   6.663  1.6673 -0.1831 -1.3792
17018SOL    HW252127   0.587   6.995   6.651 -0.5028 -0.3449 -1.3761
17019SOL     OW52128   4.344   7.571   6.261  0.2875 -0.5177 -0.1361
17019SOL    HW152129   4.327   7.495   6.206  0.7340  0.3481 -1.5123
17019SOL    HW252130   4.433   7.598   6.238  0.5121 -0.1608  1.0642
17020SOL     OW52131   2.418   3.623   5.340  0.4694  0.0803 -0.2878
17020SOL    HW152132   2.509   3.605   5.318  0.1353 -0.9216 -0.9359
17020SOL    HW252133   2.406   3.583   5.426  1.4861  3.0748  1.4063
17021SOL     OW52134   6.045   0.525   0.267 -0.8802 -0.3982 -0.1819
17021SOL    HW152135   6.080   0.565   0.187 -1.3334 -0.5665 -0.4709
17021SOL    HW252136   6.093   0.567   0.338  1.5706 -2.2266 -0.6185
17022SOL     OW52137   7.200   6.844   5.069  0.0834 -0.5236 -0.3069
17022SOL    HW152138   7.181   6.767   5.016  1.2552  1.2633 -3.6338
17022SOL    HW252139   7.118   6.862   5.116 -0.9850 -2.3423 -1.3482
17023SOL     OW52140   4.045   6.368   7.691  0.3716 -0.3735  0.0102
17023SOL    HW152141   4.019   6.282   7.724 -2.4271  0.5865  0.5542
17023SOL    HW252142   4.018   6.368   7.599 -0.8258  0.3081  0.3362
17024SOL     OW52143   1.251   6.501   6.608  0.5104  0.5921 -0.4664
17024SOL    HW152144   1.301   6.582   6.600  0.0226  0.8352 -1.1612
17024SOL    HW252145   1.278   6.449   6.532  3.0305 -1.1771  1.4508
17025SOL     OW52146   0.029   0.572   1.766 -0.0530  0.7103 -0.0744
17025SOL    HW152147   0.077   0.518   1.830  0.6491  0.8454 -0.4704
17025SOL    HW252148   0.075   0.656   1.767 -0.6032  1.0103 -0.0970
17026SOL     OW52149   6.299   4.491   1.856 -0.8550 -0.0769  0.3623
17026SOL    HW152150   6.309   4.396   1.854  0.8780  0.0543  1.0911
17026SOL    HW252151   6.238   4.511   1.784  0.6409 -1.5368 -1.3886
17027SOL     OW52152   4.144   6.470   6.726  0.6809  0.6130 -0.2128
17027SOL    HW152153   4.153   6.446   6.633 -0.5254 -0.3610 -0.0955
17027SOL    HW252154   4.159   6.565   6.727  0.9896  0.5986 -1.3615
17028SOL     OW52155   0.070   5.097   0.183  0.3642 -0.5921 -0.1750
17028SOL    HW152156   0.121   5.021   0.156  3.5438  1.7880 -1.4621
17028SOL    HW252157   0.076   5.158   0.110 -2.4503  0.8037  0.6109
17029SOL     OW52158   0.993   5.698   0.121 -0.0206  0.7966  0.1174
17029SOL    HW152159   0.933   5.638   0.077 -0.8342  1.6045  0.0940
17029SOL    HW252160   0.987   5.780   0.071 -0.4928  1.5426  1.3508
17030SOL     OW52161   8.059   4.974   3.878 -0.6336  0.1127  0.0570
17030SOL    HW152162   7.977   4.926   3.894 -0.2955 -0.5893 -0.3037
17030SOL    HW252163   8.036   5.066   3.897 -1.3220 -0.1578  0.6133
17031SOL     OW52164   1.960   6.694   6.613 -0.2869 -0.1994  0.0875
17031SOL    HW152165   1.918   6.707   6.528  0.7739  1.1951 -0.2650
17031SOL    HW252166   1.918   6.759   6.670 -0.6360 -0.7804  0.4956
17032SOL     OW52167   1.197   1.689   0.724  0.2053 -0.2288  0.1727
17032SOL    HW152168   1.241   1.754   0.778 -0.9148  0.1944  0.6149
17032SOL    HW252169   1.150   1.740   0.658  1.2963 -0.7279 -1.0206
17033SOL     OW52170   6.120   4.895   5.214 -0.1006  0.4665  0.1868
17033SOL    HW152171   6.026   4.879   5.222 -0.0500  0.1145  0.0879
17033SOL    HW252172   6.156   4.814   5.176  0.5688 -0.3583  2.3884
17034SOL     OW52173   5.838   7.105   0.279  0.3918 -0.2222 -0.4550
17034SOL    HW152174   5.803   7.029   0.232  0.0857 -0.4995  0.2178
17034SOL    HW252175   5.924   7.076   0.311  0.1711 -0.3725  0.0107
17035SOL     OW52176   0.100   2.878   7.765  0.3541 -0.2996 -0.2000
17035SOL    HW152177   0.146   2.813   7.818 -0.7176 -1.2860 -0.4365
17035SOL    HW252178   0.038   2.920   7.825  1.1910  0.6781  0.0033
17036SOL     OW52179   3.604   0.786   4.920 -0.0596 -0.5271  0.1470
17036SOL    HW152180   3.550   0.798   4.841 -0.9389 -0.5944  0.7274
17036SOL    HW252181   3.648   0.702   4.906  1.2078  0.2954 -1.0781
17037SOL     OW52182   5.949   3.471   0.231  0.6365  0.4300 -0.0238
17037SOL    HW152183   6.023   3.498   0.176  2.3684  0.3204  2.1274
17037SOL    HW252184   5.985   3.403   0.288 -1.8625 -1.6035 -0.6740
17038SOL     OW52185   0.649   2.945   7.218  0.9052 -0.2592  0.3869
17038SOL    HW152186   0.555   2.961   7.218  0.6672 -1.1720  2.8053
17038SOL    HW252187   0.658   2.852   7.198  1.0421 -0.7705  2.5330
17039SOL     OW52188   2.177   1.210   7.983 -0.0207 -0.6790 -0.5227
17039SOL    HW152189   2.228   1.263   7.922  1.4711  0.9989  2.0009
17039SOL    HW252190   2.239   1.145   8.016 -0.4201 -0.7230  0.1552
17040SOL     OW52191   5.612   6.700   4.418  0.0390  0.6863  0.7028
17040SOL    HW152192   5.559   6.778   4.400 -1.8338 -0.7328 -0.3038
17040SOL    HW252193   5.602   6.646   4.339  0.7855 -0.8410  1.6210
17041SOL     OW52194   2.190   5.959   0.017 -0.1142  0.2775  0.2747
17041SOL    HW152195   2.160   6.013  -0.056 -1.1783  0.4280  0.8018
17041SOL    HW252196   2.254   5.899  -0.022  0.7119  1.5645 -0.4141
17042SOL     OW52197   6.421   3.805   1.185  0.1218 -0.2080  0.0080
17042SOL    HW152198   6.477   3.791   1.109 -0.5810 -0.0075 -0.5528
17042SOL    HW252199   6.332   3.804   1.151 -0.2062 -0.0689  0.8201
17043SOL     OW52200   4.725   5.140   3.823  0.3928  0.3579  0.4651
17043SOL    HW152201   4.789   5.149   3.894  0.8442 -1.3750  0.3328
17043SOL    HW252202   4.776   5.102   3.751  0.2772  3.2680 -1.3239
17044SOL     OW52203   3.780   5.270   4.022  0.0567 -0.3398 -0.0824
17044SOL    HW152204   3.813   5.181   4.012 -1.1123 -0.7077 -0.8704
17044SOL    HW252205   3.750   5.294   3.935 -0.8755  0.3227  0.4070
17045SOL     OW52206   6.580   3.873   6.496 -0.1504  0.0885 -0.3758
17045SOL    HW152207   6.646   3.812   6.461 -0.5762 -1.8563  1.9458
17045SOL    HW252208   6.547   3.830   6.575 -2.9614  1.8110 -0.4688
17046SOL     OW52209   2.312   6.985   5.097 -0.3706 -0.4478  0.0345
17046SOL    HW152210   2.405   7.007   5.097 -0.5435  0.5333 -1.8593
17046SOL    HW252211   2.310   6.890   5.112  1.0907 -0.8147 -1.7016
17047SOL     OW52212   1.142   4.016   4.854 -0.0235  0.1904 -0.2897
17047SOL    HW152213   1.219   4.044   4.904 -0.4873 -0.8697  1.0624
17047SOL    HW252214   1.068   4.036   4.911 -0.6386 -0.2331 -0.9339
17048SOL     OW52215   3.798   2.021   0.517  0.5066  0.3825  0.1650
17048SOL    HW152216   3.842   2.102   0.490  0.8423 -0.1494 -0.9335
17048SOL    HW252217   3.861   1.952   0.499  0.4440 -0.0889  1.6372
17049SOL     OW52218   3.835   4.607   1.315 -0.1056  0.1680 -0.0952
17049SOL    HW152219   3.917   4.571   1.280  1.1988  0.5891  2.2863
17049SOL    HW252220   3.833   4.697   1.285  0.0566  0.0280 -0.5365
17050SOL     OW52221   7.956   6.989   3.110 -0.5430  0.5117  0.0408
17050SOL    HW152222   7.921   7.055   3.170 -0.9862  0.8620 -0.5887
17050SOL    HW252223   8.037   6.958   3.152 -0.6773  0.9815  0.6537
17051SOL     OW52224   3.709   3.013   5.636  0.0607  0.0452  0.2090
17051SOL    HW152225   3.709   3.076   5.709 -0.9116 -0.6535  0.8329
17051SOL    HW252226   3.648   3.051   5.572 -2.0590 -1.1275  1.4145
17052SOL     OW52227   6.888   1.640   2.054 -0.2913  0.1207  0.2424
17052SOL    HW152228   6.860   1.711   1.996 -0.2613  1.2742  1.6065
17052SOL    HW252229   6.825   1.569   2.037  1.4416 -0.8289 -3.4138
17053SOL     OW52230   2.385   1.761   6.978 -0.1943 -0.2067  0.0235
17053SOL    HW152231   2.443   1.836   6.963  0.4124 -0.9572 -1.5773
17053SOL    HW252232   2.385   1.750   7.073  2.4691 -0.2962  0.0820
17054SOL     OW52233   2.591   1.047   4.429 -0.1861  0.2375 -0.4035
17054SOL    HW152234   2.503   1.082   4.417 -0.0949  0.3883 -0.6603
17054SOL    HW252235   2.646   1.125   4.437 -0.3079  0.1670  1.6738
17055SOL     OW52236   8.046   5.986   8.095  0.2584  0.0587 -0.1966
17055SOL    HW152237   8.058   5.938   8.176  1.5156 -2.1217 -1.5844
17055SOL    HW252238   7.995   6.064   8.120 -0.5818 -1.2270  2.3863
17056SOL     OW52239   7.288   6.503   0.847 -0.2046  0.1768 -0.3167
17056SOL    HW152240   7.201   6.528   0.816  0.8237  3.7201 -0.7716
17056SOL    HW252241   7.347   6.527   0.775  1.2335 -2.0198  0.0341
17057SOL     OW52242   1.321   6.361   7.923  0.4798  0.6593  0.1749
17057SOL    HW152243   1.265   6.393   7.852  1.3652  2.9938  0.4411
17057SOL    HW252244   1.360   6.440   7.960  0.9449 -0.5937  2.5373
17058SOL     OW52245   3.598   4.728   7.625 -0.3695  0.1860  0.5267
17058SOL    HW152246   3.509   4.743   7.656 -1.0476 -0.7357 -0.8634
17058SOL    HW252247   3.645   4.698   7.702 -2.0714 -2.3625  0.7055
17059SOL     OW52248   6.414   7.938   5.140 -0.1215  0.1373 -0.2583
17059SOL    HW152249   6.364   8.018   5.125 -0.0318  0.3718  0.6783
17059SOL    HW252250   6.491   7.966   5.188  0.6551 -0.3036 -1.2224
17060SOL     OW52251   6.911   2.233   1.261  0.0118  0.4243 -0.1246
17060SOL    HW152252   6.911   2.152   1.314 -1.1738  2.0348  2.5793
17060SOL    HW252253   6.818   2.248   1.241  0.1781  1.3179 -0.2490
17061SOL     OW52254   5.918   0.490   4.306 -0.2563  0.0138  0.2396
17061SOL    HW152255   5.865   0.567   4.286  0.8751  0.4566 -1.2338
17061SOL    HW252256   6.009   0.521   4.299  0.2667 -1.7333 -1.8940
17062SOL     OW52257   2.033   0.562   4.141  0.1268  0.4040 -0.3846
17062SOL    HW152258   2.103   0.544   4.203 -0.1632 -1.7053 -0.5882
17062SOL    HW252259   2.065   0.634   4.087  2.1987 -0.5876 -0.5502
17063SOL     OW52260   1.157   4.333   1.247  0.3855  0.4171  0.3460
17063SOL    HW152261   1.147   4.405   1.309 -1.3621  0.1202  0.4547
17063SOL    HW252262   1.233   4.285   1.279  0.6509  1.3446  1.1595
17064SOL     OW52263   3.411   2.205   4.417  0.6973  0.2094 -0.0416
17064SOL    HW152264   3.429   2.204   4.510 -0.9211 -0.5304  0.3103
17064SOL    HW252265   3.475   2.144   4.379  0.7555 -0.2074  0.7194
17065SOL     OW52266   3.631   4.624   4.593  0.2387 -0.4896  0.2289
17065SOL    HW152267   3.567   4.690   4.564  0.1557 -0.8105 -0.3345
17065SOL    HW252268   3.716   4.662   4.571  0.3538  0.5346  2.1786
17066SOL     OW52269   5.786   7.580   0.581 -0.1335 -0.3561 -0.5118
17066SOL    HW152270   5.784   7.610   0.490 -0.4788 -1.0036 -0.7212
17066SOL    HW252271   5.745   7.651   0.630  1.3070  0.6288 -0.6665
17067SOL     OW52272   0.101   5.811   2.102 -0.3403  0.2493  0.3730
17067SOL    HW152273   0.045   5.791   2.027 -0.3620 -0.6198  0.6162
17067SOL    HW252274   0.090   5.737   2.161 -0.7543  1.1731  1.4979
17068SOL     OW52275   3.641   4.235   3.046 -0.1003 -0.2495  0.4414
17068SOL    HW152276   3.711   4.291   3.014 -0.7727 -0.7234 -2.0986
17068SOL    HW252277   3.674   4.200   3.129  1.0236  2.5043  1.2565
17069SOL     OW52278   3.466   5.064   3.192  0.1228 -0.1939  0.3165
17069SOL    HW152279   3.481   5.035   3.102 -0.7403  1.7352 -0.5144
17069SOL    HW252280   3.554   5.067   3.231  0.6670  0.1658 -0.8840
17070SOL     OW52281   7.451   2.385   6.609  0.3213 -0.6895  0.1049
17070SOL    HW152282   7.385   2.362   6.543  0.5945 -1.2641  0.0283
17070SOL    HW252283   7.505   2.451   6.566 -0.0738 -0.3671  0.0950
17071SOL     OW52284   1.982   1.654   3.909  0.8178  0.5844  0.3025
17071SOL    HW152285   1.921   1.581   3.922  1.0714  0.6482  2.1130
17071SOL    HW252286   1.934   1.716   3.854  0.0544 -0.2818 -0.0364
17072SOL     OW52287   1.824   4.458   4.500 -0.1909  0.6096 -0.1805
17072SOL    HW152288   1.865   4.499   4.576  0.1017  0.0617 -0.0348
17072SOL    HW252289   1.887   4.470   4.429 -0.5316  1.2555 -0.3787
17073SOL     OW52290   7.147   6.582   4.981  0.0872 -0.1542 -0.2189
17073SOL    HW152291   7.073   6.546   5.030 -0.3449 -1.1527 -1.5382
17073SOL    HW252292   7.221   6.525   5.001 -0.3053 -1.1150 -1.3650
17074SOL     OW52293   0.798   2.368   1.883 -0.3647  0.0317 -0.1034
17074SOL    HW152294   0.793   2.463   1.894 -2.1655 -0.1365  0.9430
17074SOL    HW252295   0.707   2.338   1.889  0.0906 -1.7073 -1.0884
17075SOL     OW52296   4.653   1.664   0.570  0.1843  0.5542  0.2110
17075SOL    HW152297   4.570   1.641   0.529 -0.1228  0.6567  0.7648
17075SOL    HW252298   4.690   1.580   0.598  0.5355  0.4554 -0.5249
17076SOL     OW52299   2.804   1.215   2.257 -0.1199  0.0168  0.4491
17076SOL    HW152300   2.855   1.288   2.292 -1.6933  0.8137  1.1445
17076SOL    HW252301   2.844   1.196   2.172  2.0386 -0.1524  1.4307
17077SOL     OW52302   7.853   1.459   7.868  0.6682 -0.6939 -0.3341
17077SOL    HW152303   7.864   1.425   7.957  1.8560 -0.5312 -0.4048
17077SOL    HW252304   7.848   1.554   7.879 -2.1022 -0.7744 -0.1911
17078SOL     OW52305   7.941   5.499   2.265  0.1464  0.0177  0.2241
17078SOL    HW152306   8.036   5.488   2.261  0.1999  0.4970  0.0570
17078SOL    HW252307   7.906   5.410   2.270  0.6216 -0.1508  0.6657
17079SOL     OW52308   7.999   4.988   2.388  0.8553 -0.2584 -0.0787
17079SOL    HW152309   8.077   4.933   2.396  1.7583  1.1510  1.2659
17079SOL    HW252310   7.951   4.972   2.469 -0.5765 -1.4921 -1.1031
17080SOL     OW52311   2.792   8.158   3.910  0.3839  0.7196  0.0725
17080SOL    HW152312   2.699   8.139   3.925  0.4836  0.5361  0.4872
17080SOL    HW252313   2.832   8.144   3.996  1.0445 -0.6857 -0.4348
17081SOL     OW52314   1.837   7.831   1.263  0.4646 -0.2288 -0.2010
17081SOL    HW152315   1.835   7.817   1.168 -0.2560 -0.5146 -0.1479
17081SOL    HW252316   1.860   7.923   1.273 -2.0665  0.5556 -0.7382
17082SOL     OW52317   1.215   1.230   7.378 -0.5395 -0.1114  0.4868
17082SOL    HW152318   1.282   1.162   7.382 -0.1034  0.2099 -0.9006
17082SOL    HW252319   1.162   1.216   7.456  1.5287  0.0521  2.0132
17083SOL     OW52320   4.871   4.587   8.044 -0.4785  0.1078 -0.1000
17083SOL    HW152321   4.784   4.548   8.038 -1.0123  1.0807  0.8852
17083SOL    HW252322   4.855   4.682   8.046  0.6494  0.3240 -0.5338
17084SOL     OW52323   5.104   8.106   3.862  0.5053 -0.2151 -0.1990
17084SOL    HW152324   5.162   8.040   3.900  1.6890  0.3011 -1.0134
17084SOL    HW252325   5.083   8.071   3.775  0.0008 -0.1662 -0.0960
17085SOL     OW52326   4.567   4.077   2.173  0.0304  0.1760 -0.1291
17085SOL    HW152327   4.647   4.025   2.185  1.1068  2.0078  1.0506
17085SOL    HW252328   4.557   4.083   2.078  1.9792  0.8383 -0.3431
17086SOL     OW52329   3.496   7.094   0.671  0.2810  0.3064  0.6521
17086SOL    HW152330   3.416   7.044   0.651  0.9384 -0.6282  0.3044
17086SOL    HW252331   3.561   7.027   0.691  0.8840  1.0785  1.3161
17087SOL     OW52332   3.510   3.625   0.448  0.2215 -0.0213  0.6071
17087SOL    HW152333   3.460   3.705   0.466  0.0720 -0.0527  0.3408
17087SOL    HW252334   3.576   3.622   0.516 -0.8944 -0.6267  1.7086
17088SOL     OW52335   0.896   1.158   2.055  0.2491 -0.3925 -0.1606
17088SOL    HW152336   0.974   1.199   2.017 -1.7525  1.7604 -2.3232
17088SOL    HW252337   0.858   1.109   1.983 -1.1100 -0.2695  0.4503
17089SOL     OW52338   7.381   1.472   6.783  0.3579  0.0539 -0.1500
17089SOL    HW152339   7.390   1.531   6.708  0.3280 -1.8167 -1.7151
17089SOL    HW252340   7.400   1.385   6.747  1.1357 -0.8307  2.2087
17090SOL     OW52341   2.627   4.519   4.834 -0.2426 -0.0175 -0.2482
17090SOL    HW152342   2.693   4.579   4.801  0.0134  0.1307  0.5167
17090SOL    HW252343   2.604   4.553   4.920 -0.4143 -0.7604  0.0110
17091SOL     OW52344   7.700   2.280   2.775  0.5991  0.3594 -0.1692
17091SOL    HW152345   7.689   2.313   2.686  1.1508 -1.1671 -0.8505
17091SOL    HW252346   7.704   2.358   2.830 -1.3390  1.2878 -1.2744
17092SOL     OW52347   5.629   3.753   1.979 -0.4092 -0.0381  0.3229
17092SOL    HW152348   5.658   3.667   1.948 -1.6325 -1.1194  2.0069
17092SOL    HW252349   5.677   3.766   2.062  1.3774  1.9310 -0.9008
17093SOL     OW52350   6.395   5.085   2.775 -0.5731  0.3901 -0.2475
17093SOL    HW152351   6.337   5.160   2.787 -1.8586 -0.5798 -0.2107
17093SOL    HW252352   6.434   5.098   2.689 -0.6688  1.1699 -0.1792
17094SOL     OW52353   4.185   3.044   5.526  0.9207 -0.5576 -0.1516
17094SOL    HW152354   4.246   2.972   5.516  4.5967  2.3230 -0.7403
17094SOL    HW252355   4.152   3.060   5.437  0.0373 -1.4914 -0.0063
17095SOL     OW52356   0.134   1.835   4.756  0.1102  0.5375  0.2974
17095SOL    HW152357   0.194   1.880   4.696 -2.6617  1.1131 -2.2611
17095SOL    HW252358   0.111   1.901   4.821  1.8196  0.4318  1.0677
17096SOL     OW52359   4.338   7.511   8.087 -0.0772  0.3086 -0.5923
17096SOL    HW152360   4.268   7.551   8.036 -1.6247 -0.1811  1.0667
17096SOL    HW252361   4.294   7.470   8.161  1.9781 -0.0202  0.5232
17097SOL     OW52362   7.495   0.935   3.438  0.1216  0.0564  0.1928
17097SOL    HW152363   7.465   1.017   3.478  0.5089  1.6419 -2.5618
17097SOL    HW252364   7.433   0.918   3.367  1.3511 -0.7659 -0.7327
17098SOL     OW52365   0.800   3.779   2.228  0.3625  0.2449 -1.1961
17098SOL    HW152366   0.733   3.734   2.278  0.4980  0.6237 -0.6688
17098SOL    HW252367   0.850   3.829   2.293 -0.3515  1.9042 -1.8674
17099SOL     OW52368   5.038   6.225   6.741 -0.0964 -0.4535  0.1205
17099SOL    HW152369   5.097   6.286   6.785  1.0938 -0.6268 -1.1408
17099SOL    HW252370   4.981   6.192   6.810 -0.4870  1.7363  0.8940
17100SOL     OW52371   4.289   4.888   2.614  0.3186 -0.0341 -0.5194
17100SOL    HW152372   4.348   4.844   2.553  0.6749  0.1686 -0.3224
17100SOL    HW252373   4.301   4.841   2.697  2.1075  1.5670  0.2099
17101SOL     OW52374   7.445   7.678   3.601 -0.1907  0.2447 -0.3464
17101SOL    HW152375   7.500   7.686   3.679 -0.2935  0.9988 -0.3463
17101SOL    HW252376   7.387   7.754   3.605  0.2601  0.6683 -1.5222
17102SOL     OW52377   8.090   7.060   3.402 -0.6190  0.3818 -0.1200
17102SOL    HW152378   8.183   7.072   3.421 -0.6344 -0.0234  0.2057
17102SOL    HW252379   8.046   7.123   3.458 -0.4976  1.2009 -0.9131
17103SOL     OW52380   0.949   1.631   1.609 -0.2483 -0.4467 -0.3362
17103SOL    HW152381   0.980   1.598   1.525  0.9137  1.2005 -0.6125
17103SOL    HW252382   0.954   1.726   1.600 -0.4526 -0.2321  1.4624
17104SOL     OW52383   8.155   5.098   0.865 -0.4575 -0.0231 -0.6036
17104SOL    HW152384   8.186   5.162   0.801 -1.4106  0.6283 -0.4321
17104SOL    HW252385   8.150   5.015   0.817 -0.0779  0.2138 -1.0567
17105SOL     OW52386   5.099   7.567   3.793  0.3203 -0.4465  0.2256
17105SOL    HW152387   5.025   7.521   3.754 -0.4685  0.6090  0.4421
17105SOL    HW252388   5.117   7.640   3.732 -0.4925  0.8215  1.4500
17106SOL     OW52389   5.369   2.183   3.897  0.2476  0.8427  0.1122
17106SOL    HW152390   5.389   2.246   3.966  1.7680 -1.6070  2.1185
17106SOL    HW252391   5.454   2.165   3.856 -0.2176  0.3590 -0.6630
17107SOL     OW52392   1.356   3.945   2.417 -0.2740  0.6931  0.0638
17107SOL    HW152393   1.341   4.040   2.419 -0.3647  0.6678  1.5440
17107SOL    HW252394   1.439   3.933   2.463  0.2354  0.1229 -0.9662
17108SOL     OW52395   3.830   4.063   8.126 -0.4364  0.0015 -0.4241
17108SOL    HW152396   3.822   3.978   8.169  0.9101  1.4948  3.1467
17108SOL    HW252397   3.924   4.071   8.107 -0.6493  0.4447 -1.3396
17109SOL     OW52398   1.827   6.156   7.746 -0.1380 -0.5330 -0.0630
17109SOL    HW152399   1.761   6.226   7.749 -1.9748 -2.0854 -1.2285
17109SOL    HW252400   1.793   6.089   7.805  0.6592 -1.1590 -0.3030
17110SOL     OW52401   2.536   0.437   4.998 -0.1992  0.1704 -0.3055
17110SOL    HW152402   2.576   0.351   4.991  1.0565  0.5236  1.7180
17110SOL    HW252403   2.570   0.486   4.922  1.4065 -0.2469  0.1104
17111SOL     OW52404   5.706   2.789   1.735 -0.7255  0.3194 -0.3318
17111SOL    HW152405   5.678   2.811   1.825 -0.9759  1.4711 -0.6698
17111SOL    HW252406   5.624   2.786   1.685 -0.6555 -1.0823 -0.3796
17112SOL     OW52407   1.183   3.945   7.815 -0.3194 -0.4047 -0.1543
17112SOL    HW152408   1.114   3.880   7.824  0.3989 -1.1833 -0.1998
17112SOL    HW252409   1.147   4.010   7.754 -1.3515 -0.3152  0.5381
17113SOL     OW52410   0.183   4.985   5.815  0.5721 -0.4700  0.5633
17113SOL    HW152411   0.193   4.922   5.886  0.5008 -0.5552  0.4980
17113SOL    HW252412   0.257   4.968   5.757  0.1872 -0.9464  0.2000
17114SOL     OW52413   7.218   6.924   3.596  0.2138 -0.4479  0.2489
17114SOL    HW152414   7.172   7.007   3.581  1.1022 -0.0807 -0.5882
17114SOL    HW252415   7.262   6.906   3.513  1.0103 -1.1371  0.8081
17115SOL     OW52416   3.999   4.827   7.537 -0.3589 -0.1986 -0.1164
17115SOL    HW152417   3.961   4.914   7.552 -0.3675 -0.1030 -0.6887
17115SOL    HW252418   3.949   4.792   7.463  0.8684  0.0599 -1.1005
17116SOL     OW52419   4.069   7.430   4.072 -0.2084 -0.0723 -0.7003
17116SOL    HW152420   4.016   7.355   4.044  1.2920 -1.6491  0.4563
17116SOL    HW252421   4.154   7.417   4.029 -0.2536  1.6077 -1.3711
17117SOL     OW52422   5.178   3.509   2.744  0.1191 -0.0774  0.2771
17117SOL    HW152423   5.204   3.596   2.714 -0.2619 -0.0790 -0.0668
17117SOL    HW252424   5.082   3.510   2.740  0.1180 -0.5530  0.1660
17118SOL     OW52425   4.707   2.541   7.314  0.6141 -0.0984 -0.2231
17118SOL    HW152426   4.697   2.540   7.219  1.4850  1.8884 -0.3821
17118SOL    HW252427   4.733   2.451   7.336 -0.8113 -0.9239 -1.6732
17119SOL     OW52428   4.734   1.265   3.593  0.0840  0.5376  0.4483
17119SOL    HW152429   4.699   1.329   3.655 -1.7523  0.4425 -0.4359
17119SOL    HW252430   4.710   1.298   3.507 -0.5273 -1.1061 -0.0458
17120SOL     OW52431   7.334   2.972   1.885 -0.4574 -0.3050  0.0727
17120SOL    HW152432   7.355   3.058   1.846 -1.0040 -0.4989 -0.6714
17120SOL    HW252433   7.407   2.955   1.944 -1.0208  1.3249  1.3408
17121SOL     OW52434   3.460   3.625   1.465  0.3605  0.2602 -0.0865
17121SOL    HW152435   3.436   3.533   1.477  0.2604  0.2974 -0.0046
17121SOL    HW252436   3.427   3.647   1.378 -1.2823  0.7492  0.6085
17122SOL     OW52437   4.706   7.972   6.533  0.1768  0.3760  0.0011
17122SOL    HW152438   4.669   8.004   6.615 -1.1432 -1.5531  0.2220
17122SOL    HW252439   4.635   7.980   6.469  0.5857  0.1158 -0.4944
17123SOL     OW52440   1.568   2.165   0.681 -0.5832 -0.3605  0.7151
17123SOL    HW152441   1.597   2.079   0.649 -0.7517 -0.1724  0.0394
17123SOL    HW252442   1.560   2.218   0.602 -1.6609 -0.0689  1.0066
17124SOL     OW52443   3.374   3.472   4.731 -0.3566  0.1723  0.1359
17124SOL    HW152444   3.346   3.530   4.659 -0.4145 -0.5279 -0.4139
17124SOL    HW252445   3.362   3.525   4.810 -3.3687 -0.1197 -0.0246
17125SOL     OW52446   2.320   4.146   7.361 -0.3809 -0.3164 -0.3517
17125SOL    HW152447   2.344   4.114   7.448  1.4456 -2.4820 -1.5303
17125SOL    HW252448   2.256   4.083   7.329 -1.2860  0.6497 -0.4793
17126SOL     OW52449   6.688   5.024   6.083  0.6034 -0.2327 -0.4240
17126SOL    HW152450   6.743   5.044   6.007 -0.3920  0.3443 -1.0197
17126SOL    HW252451   6.748   4.984   6.146  0.8274 -4.6336 -2.9897
17127SOL     OW52452   4.147   5.660   6.510  0.2722 -0.1798  0.2755
17127SOL    HW152453   4.177   5.749   6.526  0.1283 -0.4027  2.0453
17127SOL    HW252454   4.214   5.605   6.551  0.2442 -0.8907 -0.5961
17128SOL     OW52455   0.305   5.522   3.542  0.1379 -0.3874  0.2785
17128SOL    HW152456   0.304   5.618   3.545 -1.9685 -0.3281 -0.6031
17128SOL    HW252457   0.295   5.495   3.634  3.1663  0.1179  0.8717
17129SOL     OW52458   0.240   7.682   5.922 -0.3511  0.2358  0.3200
17129SOL    HW152459   0.306   7.613   5.931  0.8577  1.2087 -0.7644
17129SOL    HW252460   0.190   7.658   5.844 -0.1465  0.4082  0.1352
17130SOL     OW52461   4.560   1.846   1.906  0.1895 -0.0225 -0.0055
17130SOL    HW152462   4.502   1.865   1.833  0.0203 -4.1506 -1.1884
17130SOL    HW252463   4.644   1.825   1.865  1.3556  1.5639  1.3884
17131SOL     OW52464   1.997   3.338   4.374  0.2901 -0.4073 -0.2736
17131SOL    HW152465   2.089   3.367   4.378  0.2643 -0.3952  0.3694
17131SOL    HW252466   1.976   3.339   4.281  0.7791  0.1247 -0.3886
17132SOL     OW52467   3.929   6.765   7.972 -0.0309  0.3197  0.3149
17132SOL    HW152468   3.912   6.755   7.878  0.0389 -1.1444  0.4286
17132SOL    HW252469   3.981   6.688   7.994 -1.1750 -0.0594  1.8192
17133SOL     OW52470   7.908   5.680   2.506 -0.2014  0.9431 -0.6812
17133SOL    HW152471   7.964   5.635   2.443  0.2413  0.7644 -0.1635
17133SOL    HW252472   7.902   5.770   2.473 -0.5068  0.6911 -1.3278
17134SOL     OW52473   0.200   7.061   5.006 -0.9869 -0.8386 -0.0020
17134SOL    HW152474   0.229   7.151   4.990  0.8117 -1.0606  1.5763
17134SOL    HW252475   0.148   7.066   5.086  0.7080 -1.4015  1.1914
17135SOL     OW52476   6.341   6.223   5.660  0.1453 -0.5797  0.1840
17135SOL    HW152477   6.272   6.198   5.722 -0.9083 -1.4070 -1.2783
17135SOL    HW252478   6.369   6.310   5.690  0.0207 -1.1386  2.0930
17136SOL     OW52479   2.556   0.809   2.139 -0.4649 -0.0641 -0.2556
17136SOL    HW152480   2.546   0.830   2.232  0.6255  0.8100 -0.3170
17136SOL    HW252481   2.651   0.801   2.127 -0.5293  0.8130 -1.4975
17137SOL     OW52482   7.055   6.847   6.960 -0.6056 -0.1458 -0.0537
17137SOL    HW152483   7.129   6.881   6.911 -0.7942 -2.3907 -2.0827
17137SOL    HW252484   6.978   6.886   6.918 -0.6853  2.3343  2.1699
17138SOL     OW52485   5.141   1.983   3.061 -0.1090  0.0202  0.5279
17138SOL    HW152486   5.140   2.002   3.155 -0.8636  0.4695  0.4366
17138SOL    HW252487   5.056   1.941   3.044  0.4225 -0.9620  0.2175
17139SOL     OW52488   3.171   6.249   4.488 -0.3567  0.2053  0.2045
17139SOL    HW152489   3.200   6.166   4.452 -1.9948 -0.4230  0.2564
17139SOL    HW252490   3.112   6.285   4.421 -0.1069  1.0582  0.4274
17140SOL     OW52491   6.907   4.946   6.716 -0.2621  0.1737  0.3302
17140SOL    HW152492   6.941   5.030   6.688  3.8967 -0.6549  2.2237
17140SOL    HW252493   6.922   4.888   6.641 -0.1850  0.4330  0.1449
17141SOL     OW52494   3.437   5.243   7.375 -0.5551  0.5933 -0.1082
17141SOL    HW152495   3.404   5.155   7.357 -1.6988  1.5543 -3.3054
17141SOL    HW252496   3.388   5.271   7.453  0.8114 -1.9718  1.8266
17142SOL     OW52497   5.154   3.156   4.807 -0.2249  0.1164  0.3096
17142SOL    HW152498   5.158   3.246   4.775 -1.9314  0.6193  1.3663
17142SOL    HW252499   5.170   3.102   4.730  1.7054  1.2914 -0.1945
17143SOL     OW52500   5.616   4.953   2.667 -0.0107  0.4687 -0.1133
17143SOL    HW152501   5.597   4.898   2.591 -0.6355  2.1319 -1.2113
17143SOL    HW252502   5.549   5.021   2.665 -2.5447 -1.5003  4.1743
17144SOL     OW52503   5.541   4.720   6.627  0.2853  0.4950 -0.7693
17144SOL    HW152504   5.458   4.738   6.583 -0.2449 -0.7748 -0.3476
17144SOL    HW252505   5.556   4.627   6.611  0.6736  0.2853  0.7078
17145SOL     OW52506   1.156   0.862   6.370  0.2288  0.3976  0.5743
17145SOL    HW152507   1.082   0.918   6.393  0.0209  0.5394 -0.3756
17145SOL    HW252508   1.211   0.916   6.314  0.8870  0.1814  0.9932
17146SOL     OW52509   2.723   2.478   6.529 -0.2217 -0.5696 -0.3565
17146SOL    HW152510   2.637   2.495   6.568 -0.5378 -1.7483 -0.4861
17146SOL    HW252511   2.704   2.461   6.436  0.1561 -0.7359 -0.4045
17147SOL     OW52512   7.041   2.598   6.872  0.3977  0.4852 -0.1604
17147SOL    HW152513   7.100   2.554   6.811 -0.0188 -0.1985 -0.0769
17147SOL    HW252514   6.956   2.596   6.829 -0.0811 -0.7573  0.7807
17148SOL     OW52515   4.710   0.896   2.263  0.4439  0.1839 -0.1911
17148SOL    HW152516   4.709   0.946   2.181 -0.5591  1.3648  0.5059
17148SOL    HW252517   4.674   0.956   2.328  0.3365 -1.0550  0.9331
17149SOL     OW52518   3.557   7.534   3.235 -0.5110  0.0916  1.0107
17149SOL    HW152519   3.643   7.494   3.218 -0.7457  0.5602 -1.5967
17149SOL    HW252520   3.578   7.615   3.281  0.5212  0.4366 -0.0034
17150SOL     OW52521   1.823   2.285   7.816 -0.4909  0.1595 -0.4938
17150SOL    HW152522   1.782   2.221   7.758 -0.3502  0.5435 -1.0264
17150SOL    HW252523   1.901   2.241   7.849  1.2094  0.9825 -3.0841
17151SOL     OW52524   2.332   6.114   1.204 -0.9982 -0.0742 -0.1531
17151SOL    HW152525   2.344   6.169   1.127  2.2447 -0.4950 -0.1135
17151SOL    HW252526   2.343   6.174   1.278 -1.1144 -0.1728 -0.0549
17152SOL     OW52527   7.568   5.508   6.082  0.5478 -0.1385  0.0344
17152SOL    HW152528   7.492   5.449   6.088  0.6727 -0.2368  0.6698
17152SOL    HW252529   7.532   5.595   6.097  0.3092  0.0084 -1.2121
17153SOL     OW52530   1.990   4.473   1.011  0.1511 -0.2585 -0.1184
17153SOL    HW152531   2.063   4.449   0.954  0.2137  0.7833 -0.5016
17153SOL    HW252532   1.929   4.400   1.003  0.4668 -0.4482 -1.0007
17154SOL     OW52533   4.831   1.716   7.229  0.3626 -0.5104  0.9633
17154SOL    HW152534   4.821   1.811   7.233  0.9027 -0.3974 -0.0260
17154SOL    HW252535   4.850   1.690   7.320 -0.1599  0.2747  1.3012
17155SOL     OW52536   1.846   5.967   1.725  0.6549 -0.2765  0.1934
17155SOL    HW152537   1.815   6.039   1.669  1.3755 -0.2920 -0.2370
17155SOL    HW252538   1.879   5.901   1.663 -1.5915 -1.7811  0.4776
17156SOL     OW52539   7.550   7.639   0.543  0.5120 -0.0420 -0.4183
17156SOL    HW152540   7.548   7.607   0.452 -0.7110  0.0719 -0.4391
17156SOL    HW252541   7.585   7.727   0.537  2.7960 -0.8773 -0.4899
17157SOL     OW52542   1.764   4.164   3.627 -0.6656 -0.0615 -0.3818
17157SOL    HW152543   1.713   4.088   3.597 -0.2109  0.4013 -2.4870
17157SOL    HW252544   1.855   4.140   3.611 -0.0939 -0.7101  2.9614
17158SOL     OW52545   6.590   4.281   0.440  0.1169  0.1777 -0.5104
17158SOL    HW152546   6.551   4.209   0.390 -0.1013  0.8754 -1.3618
17158SOL    HW252547   6.617   4.241   0.523 -1.0367 -0.6461 -0.5108
17159SOL     OW52548   5.248   0.812   2.942 -0.0967  0.0492  0.1703
17159SOL    HW152549   5.308   0.804   3.017 -0.0153 -0.0034  0.0997
17159SOL    HW252550   5.299   0.860   2.877 -0.0166 -0.2912 -0.0158
17160SOL     OW52551   1.577   5.720   2.299 -0.0983 -0.0782  0.6433
17160SOL    HW152552   1.528   5.733   2.218 -0.6508 -0.6119  0.8858
17160SOL    HW252553   1.598   5.626   2.300  2.2175  0.3526 -0.1738
17161SOL     OW52554   3.683   3.010   7.886 -0.0483  0.0113  0.1476
17161SOL    HW152555   3.630   2.968   7.818  0.2485 -1.3098  0.6958
17161SOL    HW252556   3.713   2.938   7.941  0.9081  0.9097  0.8510
17162SOL     OW52557   4.227   8.063   7.565 -0.3286  0.1928 -0.0499
17162SOL    HW152558   4.248   8.045   7.656 -0.8286 -2.3377 -0.3848
17162SOL    HW252559   4.266   7.991   7.516 -0.8582  1.0083 -1.7726
17163SOL     OW52560   2.954   3.198   4.280 -0.3884 -0.2895 -0.6822
17163SOL    HW152561   2.875   3.242   4.249 -0.0943 -0.0414 -1.0794
17163SOL    HW252562   2.945   3.198   4.376 -0.5251  0.3771 -0.6929
17164SOL     OW52563   6.929   2.003   0.323 -0.1811  0.6351  0.2801
17164SOL    HW152564   6.928   2.068   0.393 -1.1092  1.0413 -0.1083
17164SOL    HW252565   6.868   1.935   0.353  0.1189  0.3589  0.2772
17165SOL     OW52566   2.301   3.698   2.752  0.7466 -0.4247 -0.3731
17165SOL    HW152567   2.236   3.702   2.681  0.0238  0.5310  0.3173
17165SOL    HW252568   2.336   3.609   2.747  0.5227 -0.4564 -1.7617
17166SOL     OW52569   3.349   4.387   7.661 -0.6595 -0.6768 -0.4162
17166SOL    HW152570   3.356   4.447   7.587 -0.8336  1.7431  1.4186
17166SOL    HW252571   3.437   4.352   7.672  0.3002  1.8146  0.4486
17167SOL     OW52572   7.456   1.651   5.098  0.0788  0.3397 -0.3454
17167SOL    HW152573   7.364   1.647   5.125  0.2249  2.0309  0.5003
17167SOL    HW252574   7.505   1.631   5.178  0.4597  0.1545 -0.6225
17168SOL     OW52575   1.777   0.344   6.355  0.1889 -0.2946 -0.0632
17168SOL    HW152576   1.856   0.325   6.407  0.1479 -0.0632  0.0844
17168SOL    HW252577   1.799   0.425   6.308  1.1126 -1.6981 -2.2042
17169SOL     OW52578   4.876   7.358   4.198  1.2532  0.0989 -0.1559
17169SOL    HW152579   4.969   7.349   4.176  1.2510  2.4931 -1.4187
17169SOL    HW252580   4.838   7.404   4.124 -0.8201 -0.1433  0.6902
17170SOL     OW52581   7.735   2.629   4.643 -0.0093 -0.1606  0.5028
17170SOL    HW152582   7.736   2.627   4.738  0.4168 -0.1468  0.5018
17170SOL    HW252583   7.667   2.567   4.618 -0.0601 -0.2292  0.8138
17171SOL     OW52584   3.938   5.954   3.472  0.3240  0.2099 -0.2573
17171SOL    HW152585   3.907   5.864   3.478 -2.3190  0.9598 -1.0430
17171SOL    HW252586   3.896   5.998   3.547 -2.6031  1.7534 -2.5884
17172SOL     OW52587   3.826   2.980   1.030 -0.0375 -0.4348 -0.3598
17172SOL    HW152588   3.818   2.958   0.937  0.3734  0.2624 -0.5682
17172SOL    HW252589   3.918   3.001   1.042  0.0878 -1.3487  0.4034
17173SOL     OW52590   7.265   4.526   4.913 -0.3490  0.4939 -0.6192
17173SOL    HW152591   7.171   4.535   4.925 -0.5196  0.3003 -1.6732
17173SOL    HW252592   7.303   4.596   4.965 -0.8874 -1.0831  2.1308
17174SOL     OW52593   1.520   2.219   7.201 -0.6343 -0.4347 -0.7004
17174SOL    HW152594   1.481   2.221   7.288 -1.3474  1.2316 -1.0297
17174SOL    HW252595   1.529   2.311   7.176 -0.0015 -0.8741 -2.1950
17175SOL     OW52596   6.504   0.406   1.498  0.4383  0.5157  0.2331
17175SOL    HW152597   6.577   0.380   1.441  0.2693 -0.4168  0.4324
17175SOL    HW252598   6.515   0.353   1.577 -0.0140  0.9373  0.5861
17176SOL     OW52599   7.526   8.060   4.547 -0.5739 -0.6146  0.0303
17176SOL    HW152600   7.543   8.147   4.511 -1.8863 -0.9729 -1.6173
17176SOL    HW252601   7.608   8.011   4.533 -0.1418  0.0745  0.1261
17177SOL     OW52602   5.067   5.511   6.329 -0.3292 -0.6744 -0.3070
17177SOL    HW152603   5.073   5.416   6.322 -0.6345 -0.8779  1.6018
17177SOL    HW252604   5.124   5.533   6.403 -2.7624  0.1911  1.4472
17178SOL     OW52605   4.706   1.481   3.806 -0.2289 -0.1346 -0.0960
17178SOL    HW152606   4.689   1.401   3.856 -1.0651  0.3507  0.4067
17178SOL    HW252607   4.628   1.534   3.819  0.8655  1.3392  0.6513
17179SOL     OW52608   1.230   4.781   3.413 -0.2848  0.0219  0.0465
17179SOL    HW152609   1.309   4.829   3.393 -0.9835  0.5563 -1.5996
17179SOL    HW252610   1.171   4.846   3.452 -0.0633 -0.2827  0.9042
17180SOL     OW52611   3.305   5.298   3.239 -0.1594 -0.2308 -0.3376
17180SOL    HW152612   3.293   5.272   3.331 -0.4622  0.0254 -0.3066
17180SOL    HW252613   3.355   5.225   3.201  1.1630  0.2649  0.3606
17181SOL     OW52614   7.853   4.920   5.809 -0.0860 -0.3112  0.3406
17181SOL    HW152615   7.849   4.974   5.888 -2.1623 -0.0497  0.1189
17181SOL    HW252616   7.792   4.848   5.826 -1.7251  0.5498 -1.5314
17182SOL     OW52617   7.836   5.025   1.538  0.2700 -0.4661  0.0338
17182SOL    HW152618   7.890   5.104   1.530 -0.0356 -0.1929  0.5878
17182SOL    HW252619   7.817   4.999   1.448 -1.6013  1.4648 -0.2186
17183SOL     OW52620   4.833   1.388   2.910 -0.4712  0.0927 -0.1280
17183SOL    HW152621   4.822   1.347   2.996 -1.1065  0.8466  0.1590
17183SOL    HW252622   4.844   1.315   2.850  0.1150 -0.4428  0.6118
17184SOL     OW52623   0.764   2.714   6.722  0.3578 -0.0695  0.7943
17184SOL    HW152624   0.815   2.657   6.663  0.0763  2.3081 -1.9477
17184SOL    HW252625   0.673   2.696   6.700  0.2631  1.2786 -0.0129
17185SOL     OW52626   6.420   1.843   1.132 -0.1467 -0.5456 -0.0072
17185SOL    HW152627   6.345   1.838   1.073 -0.1350  0.7787 -0.1510
17185SOL    HW252628   6.488   1.889   1.082  0.3891 -0.7532  0.5106
17186SOL     OW52629   8.084   0.370   5.862 -0.2149 -0.5630  0.0655
17186SOL    HW152630   8.059   0.444   5.917 -1.4434 -0.8845 -0.0275
17186SOL    HW252631   8.132   0.410   5.789 -1.5261  0.2542 -0.3861
17187SOL     OW52632   1.376   1.289   8.063 -0.0784 -0.4530 -0.8227
17187SOL    HW152633   1.360   1.196   8.044  0.0600 -0.8867  1.0598
17187SOL    HW252634   1.289   1.325   8.079 -0.1303 -0.2467 -1.5388
17188SOL     OW52635   6.081   6.647   7.972 -0.2704  0.3277  0.1323
17188SOL    HW152636   6.079   6.654   8.067  0.5385 -2.4565  0.4273
17188SOL    HW252637   6.162   6.692   7.946 -1.1614  2.2881  0.5526
17189SOL     OW52638   1.637   6.394   3.540  0.1908  0.2395 -0.1196
17189SOL    HW152639   1.637   6.339   3.461  0.2181  0.3588 -0.2036
17189SOL    HW252640   1.609   6.336   3.610  0.2957  0.0974 -0.1941
17190SOL     OW52641   7.540   2.821   7.589  0.3808 -0.3333 -0.0119
17190SOL    HW152642   7.590   2.858   7.661 -1.3566  0.5808  0.7787
17190SOL    HW252643   7.526   2.730   7.613  2.4616 -0.9108 -0.7396
17191SOL     OW52644   7.405   1.284   1.701  0.0711 -0.0094 -0.7831
17191SOL    HW152645   7.347   1.213   1.728 -1.2788  0.9022 -1.1754
17191SOL    HW252646   7.390   1.294   1.607  1.3227 -0.1367 -1.0148
17192SOL     OW52647   1.594   6.107   0.180  0.2941 -0.4200  0.0793
17192SOL    HW152648   1.502   6.104   0.156  0.9323  2.0435 -3.3575
17192SOL    HW252649   1.639   6.057   0.112  1.6569  0.3758  0.3436
17193SOL     OW52650   0.038   2.626   2.924 -0.2017 -0.4955 -0.5656
17193SOL    HW152651   0.000   2.587   3.003 -1.0672  0.6678 -0.3836
17193SOL    HW252652   0.126   2.588   2.919 -0.8940 -2.2522 -0.2745
17194SOL     OW52653   0.986   0.434   7.135  0.2798 -0.0979 -0.3646
17194SOL    HW152654   0.893   0.423   7.113  0.1261 -0.3523  0.3636
17194SOL    HW252655   1.016   0.346   7.159  0.8107 -0.0809 -0.9486
17195SOL     OW52656   3.320   7.930   2.124  0.4078 -0.1684  0.1433
17195SOL    HW152657   3.227   7.932   2.148  0.4662  1.2532  0.3130
17195SOL    HW252658   3.359   8.003   2.171  1.2208  0.5012 -1.4852
17196SOL     OW52659   2.763   8.104   3.400 -0.0248 -0.1667 -0.3296
17196SOL    HW152660   2.821   8.032   3.426  0.9691 -0.0800 -2.1683
17196SOL    HW252661   2.821   8.179   3.390 -0.7554  0.4029 -0.3720
17197SOL     OW52662   1.931   0.611   0.208  0.1515  0.1415  0.0975
17197SOL    HW152663   1.885   0.529   0.187 -0.8039  0.2254  1.6914
17197SOL    HW252664   1.864   0.666   0.248  1.1188  1.1821  0.3247
17198SOL     OW52665   6.218   6.953   8.125  0.0732 -0.4973 -0.5635
17198SOL    HW152666   6.267   7.013   8.181 -0.8561  0.0782 -0.3438
17198SOL    HW252667   6.196   6.879   8.181 -1.0856  0.1992 -0.0659
17199SOL     OW52668   2.757   4.911   2.352  0.3630  0.2230  0.3663
17199SOL    HW152669   2.708   4.836   2.387 -0.1236  0.3975  0.0620
17199SOL    HW252670   2.787   4.958   2.430 -0.6228  0.5443  0.5593
17200SOL     OW52671   4.294   2.496   5.453 -0.2145 -0.6421  0.0634
17200SOL    HW152672   4.231   2.534   5.513  0.9844  0.0563  0.9183
17200SOL    HW252673   4.279   2.402   5.458 -0.3632 -0.5629  1.1987
17201SOL     OW52674   3.380   7.409   7.666  0.1370 -0.4377 -0.2885
17201SOL    HW152675   3.293   7.378   7.692 -0.2828  1.0746  0.2126
17201SOL    HW252676   3.363   7.482   7.607  1.0688  0.0363  0.0141
17202SOL     OW52677   2.430   5.215   1.971  0.1041  0.3323  0.4177
17202SOL    HW152678   2.488   5.197   2.045  0.8221 -0.8346 -0.3924
17202SOL    HW252679   2.388   5.298   1.993  0.4181  0.1017  2.0492
17203SOL     OW52680   2.996   3.337   7.184 -0.3447  0.2608  0.2734
17203SOL    HW152681   3.088   3.359   7.198  0.4718 -1.8389 -1.2421
17203SOL    HW252682   2.978   3.267   7.247 -0.7362  0.3116  0.2204
17204SOL     OW52683   2.972   7.072   1.134  0.1974 -0.0232  0.5585
17204SOL    HW152684   2.946   6.981   1.148 -0.2072 -0.2922 -1.6308
17204SOL    HW252685   2.908   7.106   1.071  2.5716  0.5623 -1.7217
17205SOL     OW52686   7.324   0.958   2.768  0.1213 -0.0909  0.2963
17205SOL    HW152687   7.384   0.985   2.698  0.4410  0.6562  0.8412
17205SOL    HW252688   7.366   0.988   2.848 -1.4591  1.4243  0.6304
17206SOL     OW52689   5.008   4.811   7.769 -0.1250  0.2755  0.0397
17206SOL    HW152690   5.091   4.764   7.757  0.1974  0.3613  1.6679
17206SOL    HW252691   4.942   4.741   7.776  0.3665 -0.0482  2.5497
17207SOL     OW52692   4.879   6.067   7.664  0.3818  0.0417 -0.1037
17207SOL    HW152693   4.809   6.081   7.600  1.7877 -1.0654 -1.9668
17207SOL    HW252694   4.872   5.974   7.687  0.4733  0.2225  0.7065
17208SOL     OW52695   5.477   5.553   1.455  0.1557 -0.0546 -0.2844
17208SOL    HW152696   5.497   5.459   1.451  0.9028  0.0931 -0.1757
17208SOL    HW252697   5.490   5.583   1.365  0.3495  0.0239 -0.2313
17209SOL     OW52698   0.071   0.956   8.118 -0.5983 -0.2005 -0.2478
17209SOL    HW152699   0.101   1.045   8.136 -1.1289 -0.2455  0.9664
17209SOL    HW252700   0.137   0.900   8.160 -0.9314 -0.3421  0.0975
17210SOL     OW52701   6.264   3.203   7.351  0.2097 -0.2989  0.5692
17210SOL    HW152702   6.355   3.175   7.353  0.6523  1.0337  0.3783
17210SOL    HW252703   6.260   3.265   7.278 -0.4616  0.8989  1.5775
17211SOL     OW52704   2.699   1.473   5.784  0.0740 -0.0605 -0.3503
17211SOL    HW152705   2.618   1.436   5.819  0.7820  0.6072  2.1925
17211SOL    HW252706   2.766   1.408   5.803  0.6179  0.6818  0.3727
17212SOL     OW52707   2.749   6.142   4.089 -0.0455  0.0853 -0.0553
17212SOL    HW152708   2.729   6.085   4.163 -1.3815 -1.2154 -1.3389
17212SOL    HW252709   2.786   6.083   4.023  1.1397  1.2103 -0.4359
17213SOL     OW52710   3.067   4.554   6.864  0.3738 -0.1396  0.4422
17213SOL    HW152711   3.160   4.532   6.851  0.6836 -0.2447  2.5226
17213SOL    HW252712   3.031   4.479   6.910 -1.1274 -0.6915 -1.5006
17214SOL     OW52713   6.564   3.771   3.461 -0.1333 -0.4362 -0.8217
17214SOL    HW152714   6.469   3.774   3.472 -0.4561 -0.9184 -3.0136
17214SOL    HW252715   6.590   3.691   3.506 -0.7002 -0.1395  0.0741
17215SOL     OW52716   7.419   1.954   1.785 -0.1658 -0.0359 -1.0240
17215SOL    HW152717   7.464   2.031   1.749 -0.0296  0.4686  0.1573
17215SOL    HW252718   7.334   1.954   1.742  1.0075 -1.2350 -3.6099
17216SOL     OW52719   5.531   1.818   0.826 -0.1625  0.2887 -0.7094
17216SOL    HW152720   5.522   1.907   0.860 -0.3866  0.8135 -2.0810
17216SOL    HW252721   5.605   1.781   0.875 -2.1656 -0.0212  2.3682
17217SOL     OW52722   3.036   5.141   3.262 -0.1150  0.0921  0.2427
17217SOL    HW152723   3.077   5.222   3.231  0.8021 -0.1282  0.8510
17217SOL    HW252724   2.953   5.137   3.215 -0.1082  1.3114  0.0984
17218SOL     OW52725   0.485   2.402   0.774 -0.3708 -0.0229  0.2274
17218SOL    HW152726   0.527   2.482   0.742 -2.5064  1.7740  1.6403
17218SOL    HW252727   0.453   2.359   0.695  0.3664  0.7875 -0.5425
17219SOL     OW52728   7.202   1.763   7.566 -0.2552  0.0580 -0.2011
17219SOL    HW152729   7.266   1.745   7.635 -0.2840 -0.1927 -0.2371
17219SOL    HW252730   7.130   1.807   7.611  0.3540  1.2266 -0.3284
17220SOL     OW52731   2.232   7.163   7.547  0.9418  0.2832  0.1453
17220SOL    HW152732   2.279   7.097   7.599 -0.5283 -0.4667  0.5658
17220SOL    HW252733   2.146   7.125   7.532  0.8518  1.1063 -1.6628
17221SOL     OW52734   0.884   7.826   4.502  0.0840 -0.1179 -0.4155
17221SOL    HW152735   0.959   7.879   4.529  0.3143  0.4377 -2.0088
17221SOL    HW252736   0.918   7.773   4.430 -0.7854 -0.6362 -0.4483
17222SOL     OW52737   8.004   4.933   4.945  0.2278  0.4462  0.7648
17222SOL    HW152738   7.954   5.011   4.919  1.9748  1.9267  1.5913
17222SOL    HW252739   8.046   4.904   4.865  1.2394  1.6653  0.8201
17223SOL     OW52740   0.117   5.042   6.185 -0.0409 -0.4652  0.3042
17223SOL    HW152741   0.034   5.014   6.224 -0.8095  1.3652  0.0863
17223SOL    HW252742   0.156   4.961   6.153 -1.6046 -1.4187  0.6447
17224SOL     OW52743   5.077   5.195   5.638  0.7375 -0.3151 -0.9346
17224SOL    HW152744   5.096   5.143   5.561 -0.7992 -0.2011 -1.4353
17224SOL    HW252745   5.103   5.139   5.712  1.9697 -0.5282 -1.5206
17225SOL     OW52746   4.968   4.173   0.757  0.0682  0.2883  0.6078
17225SOL    HW152747   5.043   4.197   0.702  0.2486 -0.0760  0.6971
17225SOL    HW252748   5.007   4.136   0.836 -0.2126 -0.7704  0.2636
17226SOL     OW52749   0.721   4.446   4.749  0.0888 -0.8149 -0.2411
17226SOL    HW152750   0.799   4.404   4.786  0.0557 -0.6631  0.0041
17226SOL    HW252751   0.670   4.474   4.825  0.0169 -0.5062 -0.3996
17227SOL     OW52752   4.419   4.334   3.191 -0.1922 -0.3009  0.1247
17227SOL    HW152753   4.372   4.382   3.123 -0.4597  0.1484  0.6236
17227SOL    HW252754   4.474   4.399   3.233  0.2946 -0.6674  0.0567
17228SOL     OW52755   0.952   4.981   3.670 -0.0796 -0.0592 -0.1505
17228SOL    HW152756   0.969   4.887   3.677  2.8482  0.4348  0.7823
17228SOL    HW252757   0.915   5.005   3.755  2.1936  0.0745  0.8801
17229SOL     OW52758   1.690   6.143   0.629 -0.3018  0.2964 -0.1467
17229SOL    HW152759   1.594   6.141   0.635 -0.3466  0.8204 -0.5398
17229SOL    HW252760   1.708   6.136   0.535 -0.0011  1.1191 -0.1625
17230SOL     OW52761   3.732   2.552   2.229 -0.0536 -0.4661 -0.3474
17230SOL    HW152762   3.805   2.608   2.253 -0.5869 -0.8269  2.3951
17230SOL    HW252763   3.661   2.612   2.207 -0.3876  0.0016  1.8300
17231SOL     OW52764   3.237   0.058   0.810 -0.3379 -0.2260  0.1535
17231SOL    HW152765   3.153   0.059   0.764 -1.0935  2.4889  1.3967
17231SOL    HW252766   3.251  -0.035   0.831 -2.5565 -0.8741 -0.8903
17232SOL     OW52767   0.888   0.325   0.984 -0.5223 -0.5707 -0.2285
17232SOL    HW152768   0.848   0.336   0.898 -1.5246  0.3931  0.3305
17232SOL    HW252769   0.964   0.383   0.984 -0.7018 -0.3354 -0.3580
17233SOL     OW52770   7.075   6.097   3.995  0.2044  0.4581  0.4957
17233SOL    HW152771   7.132   6.102   4.072  0.9295  0.8121 -0.0467
17233SOL    HW252772   7.106   6.020   3.947 -0.6824 -0.1566  0.8837
17234SOL     OW52773   4.397   2.261   1.293  0.4999  0.3892  0.5191
17234SOL    HW152774   4.390   2.286   1.201  0.5213 -0.9756  0.1217
17234SOL    HW252775   4.314   2.288   1.332  0.8507  1.8050  0.3232
17235SOL     OW52776   2.808   2.110   2.661 -0.4475  0.2360 -0.4166
17235SOL    HW152777   2.767   2.175   2.718 -1.3075  0.8606 -1.6837
17235SOL    HW252778   2.735   2.055   2.632 -0.0762  0.1184 -1.1392
17236SOL     OW52779   2.061   2.844   4.014 -0.0548 -0.1130  0.3845
17236SOL    HW152780   2.118   2.891   3.954 -1.6586  0.7179 -0.5765
17236SOL    HW252781   2.021   2.776   3.960  0.8632 -1.4221  1.3201
17237SOL     OW52782   7.058   3.577   1.000 -0.1631  0.9262  0.3471
17237SOL    HW152783   7.150   3.574   1.026 -0.1596 -1.1568  0.2346
17237SOL    HW252784   7.022   3.494   1.030 -2.1735  1.9231  0.8812
17238SOL     OW52785   5.393   2.889   3.727 -0.3023 -0.2257  0.1121
17238SOL    HW152786   5.304   2.923   3.718  0.1764  1.4181  1.1563
17238SOL    HW252787   5.442   2.932   3.657  0.1687  0.7928  1.0381
17239SOL     OW52788   6.271   0.635   5.369  0.8759 -0.3902  0.7374
17239SOL    HW152789   6.306   0.549   5.348  0.6954  0.2787 -2.8470
17239SOL    HW252790   6.179   0.631   5.343  1.4593  1.5503 -2.0299
17240SOL     OW52791   1.718   2.644   0.001 -0.0661  0.8994  0.1978
17240SOL    HW152792   1.767   2.624  -0.080 -2.1646 -1.2449 -0.6525
17240SOL    HW252793   1.666   2.721  -0.021 -1.9716 -0.7058 -1.1995
17241SOL     OW52794   3.402   0.838   4.738 -0.2087 -0.3136  0.0681
17241SOL    HW152795   3.427   0.909   4.679  0.9022 -0.3107  0.5223
17241SOL    HW252796   3.352   0.881   4.808 -0.8263 -0.2033 -0.4337
17242SOL     OW52797   7.828   6.153   6.299  0.5988 -0.3162 -0.2837
17242SOL    HW152798   7.891   6.225   6.295 -0.2884  0.4467 -0.6919
17242SOL    HW252799   7.788   6.151   6.212 -0.1604 -0.5919  0.0675
17243SOL     OW52800   3.874   7.868   3.931  0.1493  0.5438  0.6544
17243SOL    HW152801   3.868   7.776   3.956  1.0304  0.1438 -0.5116
17243SOL    HW252802   3.786   7.902   3.945 -0.6193 -0.8881 -0.4373
17244SOL     OW52803   1.656   4.414   7.495  0.1243 -0.0077  0.7638
17244SOL    HW152804   1.639   4.387   7.404  4.3771  3.6673 -1.5473
17244SOL    HW252805   1.571   4.446   7.526 -1.0554  1.2397 -3.0788
17245SOL     OW52806   3.426   3.689   7.463 -0.1660 -0.3642 -0.8285
17245SOL    HW152807   3.340   3.665   7.499 -0.2824 -0.8190 -1.3833
17245SOL    HW252808   3.407   3.757   7.398 -0.2289 -1.1101 -1.6131
17246SOL     OW52809   2.016   4.768   7.586  0.3892 -0.5720  0.4460
17246SOL    HW152810   2.101   4.736   7.556  0.4381  1.1925 -1.5168
17246SOL    HW252811   1.952   4.720   7.535  0.2889 -0.6292  0.6257
17247SOL     OW52812   4.635   7.202   2.800  0.4653 -0.3746  0.4314
17247SOL    HW152813   4.654   7.111   2.824 -1.4683 -0.3879  2.1681
17247SOL    HW252814   4.573   7.195   2.727  1.1730 -0.4051 -0.1822
17248SOL     OW52815   5.940   1.610   0.358  0.3553  0.0264  0.0497
17248SOL    HW152816   5.959   1.535   0.303  0.8049 -0.4454  0.8364
17248SOL    HW252817   5.863   1.650   0.317  0.3675 -0.6028 -0.6177
17249SOL     OW52818   4.352   1.035   6.072  0.0924 -0.2227 -1.1012
17249SOL    HW152819   4.367   0.942   6.056  0.6280 -1.1102  3.2257
17249SOL    HW252820   4.270   1.038   6.122  0.3459  1.5520 -0.7069
17250SOL     OW52821   1.926   1.438   1.217  0.4714 -0.6085 -0.5217
17250SOL    HW152822   1.848   1.414   1.168  1.9935  1.0701 -4.1490
17250SOL    HW252823   1.987   1.366   1.203  0.8319 -0.2287 -0.9562
17251SOL     OW52824   5.280   4.983   0.820  0.1844 -0.0615  0.4665
17251SOL    HW152825   5.248   4.942   0.900 -1.2927 -0.3516 -0.2210
17251SOL    HW252826   5.239   5.070   0.820  0.6304  0.1508  0.3070
17252SOL     OW52827   7.470   1.821   3.352  0.1636 -0.3595  0.0417
17252SOL    HW152828   7.478   1.871   3.271 -1.0008 -0.2343 -0.0189
17252SOL    HW252829   7.486   1.884   3.422  1.2892 -0.4923 -0.0697
17253SOL     OW52830   0.583   3.808   8.138 -0.1685  0.3162 -0.5603
17253SOL    HW152831   0.654   3.782   8.080  1.7501  0.7453  1.4487
17253SOL    HW252832   0.516   3.740   8.126  0.8746 -0.5123 -2.0040
17254SOL     OW52833   3.880   0.490   6.748 -0.1392 -0.0085 -0.2243
17254SOL    HW152834   3.921   0.546   6.813  2.1386  0.5286 -1.9818
17254SOL    HW252835   3.886   0.402   6.785  0.7836  0.3247  0.4504
17255SOL     OW52836   2.643   7.518   2.771 -0.1649  0.3223 -0.1178
17255SOL    HW152837   2.693   7.498   2.850 -1.1674  0.7560  0.6373
17255SOL    HW252838   2.619   7.610   2.780 -5.0780 -0.8498  1.9279
17256SOL     OW52839   0.239   0.697   1.933 -0.4958  0.0142 -0.2204
17256SOL    HW152840   0.215   0.789   1.917  0.2228  0.3813  0.7161
17256SOL    HW252841   0.314   0.682   1.876 -0.6243 -0.0045 -0.3874
17257SOL     OW52842   6.954   6.596   3.246  0.0487  0.2387 -0.1390
17257SOL    HW152843   6.922   6.538   3.177 -0.6727  2.0600 -1.4120
17257SOL    HW252844   7.045   6.613   3.222  0.4142 -0.7056  0.5102
17258SOL     OW52845   1.703   1.396   2.449 -0.9299 -0.3421 -0.4190
17258SOL    HW152846   1.713   1.338   2.373  1.8638  0.2525 -0.5965
17258SOL    HW252847   1.745   1.348   2.521  0.5035  0.9672 -0.3403
17259SOL     OW52848   4.708   6.912   0.561 -0.2466 -0.1388  0.3979
17259SOL    HW152849   4.780   6.849   0.552 -1.2826 -1.2727 -0.3002
17259SOL    HW252850   4.740   6.991   0.518  0.5122 -0.7029 -0.1009
17260SOL     OW52851   3.598   2.370   2.382  0.2085  0.0494 -0.2145
17260SOL    HW152852   3.645   2.431   2.326  0.4687  1.3557  1.3627
17260SOL    HW252853   3.663   2.343   2.447 -0.8901  1.0805  1.3781
17261SOL     OW52854   4.882   2.611   2.510  0.1791 -0.3170  0.2878
17261SOL    HW152855   4.854   2.602   2.601  0.8279  0.5328  0.5866
17261SOL    HW252856   4.803   2.635   2.463 -0.0268 -0.0342  0.7642
17262SOL     OW52857   6.613   6.266   7.621  0.2378  0.0875 -0.1884
17262SOL    HW152858   6.699   6.260   7.580 -0.2345 -1.9557 -0.9885
17262SOL    HW252859   6.583   6.176   7.628 -1.8429  0.7460  0.0902
17263SOL     OW52860   6.892   6.104   2.251  0.1560 -0.2249 -0.2551
17263SOL    HW152861   6.906   6.084   2.344  1.7775  1.1796 -0.1501
17263SOL    HW252862   6.896   6.019   2.208  0.2330 -0.8178  0.8728
17264SOL     OW52863   7.091   7.260   1.811  0.4719 -0.1398  0.0668
17264SOL    HW152864   7.163   7.200   1.826  0.8504 -0.2915 -2.0992
17264SOL    HW252865   7.013   7.205   1.814  0.8432 -0.8920 -2.3077
17265SOL     OW52866   7.448   0.694   0.552  0.0297 -0.2926  0.4456
17265SOL    HW152867   7.365   0.709   0.505  0.5693  1.9696  0.1235
17265SOL    HW252868   7.472   0.604   0.528 -0.5324  0.2038 -2.3932
17266SOL     OW52869   0.239   2.071   3.511 -0.2256  0.3615 -0.4553
17266SOL    HW152870   0.319   2.078   3.562 -0.6575  0.5513  0.2025
17266SOL    HW252871   0.255   2.125   3.433  0.4006  0.1391 -0.4869
17267SOL     OW52872   2.856   4.145   1.190  0.2544  0.6750  0.3970
17267SOL    HW152873   2.776   4.176   1.232 -0.9142 -0.2818 -1.0290
17267SOL    HW252874   2.926   4.195   1.232 -1.0897  1.6609  1.5635
17268SOL     OW52875   5.235   4.885   7.520 -0.3726  0.0208 -0.0501
17268SOL    HW152876   5.310   4.827   7.509  0.0967  0.8445 -1.5091
17268SOL    HW252877   5.164   4.827   7.547  0.8783 -0.7044  1.9323
17269SOL     OW52878   4.824   0.029   6.837  0.0998 -0.0081 -0.1488
17269SOL    HW152879   4.898   0.059   6.891 -0.3410 -0.0418  0.4851
17269SOL    HW252880   4.797   0.106   6.788 -0.2974  0.3596  0.6262
17270SOL     OW52881   0.070   0.841   2.246 -0.6459 -0.1319 -0.4988
17270SOL    HW152882   0.038   0.841   2.156 -1.2647  0.6720 -0.2932
17270SOL    HW252883  -0.008   0.856   2.300  0.0036  1.5878  0.0281
17271SOL     OW52884   4.118   0.307   2.919  0.3059 -0.0671  0.1737
17271SOL    HW152885   4.029   0.331   2.893  0.6313  0.9721 -0.0599
17271SOL    HW252886   4.123   0.334   3.011  0.3809 -0.1129  0.1826
17272SOL     OW52887   1.829   1.346   6.900 -0.0439  0.1762  0.0147
17272SOL    HW152888   1.856   1.293   6.975 -0.3878 -2.8725 -1.8406
17272SOL    HW252889   1.905   1.402   6.882  2.2057 -2.7317 -0.4252
17273SOL     OW52890   5.638   7.270   4.501 -0.1439  0.1710  0.0280
17273SOL    HW152891   5.564   7.298   4.445  0.0682  0.8386  0.0670
17273SOL    HW252892   5.699   7.344   4.498  0.7306 -0.5474 -0.3493
17274SOL     OW52893   2.139   0.565   3.052 -0.4330  0.0588  0.1756
17274SOL    HW152894   2.149   0.506   3.126 -1.5826 -1.4722 -0.8289
17274SOL    HW252895   2.182   0.520   2.979 -0.4148  0.9456 -0.3762
17275SOL     OW52896   5.377   4.765   5.180  0.1005  0.2867 -0.4422
17275SOL    HW152897   5.438   4.711   5.231 -0.8958 -0.9799 -0.5346
17275SOL    HW252898   5.375   4.723   5.094  0.9031  1.7428 -1.2028
17276SOL     OW52899   7.878   2.930   0.907 -0.1425 -0.0529 -0.4216
17276SOL    HW152900   7.789   2.941   0.940 -0.7643  0.6073 -2.1988
17276SOL    HW252901   7.872   2.855   0.848  0.7686 -0.7234  0.2981
17277SOL     OW52902   0.783   3.140   2.484 -0.2350  0.0556  0.7750
17277SOL    HW152903   0.812   3.131   2.575 -0.4274 -0.2056  0.8088
17277SOL    HW252904   0.699   3.095   2.480  0.4421 -1.1796  0.1277
17278SOL     OW52905   1.939   4.517   7.453  0.0030  0.3144  0.4561
17278SOL    HW152906   1.861   4.473   7.419  0.9318 -2.3931  1.5414
17278SOL    HW252907   2.012   4.470   7.413  1.1576  2.7009 -0.4312
17279SOL     OW52908   0.083   0.366   2.865 -0.3342  0.0737 -0.5932
17279SOL    HW152909   0.060   0.412   2.945  0.7315  1.9268 -1.2828
17279SOL    HW252910   0.152   0.305   2.892 -0.3301  0.3241 -0.0181
17280SOL     OW52911   6.239   1.217   2.010  0.3174  0.0054 -0.6666
17280SOL    HW152912   6.147   1.221   2.035  0.1861 -1.0500 -0.9324
17280SOL    HW252913   6.240   1.159   1.934  1.0209  1.1627 -1.5789
17281SOL     OW52914   0.021   6.297   3.343  0.1022  0.6036  0.2724
17281SOL    HW152915  -0.015   6.281   3.256  1.1160  0.9733 -0.2332
17281SOL    HW252916   0.064   6.214   3.366  2.0262  1.2516 -0.7023
17282SOL     OW52917   6.327   2.279   6.852 -0.1940  0.0889 -0.1747
17282SOL    HW152918   6.380   2.200   6.865 -1.3045 -0.8550 -1.1231
17282SOL    HW252919   6.366   2.344   6.911  0.6098 -1.2278  0.8067
17283SOL     OW52920   1.195   1.100   1.085 -0.0089 -0.3629 -0.4316
17283SOL    HW152921   1.128   1.132   1.145  1.2180  0.5107  0.5220
17283SOL    HW252922   1.215   1.012   1.118 -0.2998 -0.4103 -0.3793
17284SOL     OW52923   6.217   0.171   5.886  0.3100 -0.0152 -0.7468
17284SOL    HW152924   6.161   0.248   5.875  2.1013  1.6007  0.6442
17284SOL    HW252925   6.161   0.106   5.928 -1.0952  0.7170 -1.4287
17285SOL     OW52926   3.581   2.085   3.138 -0.3020  0.0463  0.2255
17285SOL    HW152927   3.641   2.015   3.114  0.6309  0.8406  0.1654
17285SOL    HW252928   3.534   2.052   3.215 -0.4244 -0.9224 -0.2519
17286SOL     OW52929   6.839   3.819   2.354  0.0339  0.1347  0.0771
17286SOL    HW152930   6.749   3.825   2.324  0.4321  0.6049 -1.0942
17286SOL    HW252931   6.858   3.725   2.354 -0.4280  0.0405  0.2446
17287SOL     OW52932   5.651   5.832   1.373 -0.2467 -0.6943 -0.0015
17287SOL    HW152933   5.644   5.923   1.343 -1.8455 -1.7476 -3.3973
17287SOL    HW252934   5.717   5.793   1.315  1.4714 -1.4816  2.3191
17288SOL     OW52935   2.210   7.295   1.603  0.8763 -0.2688  0.5415
17288SOL    HW152936   2.242   7.217   1.648  1.7917 -1.4697 -1.9676
17288SOL    HW252937   2.290   7.338   1.570  0.2631 -1.3017 -2.6754
17289SOL     OW52938   4.751   1.416   1.584 -0.2428  0.5807 -0.7217
17289SOL    HW152939   4.762   1.480   1.655 -2.7654  0.2091  0.1084
17289SOL    HW252940   4.820   1.437   1.522 -0.5949  3.7320 -0.1947
17290SOL     OW52941   4.607   1.932   8.023 -0.1039  0.2758 -0.3514
17290SOL    HW152942   4.548   1.951   8.096 -1.3860  0.7192 -1.4527
17290SOL    HW252943   4.681   1.887   8.063 -2.3265 -2.6510  0.8073
17291SOL     OW52944   3.991   3.772   5.585  0.2155 -0.4143  0.5955
17291SOL    HW152945   3.931   3.766   5.659  0.3005 -0.0268  0.7005
17291SOL    HW252946   4.025   3.683   5.574  0.2706 -0.4563  1.0823
17292SOL     OW52947   3.874   1.790   3.925 -0.4154  0.2816 -0.0543
17292SOL    HW152948   3.819   1.712   3.932 -1.5216  0.9672 -0.8036
17292SOL    HW252949   3.846   1.845   3.998 -1.7530  1.2184 -1.2063
17293SOL     OW52950   4.131   7.122   2.894  0.1977 -0.0998  0.8203
17293SOL    HW152951   4.095   7.128   2.982  2.5296 -0.1190  1.8704
17293SOL    HW252952   4.186   7.200   2.886  0.8307 -0.6300 -0.2097
17294SOL     OW52953   3.587   7.437   7.838  0.2085 -0.3710 -0.0835
17294SOL    HW152954   3.570   7.435   7.932 -0.4547  2.8220 -0.0211
17294SOL    HW252955   3.501   7.423   7.798  0.3057 -0.6650 -0.1892
17295SOL     OW52956   8.122   6.371   0.668  0.6516 -0.1310 -0.3805
17295SOL    HW152957   8.147   6.295   0.615  2.7192  0.3189 -0.1051
17295SOL    HW252958   8.150   6.349   0.757 -0.5191  0.1703  0.0866
17296SOL     OW52959   6.516   4.248   1.943 -0.1081 -0.1342  0.0230
17296SOL    HW152960   6.526   4.330   1.991 -1.0035  0.8267 -1.3632
17296SOL    HW252961   6.515   4.274   1.850  1.3059 -1.8849 -0.5441
17297SOL     OW52962   4.287   5.529   3.991  0.4764  0.0880 -0.2188
17297SOL    HW152963   4.334   5.564   3.916  0.7773  0.8347  0.2980
17297SOL    HW252964   4.300   5.595   4.060 -1.0648  0.1576  0.0310
17298SOL     OW52965   0.458   4.945   7.130 -0.3278 -0.4019  0.5394
17298SOL    HW152966   0.430   4.979   7.045  1.6588  0.9094  0.3519
17298SOL    HW252967   0.478   4.852   7.114 -0.3514 -0.2608 -0.3184
17299SOL     OW52968   0.226   7.950   5.906  0.2082 -0.1869  0.3206
17299SOL    HW152969   0.217   7.855   5.912 -2.5395 -0.1295 -1.1960
17299SOL    HW252970   0.136   7.983   5.915  1.1062  2.3016  0.9947
17300SOL     OW52971   8.120   5.127   5.088  0.0776 -0.0476 -0.2259
17300SOL    HW152972   8.084   5.197   5.033 -0.8966  0.1090  0.5926
17300SOL    HW252973   8.086   5.046   5.049  1.4100 -0.1333 -1.3294
17301SOL     OW52974   4.723   5.385   5.140 -0.0395  0.2334 -0.0278
17301SOL    HW152975   4.716   5.293   5.113  2.4822 -0.0876  0.2262
17301SOL    HW252976   4.654   5.395   5.206 -0.0908 -1.6050  0.2545
17302SOL     OW52977   4.957   6.135   0.217  0.4642 -0.2506 -0.2742
17302SOL    HW152978   4.892   6.134   0.147  0.1426 -0.8821  0.0159
17302SOL    HW252979   4.941   6.217   0.263 -0.6202 -0.7051  0.2172
17303SOL     OW52980   7.207   5.058   6.806 -0.0154  0.1069 -0.1415
17303SOL    HW152981   7.227   5.110   6.728 -1.0194 -0.0699 -0.5329
17303SOL    HW252982   7.170   5.121   6.868 -3.1280 -0.3817 -1.3352
17304SOL     OW52983   4.640   3.853   0.351 -0.1903 -0.5294  0.0398
17304SOL    HW152984   4.567   3.812   0.304  0.3205 -0.0095 -1.2625
17304SOL    HW252985   4.613   3.853   0.443 -1.3793 -1.2721 -0.2881
17305SOL     OW52986   7.473   7.872   2.723  0.4013  0.0090  0.1187
17305SOL    HW152987   7.515   7.880   2.638 -0.4245  1.5559 -0.1773
17305SOL    HW252988   7.545   7.877   2.786  0.8809  0.2560 -0.4424
17306SOL     OW52989   4.227   4.903   4.439  0.3350 -0.2339  0.5052
17306SOL    HW152990   4.210   4.813   4.413 -1.3999  0.2099 -0.0617
17306SOL    HW252991   4.265   4.943   4.361 -1.5791  0.2010 -0.2765
17307SOL     OW52992   5.740   3.708   1.120  0.7277 -0.1242 -0.5614
17307SOL    HW152993   5.695   3.694   1.036  1.5816  0.7123 -1.1892
17307SOL    HW252994   5.760   3.802   1.121  1.0975 -0.1997  0.3971
17308SOL     OW52995   4.431   3.760   1.223  0.4080  0.2017 -0.0190
17308SOL    HW152996   4.481   3.745   1.303  0.3187 -1.9922 -0.3179
17308SOL    HW252997   4.394   3.675   1.201 -1.6403  1.2913 -1.0476
17309SOL     OW52998   0.798   3.191   1.055 -0.4364 -0.3806 -0.0820
17309SOL    HW152999   0.744   3.254   1.103 -0.7202 -0.3035 -0.4939
17309SOL    HW253000   0.866   3.244   1.014  3.2339 -0.9197  4.5580
17310SOL     OW53001   2.252   6.804   0.053  0.2764  0.1023 -0.7492
17310SOL    HW153002   2.245   6.816  -0.042  2.6091 -0.1407 -1.0109
17310SOL    HW253003   2.232   6.711   0.067  2.1468 -0.4395 -1.3462
17311SOL     OW53004   8.128   5.511   5.046 -0.0824  0.0158 -0.4186
17311SOL    HW153005   8.070   5.492   4.972 -0.4297  1.0395 -0.4193
17311SOL    HW253006   8.069   5.515   5.122  0.1772 -0.3168 -0.1994
17312SOL     OW53007   7.892   7.173   1.888 -0.0141  0.1147 -0.3549
17312SOL    HW153008   7.967   7.131   1.847 -0.0128 -2.3028  1.8919
17312SOL    HW253009   7.929   7.251   1.930  1.0100 -0.4401 -0.1996
17313SOL     OW53010   6.952   4.666   6.608  0.5012 -0.1928  0.3498
17313SOL    HW153011   6.993   4.686   6.524 -0.4317  1.9169  0.3201
17313SOL    HW253012   7.019   4.686   6.673  0.6203 -0.0425  0.1817
17314SOL     OW53013   7.420   3.906   5.529 -0.7751  0.3608  0.3473
17314SOL    HW153014   7.385   3.986   5.568 -0.9421  1.5924 -2.1555
17314SOL    HW253015   7.403   3.915   5.435  0.0089 -2.2249 -0.1367
17315SOL     OW53016   0.052   5.572   3.026 -0.1637 -0.0227  0.9006
17315SOL    HW153017  -0.003   5.650   3.039  1.3632  1.3529 -0.4147
17315SOL    HW253018   0.108   5.570   3.104 -0.3643  0.0423  1.0502
17316SOL     OW53019   2.844   2.955   4.510  0.5760  0.5921 -0.1608
17316SOL    HW153020   2.858   2.966   4.604  0.7161 -2.5488  0.2923
17316SOL    HW253021   2.927   2.981   4.470  1.2561 -0.0258  0.7984
17317SOL     OW53022   3.923   3.097   8.103 -0.1845  0.5774 -0.0545
17317SOL    HW153023   3.900   3.018   8.054 -1.1684  0.0264  1.2413
17317SOL    HW253024   3.976   3.065   8.176  3.9117  1.6706 -2.2384
17318SOL     OW53025   0.336   8.108   5.713  0.2547  0.6903 -0.1083
17318SOL    HW153026   0.348   8.194   5.752 -0.8421  0.5981  0.4491
17318SOL    HW253027   0.314   8.051   5.786 -1.1329  0.3739 -0.7315
17319SOL     OW53028   0.062   0.859   1.785 -0.1295 -0.3756  0.0172
17319SOL    HW153029   0.142   0.909   1.769 -1.8405  2.2149 -1.0597
17319SOL    HW253030   0.014   0.864   1.702 -2.6477  0.5738  1.4346
17320SOL     OW53031   6.904   0.889   6.653 -0.6154  0.2123  0.1783
17320SOL    HW153032   6.906   0.845   6.568 -1.6292  0.0887  0.2008
17320SOL    HW253033   6.988   0.868   6.693 -0.9291 -1.4525  0.0462
17321SOL     OW53034   0.701   0.292   1.189 -0.4772 -0.1822 -0.7054
17321SOL    HW153035   0.774   0.312   1.131  0.3637 -1.0103  0.0182
17321SOL    HW253036   0.743   0.262   1.270 -1.6058  1.0422  0.3740
17322SOL     OW53037   1.899   7.172   7.542  0.4838 -0.5399  0.4961
17322SOL    HW153038   1.833   7.229   7.503  2.3457 -0.1749 -2.4121
17322SOL    HW253039   1.921   7.214   7.625 -0.4470  1.2568 -0.1240
17323SOL     OW53040   7.772   6.104   4.859 -0.3331 -0.0513  0.0706
17323SOL    HW153041   7.857   6.061   4.868 -0.5195 -0.3963  0.1740
17323SOL    HW253042   7.793   6.198   4.861 -0.0423 -0.1240  1.0545
17324SOL     OW53043   7.619   5.137   2.465 -0.0029  0.1579  0.3389
17324SOL    HW153044   7.524   5.134   2.468 -0.0584 -1.6266 -1.1328
17324SOL    HW253045   7.647   5.121   2.555 -1.1148 -1.1288  0.4855
17325SOL     OW53046   6.825   4.107   2.801  0.5259  0.1064  0.3626
17325SOL    HW153047   6.916   4.112   2.828  0.5551 -0.6792  0.4271
17325SOL    HW253048   6.828   4.078   2.710  0.3569  0.5452  0.2166
17326SOL     OW53049   1.823   0.293   6.852 -0.1309  0.1909 -0.2544
17326SOL    HW153050   1.782   0.279   6.767  0.0416  0.0782 -0.3198
17326SOL    HW253051   1.917   0.286   6.835 -0.1305 -1.6859  0.2539
17327SOL     OW53052   0.308   3.706   7.862  0.3722  0.4121 -0.2007
17327SOL    HW153053   0.321   3.655   7.942 -1.0682  1.1878  0.5741
17327SOL    HW253054   0.385   3.761   7.856  1.6826 -1.3881 -0.7378
17328SOL     OW53055   0.661   4.930   6.283 -0.2787 -0.2342  0.0866
17328SOL    HW153056   0.642   5.011   6.332 -1.1690 -0.9769  0.9982
17328SOL    HW253057   0.719   4.881   6.341  1.3242  0.2798 -1.0127
17329SOL     OW53058   6.183   6.620   3.436 -0.3268  0.6214 -0.0053
17329SOL    HW153059   6.169   6.682   3.508  0.3994  1.8557 -0.8958
17329SOL    HW253060   6.262   6.574   3.460 -1.8198 -1.3123  1.5429
17330SOL     OW53061   3.955   3.851   2.313 -0.0279  0.1141  0.4702
17330SOL    HW153062   4.008   3.869   2.237 -0.3291  0.6947  0.3933
17330SOL    HW253063   4.011   3.873   2.388  1.0383 -2.4465  0.5185
17331SOL     OW53064   3.747   7.082   1.608  0.5315  0.0668 -0.3880
17331SOL    HW153065   3.828   7.052   1.649 -0.0205  0.3697  0.9828
17331SOL    HW253066   3.709   7.003   1.569  1.0090 -0.2540 -0.2174
17332SOL     OW53067   4.454   3.777   8.110  0.4360 -0.3931  0.2129
17332SOL    HW153068   4.383   3.793   8.048 -0.5353  0.4133  1.4661
17332SOL    HW253069   4.511   3.713   8.066 -0.6839 -0.5288 -1.1123
17333SOL     OW53070   6.987   7.001   2.342 -0.5933 -0.6377 -0.5515
17333SOL    HW153071   6.983   7.083   2.292 -2.2961 -0.8901 -0.8909
17333SOL    HW253072   6.930   7.018   2.418 -0.7728 -1.4169 -0.5094
17334SOL     OW53073   5.593   6.027   0.328  0.1172  0.2383  0.4743
17334SOL    HW153074   5.608   6.069   0.243  0.2084 -1.6459 -0.5135
17334SOL    HW253075   5.498   6.020   0.335  0.1288 -0.5664 -0.0117
17335SOL     OW53076   2.886   5.757   0.355  0.5649  0.5151  0.0359
17335SOL    HW153077   2.922   5.728   0.439  4.3969  1.5553 -1.0435
17335SOL    HW253078   2.885   5.677   0.302 -0.4585  0.1411  0.5925
17336SOL     OW53079   6.569   0.958   7.191  0.5908  0.2484 -0.2116
17336SOL    HW153080   6.532   0.871   7.177  0.8193  0.2631 -0.9625
17336SOL    HW253081   6.564   1.000   7.105  0.3737  1.0222  0.1660
17337SOL     OW53082   2.242   5.032   0.790  0.0551  0.0078  0.1590
17337SOL    HW153083   2.300   5.069   0.723  0.9163  1.0043  1.3971
17337SOL    HW253084   2.249   4.937   0.778  3.6066 -0.0607  1.4730
17338SOL     OW53085   1.312   6.339   7.433  0.3768 -0.1740 -0.6342
17338SOL    HW153086   1.348   6.400   7.369  2.0301  0.2271  0.6115
17338SOL    HW253087   1.218   6.359   7.436 -0.2277 -1.6853 -4.4770
17339SOL     OW53088   4.077   2.556   6.829  0.1335  0.6852 -0.3709
17339SOL    HW153089   4.048   2.552   6.738 -0.8685  0.7197 -0.0610
17339SOL    HW253090   4.163   2.599   6.825  0.4286  0.0300 -1.3629
17340SOL     OW53091   6.843   6.733   6.513  0.3161 -0.0656 -0.7601
17340SOL    HW153092   6.883   6.810   6.473  0.5578  0.0824 -0.2314
17340SOL    HW253093   6.749   6.749   6.509  0.4036  1.0405  0.8916
17341SOL     OW53094   6.421   3.605   2.862 -0.8784 -0.5402 -0.2300
17341SOL    HW153095   6.406   3.676   2.925 -1.2924 -1.4707  0.7409
17341SOL    HW253096   6.503   3.629   2.819  0.4412 -0.8212  2.0074
17342SOL     OW53097   6.807   3.401   0.736 -0.4701  0.1659 -0.1335
17342SOL    HW153098   6.755   3.397   0.817 -1.2419  0.9117 -0.5695
17342SOL    HW253099   6.754   3.455   0.677 -2.8752 -4.9140 -3.2512
17343SOL     OW53100   2.753   4.110   2.349  0.3265  0.0872 -0.7037
17343SOL    HW153101   2.727   4.060   2.425 -2.2426  0.8328 -1.0073
17343SOL    HW253102   2.845   4.133   2.365  0.3231 -1.1402  1.3431
17344SOL     OW53103   7.236   8.016   1.668  0.1906  0.0212  0.0735
17344SOL    HW153104   7.303   7.982   1.609 -0.6455 -0.3196 -0.7006
17344SOL    HW253105   7.234   7.953   1.740  0.6682  0.0175  0.0899
17345SOL     OW53106   2.558   7.087   0.099 -0.2512 -0.3133 -0.0678
17345SOL    HW153107   2.549   7.177   0.068 -1.4410 -0.5276 -0.3858
17345SOL    HW253108   2.581   7.096   0.192  1.3646  0.3063 -0.4829
17346SOL     OW53109   1.315   6.143   0.200  0.3415 -0.1024 -0.1854
17346SOL    HW153110   1.260   6.065   0.189  1.9565 -1.0936 -1.8820
17346SOL    HW253111   1.282   6.205   0.135  0.9560 -0.5615 -0.9557
17347SOL     OW53112   5.097   1.206   3.323 -0.0225  0.1990  0.2849
17347SOL    HW153113   5.012   1.248   3.335  0.5914  1.9127 -0.9064
17347SOL    HW253114   5.090   1.165   3.237  0.2507  0.0893  0.3159
17348SOL     OW53115   1.139   7.411   1.037 -0.1849 -0.5109 -0.2272
17348SOL    HW153116   1.097   7.326   1.024 -0.1218 -0.5813  0.0318
17348SOL    HW253117   1.067   7.474   1.033 -0.0406 -0.4092 -2.1389
17349SOL     OW53118   1.106   4.427   5.613 -0.2023  0.4162 -0.9876
17349SOL    HW153119   1.044   4.357   5.633 -1.0021  1.5296  0.7102
17349SOL    HW253120   1.190   4.396   5.646  0.5277 -1.5806 -4.2991
17350SOL     OW53121   4.902   6.198   4.447  0.3993  0.1749 -0.2700
17350SOL    HW153122   4.901   6.104   4.431  0.3794  0.0491  0.4703
17350SOL    HW253123   4.810   6.225   4.437  0.5138  0.2544 -1.2355
17351SOL     OW53124   0.175   1.100   1.226  0.0550 -0.1309  0.1177
17351SOL    HW153125   0.146   1.151   1.151 -0.6181 -0.1605  0.3550
17351SOL    HW253126   0.189   1.165   1.295  1.8362  0.0529 -0.3491
17352SOL     OW53127   7.001   1.490   6.218 -0.0071 -0.0409 -0.1394
17352SOL    HW153128   7.055   1.420   6.255  0.7227  0.3170 -0.5321
17352SOL    HW253129   6.970   1.455   6.134  0.0593 -0.0260 -0.1692
17353SOL     OW53130   4.743   7.514   4.376  0.2062 -0.3782 -0.0882
17353SOL    HW153131   4.765   7.466   4.455  0.5219 -0.3374 -0.1500
17353SOL    HW253132   4.773   7.458   4.304 -1.5082 -1.1644 -0.2471
17354SOL     OW53133   6.306   7.899   0.724  0.2135  0.0267  0.1586
17354SOL    HW153134   6.349   7.984   0.717  0.0530  0.0307 -1.2142
17354SOL    HW253135   6.218   7.914   0.689 -0.0410 -0.5426  0.5444
17355SOL     OW53136   0.066   1.880   4.125 -0.5295 -0.6903 -0.7805
17355SOL    HW153137  -0.018   1.925   4.115 -0.4768 -0.7993 -1.8973
17355SOL    HW253138   0.044   1.787   4.118 -0.4947 -0.8050  0.4222
17356SOL     OW53139   4.812   4.104   6.877  0.1530 -0.7392 -0.2137
17356SOL    HW153140   4.741   4.087   6.938  0.1057 -0.7854 -0.2806
17356SOL    HW253141   4.802   4.036   6.810  0.9218 -1.4367  0.3565
17357SOL     OW53142   6.525   0.890   6.587  0.4552 -0.3368 -0.1082
17357SOL    HW153143   6.594   0.951   6.560  2.2228 -0.9999  2.5153
17357SOL    HW253144   6.562   0.844   6.662 -1.4673 -3.4489 -0.8956
17358SOL     OW53145   2.019   2.258   2.115 -0.1046 -0.5546  0.3557
17358SOL    HW153146   1.993   2.173   2.150 -1.2476 -0.2323  0.3357
17358SOL    HW253147   2.024   2.315   2.192  0.2013 -0.5257  0.3160
17359SOL     OW53148   6.344   1.703   3.737 -0.5140 -0.0692 -0.0065
17359SOL    HW153149   6.325   1.753   3.658  1.1826 -0.1354 -0.4968
17359SOL    HW253150   6.298   1.750   3.807  0.4317  1.7575 -0.5601
17360SOL     OW53151   2.833   7.219   4.143  0.1176  0.4487 -0.2568
17360SOL    HW153152   2.877   7.158   4.203  0.0782  1.1233  0.4641
17360SOL    HW253153   2.904   7.270   4.105  0.0498  0.8249  0.1154
17361SOL     OW53154   1.967   4.721   2.186 -0.4815  0.7323  0.2479
17361SOL    HW153155   2.035   4.699   2.123 -0.5795 -4.1374  1.4804
17361SOL    HW253156   1.885   4.710   2.138 -0.4980 -1.0753  0.6175
17362SOL     OW53157   7.970   5.695   6.369 -0.2913 -0.3310 -0.8558
17362SOL    HW153158   7.927   5.619   6.329 -1.3195  0.5944 -1.5611
17362SOL    HW253159   8.039   5.719   6.306  0.5018 -1.0921 -0.2942
17363SOL     OW53160   7.707   7.543   4.028 -0.0605  0.0165  0.2824
17363SOL    HW153161   7.779   7.517   3.969  2.0020  0.7825  2.3423
17363SOL    HW253162   7.749   7.557   4.112 -2.4166  2.0863  1.2092
17364SOL     OW53163   2.681   0.077   5.384 -0.2814  0.4071 -0.1449
17364SOL    HW153164   2.727   0.141   5.438 -1.4647  0.4742  0.8186
17364SOL    HW253165   2.668   0.001   5.442 -2.3580  0.8170  0.0111
17365SOL     OW53166   0.244   2.592   6.915 -1.1805  0.0148 -0.2698
17365SOL    HW153167   0.177   2.651   6.880 -1.9879  0.1321  1.3455
17365SOL    HW253168   0.196   2.512   6.938 -0.2624 -0.9561 -1.5846
17366SOL     OW53169   0.602   7.324   1.791  0.0124  0.3245  0.0184
17366SOL    HW153170   0.570   7.380   1.861  0.6241 -0.4061  0.8992
17366SOL    HW253171   0.673   7.274   1.831 -0.4483 -1.0032 -0.7775
17367SOL     OW53172   1.664   3.452   0.969  0.1191  0.5319 -0.4661
17367SOL    HW153173   1.620   3.373   1.001  0.3202  0.1631 -1.0840
17367SOL    HW253174   1.606   3.524   0.995 -0.4214  0.1223 -0.5266
17368SOL     OW53175   7.296   6.955   7.131 -0.0886 -0.3623  0.1878
17368SOL    HW153176   7.334   6.887   7.075 -1.2686 -1.1321  0.3001
17368SOL    HW253177   7.289   7.031   7.075  2.7034  0.2186  0.4604
17369SOL     OW53178   1.763   3.641   3.959 -0.1119  0.8284 -0.3082
17369SOL    HW153179   1.696   3.577   3.986  0.8624  0.5325  1.5874
17369SOL    HW253180   1.729   3.725   3.990  0.2042  0.7257  0.3391
17370SOL     OW53181   2.511   0.030   2.769 -0.3318  0.2881 -0.3023
17370SOL    HW153182   2.470  -0.052   2.800  1.8661 -1.2475 -1.2087
17370SOL    HW253183   2.600   0.026   2.802 -0.1491  2.3541 -0.4217
17371SOL     OW53184   5.143   2.276   1.176  0.1267  0.2753 -0.2308
17371SOL    HW153185   5.064   2.253   1.224  2.2755  0.6568  4.0557
17371SOL    HW253186   5.130   2.367   1.149 -0.1935  1.1590  2.5238
17372SOL     OW53187   3.672   2.997   1.886 -0.0821 -0.0361  0.1401
17372SOL    HW153188   3.607   3.024   1.822  0.2465 -1.3311 -0.7843
17372SOL    HW253189   3.655   2.904   1.900  2.4700 -0.8346 -1.2962
17373SOL     OW53190   3.565   5.138   2.326  0.2375 -0.4076  0.6645
17373SOL    HW153191   3.560   5.043   2.336 -3.2727 -0.2817  1.2617
17373SOL    HW253192   3.594   5.170   2.411 -0.8542 -0.8694  1.2257
17374SOL     OW53193   2.519   3.820   6.823 -0.2107  0.2683  0.0206
17374SOL    HW153194   2.543   3.763   6.896  1.6899 -0.6514 -1.2573
17374SOL    HW253195   2.598   3.827   6.770 -1.4268  1.1774 -1.7913
17375SOL     OW53196   0.843   1.250   5.273  0.3379 -0.0352 -0.3092
17375SOL    HW153197   0.796   1.182   5.226 -2.6435  2.3425 -1.0954
17375SOL    HW253198   0.840   1.326   5.215  0.7668  1.6743  1.7505
17376SOL     OW53199   4.971   2.595   2.177 -0.1550  0.3569 -0.1480
17376SOL    HW153200   5.005   2.677   2.141  1.2963  0.3001  1.0166
17376SOL    HW253201   5.044   2.559   2.228 -1.1832 -1.0298  0.4004
17377SOL     OW53202   0.837   1.640   2.100 -0.3895  0.5667 -0.2286
17377SOL    HW153203   0.840   1.563   2.043 -0.4376 -0.1669  0.7090
17377SOL    HW253204   0.886   1.707   2.054  2.0091 -0.8485  0.0913
17378SOL     OW53205   0.968   5.536   5.660 -0.0228 -0.5108 -0.2661
17378SOL    HW153206   0.988   5.581   5.578 -1.0302  1.0611  0.3080
17378SOL    HW253207   0.968   5.443   5.637 -0.0803 -0.1190 -1.9860
17379SOL     OW53208   5.870   1.009   1.193  0.0980 -0.3297  0.5884
17379SOL    HW153209   5.793   1.063   1.178  1.0257  0.7793 -0.4605
17379SOL    HW253210   5.883   1.010   1.288 -0.0179  1.1595  0.6071
17380SOL     OW53211   4.953   1.418   3.686  0.1909  0.0585 -0.4904
17380SOL    HW153212   4.927   1.342   3.635  0.1213  0.7354 -1.5050
17380SOL    HW253213   4.882   1.431   3.750  0.8776 -1.5391  0.6445
17381SOL     OW53214   1.897   4.729   4.316 -0.6966 -0.0860 -0.1953
17381SOL    HW153215   1.828   4.751   4.378 -1.0475 -0.1901 -0.5454
17381SOL    HW253216   1.977   4.728   4.368 -1.1937 -1.8848  0.6268
17382SOL     OW53217   3.168   2.961   3.834 -0.0919  0.6727  0.2942
17382SOL    HW153218   3.085   3.003   3.856 -0.6433 -0.8801  1.4063
17382SOL    HW253219   3.163   2.875   3.877  2.5692  0.9664  1.4092
17383SOL     OW53220   0.777   4.027   2.965  0.0633 -0.1447  0.0578
17383SOL    HW153221   0.712   4.067   3.024  0.9364  0.3340  0.7159
17383SOL    HW253222   0.769   4.077   2.884 -0.1789  0.1172  0.2392
17384SOL     OW53223   2.861   3.596   4.825  0.1208  0.1445 -0.1535
17384SOL    HW153224   2.867   3.639   4.910  2.1623  2.0709 -1.1831
17384SOL    HW253225   2.822   3.510   4.844  0.7280  0.4276  2.7288
17385SOL     OW53226   7.327   0.339   6.053 -0.2770  0.5510  0.1164
17385SOL    HW153227   7.397   0.373   5.996 -1.3302  1.4247 -0.6884
17385SOL    HW253228   7.275   0.416   6.075 -1.6245 -0.2422 -0.2050
17386SOL     OW53229   4.852   4.393   5.415 -0.4634 -0.0076 -0.3819
17386SOL    HW153230   4.785   4.358   5.357 -2.3749  2.0989  0.3808
17386SOL    HW253231   4.822   4.482   5.435  1.2922  0.1526  2.0028
17387SOL     OW53232   6.012   1.197   6.462 -0.0739 -0.2277 -0.1010
17387SOL    HW153233   6.098   1.223   6.428  0.1855  0.2837  0.9252
17387SOL    HW253234   5.950   1.253   6.415  0.4855  2.4854  2.1653
17388SOL     OW53235   3.027   0.545   4.959 -0.0975 -0.0538  0.2553
17388SOL    HW153236   2.974   0.502   4.892 -0.8899  1.5085 -0.1607
17388SOL    HW253237   3.112   0.559   4.917 -0.3538  0.2428 -0.1729
17389SOL     OW53238   5.990   2.758   2.174 -0.6967 -0.3135 -0.1961
17389SOL    HW153239   6.077   2.745   2.137 -0.5953  0.8001 -0.3723
17389SOL    HW253240   5.943   2.676   2.154 -0.2745 -0.2099 -1.7319
17390SOL     OW53241   7.896   4.725   6.904  0.6990 -0.1240  0.0618
17390SOL    HW153242   7.922   4.641   6.865  1.0308 -0.1892  0.4196
17390SOL    HW253243   7.818   4.704   6.954  0.0542  0.0329 -0.8555
17391SOL     OW53244   7.899   1.638   0.682 -0.6110 -0.0190 -0.3445
17391SOL    HW153245   7.822   1.694   0.674 -0.2319  0.8643  1.5774
17391SOL    HW253246   7.954   1.662   0.607 -1.1463  1.0771 -0.4052
17392SOL     OW53247   0.882   4.988   1.708  0.0258  0.6542  0.7646
17392SOL    HW153248   0.881   4.976   1.803 -0.3760 -2.7076  0.4727
17392SOL    HW253249   0.956   4.935   1.678 -2.2725 -1.9177 -0.9874
17393SOL     OW53250   8.048   0.708   1.231 -0.4684  0.1361  0.5912
17393SOL    HW153251   7.978   0.767   1.205  0.1732  0.6778  0.0469
17393SOL    HW253252   8.110   0.763   1.280 -0.2161 -0.2379  0.7011
17394SOL     OW53253   2.273   3.244   0.346  0.4534 -0.4092  0.1796
17394SOL    HW153254   2.219   3.314   0.381  1.4706  0.1414  0.7066
17394SOL    HW253255   2.348   3.240   0.405  0.8288 -1.3681 -0.3353
17395SOL     OW53256   1.012   1.057   1.341 -0.2442  0.1727 -0.0406
17395SOL    HW153257   0.957   1.067   1.419  0.0825 -1.3035  0.4255
17395SOL    HW253258   1.001   1.138   1.292 -0.0614  1.3724  1.8027
17396SOL     OW53259   7.450   4.273   2.358  0.6017 -0.4043  0.5872
17396SOL    HW153260   7.528   4.311   2.317  1.0849 -0.9548  0.9833
17396SOL    HW253261   7.421   4.206   2.297 -1.2425  1.6708 -0.9357
17397SOL     OW53262   5.120   2.641   5.437 -0.3128  0.3684  0.0351
17397SOL    HW153263   5.191   2.622   5.374  0.6360  0.0420  1.1666
17397SOL    HW253264   5.058   2.694   5.387  0.5603  0.3795 -1.0983
17398SOL     OW53265   1.100   3.032   2.106  0.3161 -0.6074  0.2777
17398SOL    HW153266   1.048   3.081   2.169  1.4524  0.5979  0.3313
17398SOL    HW253267   1.180   3.084   2.095  1.3940 -2.2465 -0.0093
17399SOL     OW53268   0.243   0.581   5.976  0.1055 -0.3219  0.0176
17399SOL    HW153269   0.166   0.629   6.008 -2.0835 -1.8712 -2.4693
17399SOL    HW253270   0.250   0.506   6.036 -1.4614 -1.0696 -0.6528
17400SOL     OW53271   5.443   6.300   5.917  0.6000  0.2987  0.3515
17400SOL    HW153272   5.425   6.267   5.829  0.8800  1.6193 -0.2263
17400SOL    HW253273   5.515   6.247   5.949  0.8300  0.1373 -0.4177
17401SOL     OW53274   4.636   1.613   6.001  0.0558 -0.8449 -0.2065
17401SOL    HW153275   4.549   1.622   6.038  0.2427 -2.5707  0.7257
17401SOL    HW253276   4.666   1.703   5.989 -2.1085 -0.1862 -1.2517
17402SOL     OW53277   3.073   5.306   0.436  0.2359 -0.5450 -0.5071
17402SOL    HW153278   3.163   5.277   0.422  0.3556 -0.3751 -0.0708
17402SOL    HW253279   3.029   5.284   0.353  0.8480  0.0481 -1.0039
17403SOL     OW53280   4.109   0.026   5.123  0.1123  0.0969  0.0749
17403SOL    HW153281   4.046   0.068   5.066  0.7330 -0.4694 -1.0625
17403SOL    HW253282   4.071  -0.060   5.141  0.2551 -0.0004 -0.0830
17404SOL     OW53283   4.215   0.381   6.256  0.2023 -0.4406 -0.3244
17404SOL    HW153284   4.184   0.449   6.197  0.0611 -0.1741  0.0472
17404SOL    HW253285   4.145   0.373   6.322  1.4537  1.1087  1.2912
17405SOL     OW53286   0.549   5.471   5.583  0.1732 -0.0832 -0.5294
17405SOL    HW153287   0.600   5.407   5.632 -0.5874  1.2679  2.2225
17405SOL    HW253288   0.482   5.419   5.538  0.1412 -1.3263  0.8718
17406SOL     OW53289   2.791   5.734   1.185  0.2174  0.6969  0.1954
17406SOL    HW153290   2.710   5.688   1.208  1.0489 -0.2562  1.3558
17406SOL    HW253291   2.787   5.816   1.235  0.7726 -0.1568  1.6831
17407SOL     OW53292   0.874   1.956   0.782  0.0252 -0.5685 -0.0274
17407SOL    HW153293   0.929   1.934   0.707 -0.5182 -2.3874  0.0595
17407SOL    HW253294   0.805   2.011   0.746  0.3689 -0.5346 -0.6468
17408SOL     OW53295   4.889   5.441   4.571  0.2376 -0.0586  0.7237
17408SOL    HW153296   4.814   5.501   4.575  0.5775  0.3338  1.2790
17408SOL    HW253297   4.866   5.370   4.632  0.2415 -0.0205  0.7699
17409SOL     OW53298   1.998   2.576   2.593  0.2846 -0.0684 -0.3005
17409SOL    HW153299   2.056   2.635   2.545  0.2005  0.5923  0.3907
17409SOL    HW253300   2.044   2.493   2.595  0.0471 -0.2789 -2.0040
17410SOL     OW53301   6.757   4.531   0.497 -0.2388  0.1221 -0.2745
17410SOL    HW153302   6.841   4.513   0.540 -0.9078 -0.3745  0.8568
17410SOL    HW253303   6.746   4.459   0.435 -0.2326 -0.2937  0.2006
17411SOL     OW53304   4.418   2.580   0.014 -0.1331  0.0903  0.2424
17411SOL    HW153305   4.360   2.656   0.009  1.8029  1.6191 -0.0798
17411SOL    HW253306   4.436   2.557  -0.077 -0.0355 -0.2170  0.3374
17412SOL     OW53307   7.548   5.044   0.877  0.3405 -0.4922 -0.8173
17412SOL    HW153308   7.474   5.105   0.880  0.9510  0.2677 -0.9288
17412SOL    HW253309   7.616   5.086   0.929  1.4474 -0.1454 -2.4579
17413SOL     OW53310   4.249   3.299   3.047  0.0015  0.2421 -0.3126
17413SOL    HW153311   4.229   3.207   3.061 -2.8742  0.9015  0.5735
17413SOL    HW253312   4.297   3.325   3.126 -0.6784 -0.1112  0.2235
17414SOL     OW53313   0.796   7.490   6.990 -0.2142 -0.2437 -0.1190
17414SOL    HW153314   0.828   7.422   7.049 -1.1040  0.0597  0.7527
17414SOL    HW253315   0.772   7.443   6.910 -0.5147 -0.9134  0.3531
17415SOL     OW53316   6.339   2.521   3.102 -0.5481 -0.1264  0.4398
17415SOL    HW153317   6.417   2.467   3.112 -0.8754 -0.8032 -0.4554
17415SOL    HW253318   6.309   2.504   3.012 -1.4385  0.4997  0.5968
17416SOL     OW53319   1.847   7.815   4.631 -0.0269  0.6490  0.4384
17416SOL    HW153320   1.841   7.896   4.580 -3.0678 -0.1498 -0.6464
17416SOL    HW253321   1.938   7.787   4.620  0.2377  2.1752 -1.9204
17417SOL     OW53322   3.521   1.087   0.638  0.5994 -0.1913 -0.0768
17417SOL    HW153323   3.521   1.072   0.543 -1.4052  0.7541 -0.2976
17417SOL    HW253324   3.613   1.097   0.661  1.3538 -2.8485 -1.4710
17418SOL     OW53325   3.137   7.938   4.389  0.0806  0.0628  0.1692
17418SOL    HW153326   3.045   7.953   4.414  0.4801  3.0380  0.1021
17418SOL    HW253327   3.188   7.992   4.449  1.9485 -2.2146  0.8048
17419SOL     OW53328   4.475   5.705   0.489 -0.2112 -0.2384  0.6640
17419SOL    HW153329   4.479   5.794   0.455  1.0818 -0.0492  1.2523
17419SOL    HW253330   4.388   5.674   0.465 -0.2962  0.8049 -0.4665
17420SOL     OW53331   7.640   4.864   0.685 -0.2923 -0.5409  0.0207
17420SOL    HW153332   7.609   4.940   0.734 -0.5693  0.6135 -1.8371
17420SOL    HW253333   7.576   4.853   0.614  0.6723 -1.4404 -0.7478
17421SOL     OW53334   7.140   1.187   5.578 -0.0672 -0.2107  0.1312
17421SOL    HW153335   7.222   1.233   5.596  0.6045 -0.4480 -2.0049
17421SOL    HW253336   7.073   1.255   5.581  0.6868  0.6453 -1.3555
17422SOL     OW53337   7.901   4.388   1.692 -0.1354 -0.0328 -0.1028
17422SOL    HW153338   7.932   4.300   1.672 -0.8703 -0.4303  0.4449
17422SOL    HW253339   7.898   4.433   1.607  0.4007 -0.4819 -0.3626
17423SOL     OW53340   2.845   7.150   6.877  0.1683  0.3722 -0.0515
17423SOL    HW153341   2.832   7.190   6.791 -0.5332 -0.7229 -0.4740
17423SOL    HW253342   2.801   7.210   6.938 -1.8997 -0.3030 -0.8021
17424SOL     OW53343   5.934   0.576   1.821 -0.4397  0.2498  0.4546
17424SOL    HW153344   5.922   0.601   1.913 -1.1354  1.8716 -0.0439
17424SOL    HW253345   5.846   0.553   1.791 -0.2948  0.2103  0.0590
17425SOL     OW53346   7.989   3.369   3.008  0.1570 -0.3003 -0.7362
17425SOL    HW153347   7.949   3.450   2.975 -0.1058 -0.9671 -2.1560
17425SOL    HW253348   7.972   3.370   3.102 -0.8427  0.7384 -0.9068
17426SOL     OW53349   2.636   3.619   2.794  1.2416 -0.9482 -0.0791
17426SOL    HW153350   2.704   3.655   2.736  1.6582 -0.4641  0.6897
17426SOL    HW253351   2.675   3.623   2.882  0.9355 -2.4156  0.1537
17427SOL     OW53352   5.036   2.874   2.538  0.0712 -0.2690 -0.4450
17427SOL    HW153353   4.966   2.809   2.532  2.0323 -2.4565 -1.0763
17427SOL    HW253354   5.056   2.897   2.447 -0.3667  1.0362 -0.2426
17428SOL     OW53355   7.369   7.198   1.875 -0.2753  0.8460  0.3749
17428SOL    HW153356   7.408   7.193   1.787 -3.2752  0.5765 -1.0748
17428SOL    HW253357   7.359   7.292   1.891 -1.3064  0.8835 -0.3904
17429SOL     OW53358   1.215   7.660   0.397 -0.1360 -0.2482 -0.2334
17429SOL    HW153359   1.249   7.659   0.308  0.9683 -0.4857  0.1719
17429SOL    HW253360   1.171   7.576   0.408 -0.7036 -0.0188 -0.7013
17430SOL     OW53361   2.293   3.513   0.994 -0.0789 -0.1262  0.4944
17430SOL    HW153362   2.287   3.456   0.917  0.7685 -0.7078  0.8474
17430SOL    HW253363   2.227   3.581   0.979 -0.0109 -0.3017 -0.6853
17431SOL     OW53364   3.560   0.190   2.621 -0.1928 -0.2038 -0.2348
17431SOL    HW153365   3.466   0.190   2.639 -0.2372  0.0769 -0.4555
17431SOL    HW253366   3.567   0.216   2.529  0.0756 -0.7047 -0.3638
17432SOL     OW53367   1.104   7.554   3.677 -0.1106 -0.5154 -0.1127
17432SOL    HW153368   1.124   7.632   3.729  1.2045 -0.8627 -0.0780
17432SOL    HW253369   1.016   7.571   3.643 -0.3877  0.3800  0.9881
17433SOL     OW53370   5.813   4.502   2.909  0.1367  0.5373 -0.2969
17433SOL    HW153371   5.739   4.522   2.967  0.5273  0.4982  0.2197
17433SOL    HW253372   5.841   4.587   2.876 -0.2317  0.5398 -0.6167
17434SOL     OW53373   1.274   4.763   2.421 -0.0226  0.4912  0.2073
17434SOL    HW153374   1.303   4.830   2.484  0.3352  0.5611 -0.0291
17434SOL    HW253375   1.179   4.761   2.431  0.0082  0.6804  0.5740
17435SOL     OW53376   1.733   0.276   4.270  0.2606 -0.2130 -0.8654
17435SOL    HW153377   1.768   0.320   4.348 -0.6199 -0.0073 -0.5775
17435SOL    HW253378   1.638   0.285   4.278  0.1626 -0.1218 -2.0164
17436SOL     OW53379   4.337   5.253   0.219 -0.0859  0.1259  0.4309
17436SOL    HW153380   4.311   5.327   0.165  1.0815 -1.9809 -3.4047
17436SOL    HW253381   4.427   5.274   0.247 -0.3096  0.7546  0.7119
17437SOL     OW53382   5.843   3.056   5.604  0.1180  0.2392  0.3173
17437SOL    HW153383   5.761   3.010   5.583  0.8513  0.1358 -2.7069
17437SOL    HW253384   5.820   3.149   5.599  0.0509  0.2115  0.1022
17438SOL     OW53385   6.640   6.548   4.187  0.1658  0.9484  0.2653
17438SOL    HW153386   6.628   6.466   4.235 -0.4225 -1.9475 -4.2791
17438SOL    HW253387   6.733   6.569   4.199  0.1972  0.0323  1.9697
17439SOL     OW53388   3.771   3.660   0.929  0.0896 -0.4390  0.1279
17439SOL    HW153389   3.759   3.584   0.986  0.5500  0.1655  1.0645
17439SOL    HW253390   3.709   3.724   0.963 -0.0811 -0.2852 -0.4657
17440SOL     OW53391   0.479   3.792   7.084  0.1952 -0.0800  0.2287
17440SOL    HW153392   0.514   3.715   7.040  0.0339  0.3740 -0.7166
17440SOL    HW253393   0.446   3.759   7.168 -1.3484 -1.3410 -0.8190
17441SOL     OW53394   6.178   3.440   3.471  0.2531  0.0906 -0.1552
17441SOL    HW153395   6.089   3.455   3.504 -0.2969  2.3811 -2.3385
17441SOL    HW253396   6.225   3.402   3.545 -3.1291 -3.8919  0.3433
17442SOL     OW53397   7.925   5.005   2.110 -0.3957 -0.2289  0.2486
17442SOL    HW153398   7.940   5.000   2.204  0.1629 -0.6363  0.1377
17442SOL    HW253399   7.839   5.046   2.102 -1.2185 -1.7423  0.9743
17443SOL     OW53400   7.157   7.334   0.599  0.3360 -0.1471  0.2727
17443SOL    HW153401   7.239   7.334   0.549  0.7390  1.2461  0.8810
17443SOL    HW253402   7.138   7.241   0.612  1.4802 -0.5113 -0.4298
17444SOL     OW53403   0.731   1.789   6.736  0.2566  0.1193  0.0355
17444SOL    HW153404   0.805   1.731   6.719  1.9884  2.1354  0.3011
17444SOL    HW253405   0.712   1.778   6.829 -1.3308 -2.0305 -0.4564
17445SOL     OW53406   2.539   5.099   0.689  0.1731  0.3794 -0.0066
17445SOL    HW153407   2.539   5.162   0.761  0.4748 -0.1371  0.4508
17445SOL    HW253408   2.622   5.052   0.698  0.5807  0.8232 -1.1499
17446SOL     OW53409   3.593   0.221   2.091  0.0791 -0.2837 -0.4289
17446SOL    HW153410   3.558   0.254   2.008 -1.2371  2.5193  1.1411
17446SOL    HW253411   3.687   0.237   2.085 -0.1737  1.1653 -0.8799
17447SOL     OW53412   5.803   2.971   4.951  0.5388  0.4277 -0.2335
17447SOL    HW153413   5.737   2.962   5.019 -0.1109  0.3994 -0.8465
17447SOL    HW253414   5.877   2.919   4.981  0.2749  0.4430  0.4577
17448SOL     OW53415   6.153   7.335   1.550  0.0473  0.1380 -0.2030
17448SOL    HW153416   6.193   7.254   1.519  1.5060  0.5787  0.4438
17448SOL    HW253417   6.114   7.374   1.471  0.8810 -0.3222 -0.8595
17449SOL     OW53418   4.448   3.232   0.344 -0.3670  0.4366  0.3212
17449SOL    HW153419   4.414   3.207   0.258 -0.0719 -1.0869  0.6171
17449SOL    HW253420   4.503   3.308   0.327  0.4973 -0.4472 -1.0086
17450SOL     OW53421   1.636   4.630   3.593 -0.2140  0.7128  0.1591
17450SOL    HW153422   1.579   4.554   3.601 -0.8854  0.9439 -1.8886
17450SOL    HW253423   1.667   4.646   3.682 -0.8265 -1.3432  0.7967
17451SOL     OW53424   1.173   6.937   3.080 -0.0884  0.3827 -0.6064
17451SOL    HW153425   1.152   6.849   3.048  2.2985 -1.1409  1.6144
17451SOL    HW253426   1.127   6.995   3.021 -2.2282 -2.3550 -1.8668
17452SOL     OW53427   4.336   1.212   3.800 -0.2550  0.0786 -0.0654
17452SOL    HW153428   4.378   1.242   3.881  1.1500  0.0635 -0.7687
17452SOL    HW253429   4.244   1.236   3.811  0.1684  1.3544  0.9381
17453SOL     OW53430   3.078   7.348   3.013 -0.5294  0.0826  0.1458
17453SOL    HW153431   3.099   7.277   2.952  1.2597 -0.2785  1.1107
17453SOL    HW253432   3.011   7.310   3.070 -0.9615 -0.1704 -0.5175
17454SOL     OW53433   5.883   4.089   0.442  0.3807  0.2122 -0.2884
17454SOL    HW153434   5.939   4.042   0.381 -0.8105 -1.9569  0.1791
17454SOL    HW253435   5.929   4.172   0.459  2.0662 -0.3310 -1.9447
17455SOL     OW53436   5.046   5.282   2.909  0.0473  0.0808  0.2212
17455SOL    HW153437   5.008   5.317   2.989 -0.4521 -0.9125  0.4373
17455SOL    HW253438   5.132   5.324   2.902 -1.0627  2.4324 -0.3212
17456SOL     OW53439   7.405   5.722   3.484 -0.0316  0.1341  0.1337
17456SOL    HW153440   7.481   5.769   3.449 -0.0922  0.2920  0.2117
17456SOL    HW253441   7.373   5.669   3.410  1.6702 -1.9206  0.7484
17457SOL     OW53442   7.587   0.086   6.725 -0.0927  0.3187  0.3810
17457SOL    HW153443   7.543   0.046   6.649 -0.2231 -3.0824  2.0644
17457SOL    HW253444   7.518   0.094   6.791  0.9295 -1.4724  1.7485
17458SOL     OW53445   6.203   1.613   5.270  0.0691 -0.0141  0.3175
17458SOL    HW153446   6.187   1.673   5.343 -0.9476 -0.8902  0.8371
17458SOL    HW253447   6.200   1.526   5.309 -1.4950 -0.5657 -0.9075
17459SOL     OW53448   2.485   1.374   0.333 -0.2575  0.6568  0.4111
17459SOL    HW153449   2.424   1.330   0.273  1.8663 -1.0190 -0.6487
17459SOL    HW253450   2.558   1.401   0.278  0.9220  0.7414  1.9541
17460SOL     OW53451   3.012   7.724   1.948  0.0288  0.1604 -0.0723
17460SOL    HW153452   2.963   7.656   1.902  0.9027 -0.9299  0.5672
17460SOL    HW253453   3.007   7.800   1.890 -1.3593 -0.2880 -0.5860
17461SOL     OW53454   4.600   3.463   0.280 -0.8294  0.9993  0.1045
17461SOL    HW153455   4.553   3.544   0.261 -1.3620  0.2099 -2.2706
17461SOL    HW253456   4.625   3.471   0.372 -0.6326  3.9365 -0.1255
17462SOL     OW53457   2.235   7.567   3.850  0.5504  0.0189 -0.2087
17462SOL    HW153458   2.252   7.496   3.912  0.1035  0.5907  0.5903
17462SOL    HW253459   2.268   7.534   3.767 -0.5831 -1.5496 -0.0897
17463SOL     OW53460   0.690   4.604   2.992  0.3197 -0.2099 -0.0874
17463SOL    HW153461   0.722   4.687   3.027  0.4238 -1.1454  2.2514
17463SOL    HW253462   0.599   4.622   2.969  0.4582  0.6562 -0.0070
17464SOL     OW53463   0.665   4.859   4.677  0.0018  0.3550 -0.6120
17464SOL    HW153464   0.645   4.842   4.769 -1.5595  0.2970 -0.9215
17464SOL    HW253465   0.698   4.948   4.675 -0.5969  0.5989 -0.0575
17465SOL     OW53466   8.106   3.447   0.038  0.3084  0.3970 -0.7340
17465SOL    HW153467   8.011   3.437   0.034  0.5923 -3.1278 -2.1747
17465SOL    HW253468   8.121   3.541   0.029 -3.0035  1.0391 -0.6722
17466SOL     OW53469   3.831   7.721   5.301  0.0214  0.3189  0.2838
17466SOL    HW153470   3.782   7.758   5.375 -2.7639  0.4778 -1.4725
17466SOL    HW253471   3.802   7.629   5.297 -1.0495  0.6793 -1.4006
17467SOL     OW53472   2.022   3.736   0.058 -0.5560  0.8105  0.3031
17467SOL    HW153473   1.969   3.730  -0.022 -1.7353  1.2129  1.0291
17467SOL    HW253474   2.019   3.829   0.081  0.4097  0.8240  0.4195
17468SOL     OW53475   2.350   4.301   6.494  0.1075  0.1427 -0.0418
17468SOL    HW153476   2.269   4.334   6.456  0.1069  0.0025 -0.1655
17468SOL    HW253477   2.333   4.297   6.588  0.3798  1.2509  0.0729
17469SOL     OW53478   7.705   5.635   3.260  0.2926  0.2831  0.6582
17469SOL    HW153479   7.681   5.544   3.242 -2.2933  1.0981 -0.5675
17469SOL    HW253480   7.680   5.650   3.351 -2.4422  0.5809 -0.0619
17470SOL     OW53481   2.588   5.273   4.367 -0.0402 -0.0716 -0.1052
17470SOL    HW153482   2.496   5.298   4.372  0.2107  1.6193 -2.4701
17470SOL    HW253483   2.601   5.244   4.277  1.6789 -0.6171  0.2714
17471SOL     OW53484   1.563   0.561   3.663  0.1743 -0.7904 -0.3257
17471SOL    HW153485   1.546   0.474   3.700  1.3662 -1.5548 -1.5098
17471SOL    HW253486   1.476   0.594   3.640 -0.2665 -1.8706 -0.2891
17472SOL     OW53487   3.562   0.615   7.530  0.1035  0.4761  0.0514
17472SOL    HW153488   3.642   0.602   7.581  0.1395 -2.8480 -0.6098
17472SOL    HW253489   3.492   0.582   7.586 -0.5356  1.4106 -0.1782
17473SOL     OW53490   5.117   3.470   0.003  0.1217 -0.1949  0.2499
17473SOL    HW153491   5.105   3.495   0.094  2.9764  0.5919  0.5220
17473SOL    HW253492   5.171   3.391   0.007 -0.3867 -0.6142 -0.7668
17474SOL     OW53493   8.024   3.636   5.789  0.2454 -0.1896 -0.6615
17474SOL    HW153494   7.990   3.726   5.790  1.5275  0.3267  1.1070
17474SOL    HW253495   7.946   3.581   5.793 -0.5710  0.8173 -1.9134
17475SOL     OW53496   0.942   4.608   8.077  0.1578 -0.3002  0.0198
17475SOL    HW153497   1.006   4.548   8.038 -0.7948 -0.5569 -1.2193
17475SOL    HW253498   0.947   4.687   8.023  1.4880  0.8411  1.7096
17476SOL     OW53499   3.960   3.881   0.303 -0.0723 -0.1524 -0.0616
17476SOL    HW153500   3.961   3.969   0.342  1.7091 -0.3049  0.2980
17476SOL    HW253501   3.904   3.830   0.361 -1.4424  0.8071 -0.4803
17477SOL     OW53502   5.681   3.346   5.263 -0.4712 -0.1504 -0.4291
17477SOL    HW153503   5.776   3.331   5.264 -0.5669 -0.7575 -0.2617
17477SOL    HW253504   5.650   3.300   5.185 -0.9563 -2.0490  0.8428
17478SOL     OW53505   2.611   5.162   4.711 -0.4570 -0.7676 -0.7228
17478SOL    HW153506   2.528   5.135   4.671 -0.7648 -1.3378  0.2817
17478SOL    HW253507   2.590   5.178   4.803  0.5029 -0.7262 -0.4993
17479SOL     OW53508   3.990   4.677   8.090  0.1600  0.3118 -0.6363
17479SOL    HW153509   3.921   4.742   8.085  1.1241  1.2985 -1.6282
17479SOL    HW253510   4.040   4.688   8.009  1.2261 -0.6503 -0.1439
17480SOL     OW53511   7.992   6.646   2.953  0.4758  0.1053  0.0085
17480SOL    HW153512   7.924   6.670   3.015  1.3019  1.2693  0.4927
17480SOL    HW253513   7.945   6.606   2.880 -0.5344 -1.0222  1.2202
17481SOL     OW53514   1.884   6.897   8.122  0.9608  0.1145 -0.0539
17481SOL    HW153515   1.891   6.834   8.051  0.7261 -0.6478  0.5860
17481SOL    HW253516   1.914   6.850   8.199  2.4477  1.3334  0.1481
17482SOL     OW53517   6.258   3.566   0.611 -0.2476 -0.0909  0.2615
17482SOL    HW153518   6.194   3.606   0.552  0.9838 -0.2268 -1.2247
17482SOL    HW253519   6.343   3.579   0.568  0.3534 -3.4087  0.1225
17483SOL     OW53520   2.767   4.331   0.908  0.8636  0.4105  0.0347
17483SOL    HW153521   2.792   4.264   0.972 -0.1945  1.0255  1.1446
17483SOL    HW253522   2.755   4.411   0.961  3.2596  1.8402 -1.3845
17484SOL     OW53523   4.814   4.803   4.046 -0.0761  0.4696 -0.0064
17484SOL    HW153524   4.891   4.775   3.997  0.5857  0.1843  1.1769
17484SOL    HW253525   4.830   4.775   4.136 -1.5567  0.4222  0.2733
17485SOL     OW53526   0.649   0.833   2.036  0.0107  0.1833  0.5474
17485SOL    HW153527   0.687   0.750   2.009 -0.4853 -0.0509  0.5742
17485SOL    HW253528   0.625   0.877   1.954 -0.3593  0.0041  0.5595
17486SOL     OW53529   0.689   6.412   5.854  0.0887 -0.1314 -0.2904
17486SOL    HW153530   0.664   6.470   5.925  1.0141 -0.6600  0.4965
17486SOL    HW253531   0.662   6.325   5.884 -0.2932 -0.2558 -0.9742
17487SOL     OW53532   7.444   4.185   1.075  0.0867  0.2586 -0.0830
17487SOL    HW153533   7.460   4.094   1.103  0.9561  0.8246  1.4033
17487SOL    HW253534   7.482   4.190   0.987  0.2176 -0.7671 -0.1016
17488SOL     OW53535   1.248   1.489   1.555 -0.2210 -0.0079 -0.1160
17488SOL    HW153536   1.284   1.401   1.543 -0.6330 -0.9726  3.9979
17488SOL    HW253537   1.180   1.478   1.622 -2.6218  3.0098 -1.8142
17489SOL     OW53538   2.546   7.552   0.439  0.5932  0.5027 -0.1938
17489SOL    HW153539   2.567   7.638   0.475  0.2872  0.7713 -0.6440
17489SOL    HW253540   2.451   7.544   0.450  0.7057 -0.0520  0.4345
17490SOL     OW53541   0.706   5.388   2.812  0.4834 -0.6043 -0.3422
17490SOL    HW153542   0.785   5.361   2.766  0.8417 -0.2736  0.0702
17490SOL    HW253543   0.724   5.370   2.904  0.5872  0.6484 -0.0956
17491SOL     OW53544   5.268   3.544   0.374  0.0200  0.5050  0.0778
17491SOL    HW153545   5.303   3.618   0.324 -0.9066  1.5118  0.8591
17491SOL    HW253546   5.188   3.518   0.327  0.9944 -0.8403 -0.8922
17492SOL     OW53547   4.830   7.612   2.721 -0.0152  0.0342 -0.4643
17492SOL    HW153548   4.875   7.577   2.644 -1.0427 -0.4045 -0.8790
17492SOL    HW253549   4.856   7.704   2.724  0.7578 -0.1625 -0.7994
17493SOL     OW53550   7.460   3.905   0.903 -0.0117 -0.1512  0.3657
17493SOL    HW153551   7.383   3.849   0.897  0.4297 -0.6582 -0.6607
17493SOL    HW253552   7.471   3.920   0.997 -2.1584  1.0691  0.4775
17494SOL     OW53553   6.271   8.120   2.716 -0.1664 -0.1208  0.2040
17494SOL    HW153554   6.331   8.179   2.671  0.6503 -0.1783  1.1888
17494SOL    HW253555   6.294   8.128   2.809 -1.1058 -0.7924  0.5089
17495SOL     OW53556   2.666   4.640   7.838 -0.4424  0.0193  0.1246
17495SOL    HW153557   2.686   4.566   7.782 -1.3004 -0.7249  0.7785
17495SOL    HW253558   2.612   4.604   7.908 -1.7478  1.4276 -0.1012
17496SOL     OW53559   2.911   4.594   1.447 -0.0043  0.0431 -0.3909
17496SOL    HW153560   2.865   4.677   1.450  0.7900  0.4825  0.0717
17496SOL    HW253561   3.002   4.618   1.428  0.6438 -0.5272  1.7264
17497SOL     OW53562   4.191   4.454   4.102  0.3151 -0.5594  0.5809
17497SOL    HW153563   4.261   4.396   4.072  0.8384 -0.1466  0.9848
17497SOL    HW253564   4.162   4.499   4.023 -1.5924 -2.8710 -0.1836
17498SOL     OW53565   2.636   5.759   0.116 -0.2617  0.5825 -0.2255
17498SOL    HW153566   2.688   5.838   0.102  2.0985 -1.0108 -0.9893
17498SOL    HW253567   2.598   5.771   0.203  0.7901  2.1394  0.0604
17499SOL     OW53568   5.437   3.456   2.778 -0.6577 -0.6070 -0.5324
17499SOL    HW153569   5.343   3.448   2.765 -0.9466 -1.7158  1.7412
17499SOL    HW253570   5.451   3.550   2.790 -1.4022 -0.3964 -1.2479
17500SOL     OW53571   5.891   1.516   7.644  0.1210  0.3873  0.0573
17500SOL    HW153572   5.959   1.508   7.710 -0.7694  0.0653  0.9572
17500SOL    HW253573   5.870   1.426   7.620  1.5388  0.4991 -1.8749
17501SOL     OW53574   1.103   0.235   0.140 -0.0734  0.3901  0.1484
17501SOL    HW153575   1.098   0.247   0.046 -1.1138  0.6953  0.2305
17501SOL    HW253576   1.174   0.172   0.153 -0.0646  0.1903 -0.8447
17502SOL     OW53577   0.878   6.510   7.587 -0.3777  0.0503  0.2915
17502SOL    HW153578   0.799   6.563   7.597  0.3356  1.1341  0.3486
17502SOL    HW253579   0.855   6.425   7.623 -1.9955 -0.1356 -1.0543
17503SOL     OW53580   2.370   5.230   5.596  0.1568 -0.6216 -0.2266
17503SOL    HW153581   2.466   5.231   5.601  0.2066  0.2581 -1.0575
17503SOL    HW253582   2.345   5.321   5.612 -0.5942 -0.9559  0.6155
17504SOL     OW53583   5.017   3.282   0.298 -0.3425 -0.5883 -0.9258
17504SOL    HW153584   4.928   3.285   0.263 -0.9510 -0.4785  0.5507
17504SOL    HW253585   5.029   3.367   0.341  0.3924 -0.6977 -0.9038
17505SOL     OW53586   1.343   8.043   4.282 -0.0959 -0.1316 -0.2449
17505SOL    HW153587   1.278   8.020   4.216  0.1965  1.0799 -0.9840
17505SOL    HW253588   1.427   8.031   4.238  0.1018  0.7063 -0.1146
17506SOL     OW53589   5.721   0.120   4.190 -0.0376 -0.0200  0.5856
17506SOL    HW153590   5.807   0.160   4.172  0.7854 -1.6990  0.5467
17506SOL    HW253591   5.719   0.043   4.132 -1.7838  0.2412  0.2535
17507SOL     OW53592   3.599   5.015   2.964  0.1130  0.1364 -0.6072
17507SOL    HW153593   3.675   4.965   2.993  0.5998  1.6994  0.9954
17507SOL    HW253594   3.636   5.096   2.928 -0.7812  1.1669  0.7113
17508SOL     OW53595   1.461   3.765   1.664 -0.4777  0.5941 -0.0219
17508SOL    HW153596   1.512   3.688   1.691  0.6957  1.0457 -0.8328
17508SOL    HW253597   1.438   3.748   1.573 -0.6246  0.9789 -0.0600
17509SOL     OW53598   4.582   4.269   3.899 -0.0438  0.2217  0.0060
17509SOL    HW153599   4.509   4.258   3.960  0.0366 -0.8354 -0.0744
17509SOL    HW253600   4.651   4.311   3.950 -0.6388  1.0994  0.1222
17510SOL     OW53601   0.722   6.122   5.623 -0.2379 -0.3467 -0.0826
17510SOL    HW153602   0.756   6.035   5.604 -0.5078 -0.7769  1.2901
17510SOL    HW253603   0.701   6.120   5.716 -1.1339  0.8901 -0.2269
17511SOL     OW53604   1.930   1.527   3.167 -0.1436  0.3252 -0.4663
17511SOL    HW153605   1.956   1.436   3.183 -3.0841 -0.5815 -0.1794
17511SOL    HW253606   1.974   1.550   3.085  1.2460 -1.0924 -0.1698
17512SOL     OW53607   7.933   1.797   3.496  0.4467  0.4103  0.5682
17512SOL    HW153608   7.890   1.815   3.412 -0.0077  0.8443  0.8912
17512SOL    HW253609   7.940   1.883   3.538  0.3750  0.1516  1.1165
17513SOL     OW53610   1.205   1.303   4.305 -0.2206  0.0527 -0.3511
17513SOL    HW153611   1.148   1.380   4.301  2.0803  1.8398 -0.4191
17513SOL    HW253612   1.191   1.267   4.393  0.7627  2.2760  0.7689
17514SOL     OW53613   2.541   4.383   2.140  0.5500 -0.1502 -0.1159
17514SOL    HW153614   2.614   4.344   2.093  0.6301 -0.3884  0.2013
17514SOL    HW253615   2.485   4.308   2.163  1.8826 -0.4322  2.5814
17515SOL     OW53616   6.316   5.963   2.121 -0.0269  0.2099  0.0453
17515SOL    HW153617   6.248   6.023   2.152  0.1636  0.3786  0.1396
17515SOL    HW253618   6.294   5.879   2.160 -0.9688 -0.0649 -1.0292
17516SOL     OW53619   1.716   6.371   5.584  0.7134 -0.2430  0.2339
17516SOL    HW153620   1.787   6.375   5.648 -0.1613  0.4324  1.1915
17516SOL    HW253621   1.754   6.408   5.504  1.4742  0.0082  0.7021
17517SOL     OW53622   2.291   2.960   7.279 -0.0993  0.1763 -0.0852
17517SOL    HW153623   2.211   3.012   7.282  0.5715  1.2878 -0.6904
17517SOL    HW253624   2.265   2.877   7.238 -0.9152  0.5666 -0.3662
17518SOL     OW53625   2.917   1.966   3.763 -0.5563 -0.1595  0.0157
17518SOL    HW153626   2.974   2.037   3.734 -1.3506 -0.1600 -1.6466
17518SOL    HW253627   2.877   1.933   3.683 -1.3396 -1.5025  0.9282
17519SOL     OW53628   5.214   2.386   6.702 -0.6244  0.5357  0.2511
17519SOL    HW153629   5.157   2.323   6.657 -1.0510 -1.3425  3.1259
17519SOL    HW253630   5.156   2.456   6.729 -0.1842  2.2514 -2.7900
17520SOL     OW53631   3.415   2.744   5.898 -0.7956  0.2993 -0.2369
17520SOL    HW153632   3.398   2.839   5.900  0.3739  0.5745 -1.4317
17520SOL    HW253633   3.508   2.737   5.879 -0.7827 -1.1141  0.2328
17521SOL     OW53634   6.801   2.752   3.763 -0.0142  0.1738  0.1711
17521SOL    HW153635   6.738   2.682   3.743  0.3405 -0.4812  1.2716
17521SOL    HW253636   6.816   2.744   3.857  0.7661  1.1273  0.1331
17522SOL     OW53637   7.732   6.865   0.136  0.1384 -0.3982  0.2757
17522SOL    HW153638   7.702   6.935   0.194 -1.3128 -1.3059  0.6547
17522SOL    HW253639   7.777   6.911   0.065  0.4085  0.8295  1.1944
17523SOL     OW53640   6.564   1.579   1.782 -0.3568  0.2869 -0.4168
17523SOL    HW153641   6.490   1.542   1.830  1.3871 -0.7104  1.6961
17523SOL    HW253642   6.633   1.513   1.789  2.2635  2.9765  1.8624
17524SOL     OW53643   2.574   0.798   0.884  0.0531  0.3098 -0.1924
17524SOL    HW153644   2.594   0.823   0.975  0.9133 -1.0702  0.0222
17524SOL    HW253645   2.648   0.833   0.834  0.1310  0.1349 -0.2010
17525SOL     OW53646   5.386   4.132   1.021  0.0379  0.4188  0.1403
17525SOL    HW153647   5.325   4.075   1.069  0.5011  0.0324  0.2887
17525SOL    HW253648   5.405   4.203   1.082 -1.4919  1.4227 -0.4910
17526SOL     OW53649   7.413   6.423   7.682  0.2870  0.0740 -0.0621
17526SOL    HW153650   7.434   6.462   7.597 -1.6497  1.2732 -0.0477
17526SOL    HW253651   7.449   6.484   7.746  0.4842 -0.0842 -0.0209
17527SOL     OW53652   7.187   4.467   7.278 -0.2756  0.0645  0.1471
17527SOL    HW153653   7.258   4.499   7.334 -0.8411  0.3474  0.7160
17527SOL    HW253654   7.225   4.464   7.190  0.5499 -0.1449  0.4982
17528SOL     OW53655   1.311   2.715   1.999  0.3119  0.1880  0.3968
17528SOL    HW153656   1.303   2.647   2.067  0.9436 -1.2330 -0.8813
17528SOL    HW253657   1.396   2.756   2.016  1.2644 -1.3227 -0.4891
17529SOL     OW53658   3.354   7.038   6.513  0.6787 -0.0755 -0.3220
17529SOL    HW153659   3.349   7.097   6.588 -0.1482 -0.9289  0.3199
17529SOL    HW253660   3.416   6.970   6.540 -0.2036 -0.8063 -0.0843
17530SOL     OW53661   2.999   4.200   3.222 -0.3829 -0.4261  0.2328
17530SOL    HW153662   2.941   4.271   3.195  1.6197  0.9106 -0.8314
17530SOL    HW253663   2.947   4.148   3.282 -2.3610  1.2080  0.0425
17531SOL     OW53664   0.799   2.844   4.681  0.4908  0.1240 -0.1979
17531SOL    HW153665   0.763   2.830   4.594 -0.7599  0.3857  0.2470
17531SOL    HW253666   0.733   2.807   4.740  1.8645 -1.1685  0.6203
17532SOL     OW53667   7.934   0.330   4.458 -0.2515  0.4036  0.2172
17532SOL    HW153668   7.868   0.371   4.402  0.0376  1.0943  0.3715
17532SOL    HW253669   8.004   0.395   4.464  0.5047 -0.3607 -0.0413
17533SOL     OW53670   1.280   4.741   5.002  0.6167  0.2763  0.4874
17533SOL    HW153671   1.205   4.797   4.985  0.4474  0.6352  2.2008
17533SOL    HW253672   1.317   4.722   4.916 -0.0089  2.0642 -0.2002
17534SOL     OW53673   3.432   3.281   7.371  0.3356 -0.2061 -0.2730
17534SOL    HW153674   3.489   3.205   7.359  0.3759  0.0020 -1.5748
17534SOL    HW253675   3.492   3.351   7.397  0.3634 -0.4853  0.4509
17535SOL     OW53676   5.070   5.075   2.130 -0.3581 -0.1496  0.1967
17535SOL    HW153677   4.997   5.085   2.190 -0.7143  1.5286 -0.4506
17535SOL    HW253678   5.029   5.074   2.043  0.2362 -1.3132 -0.0835
17536SOL     OW53679   2.348   2.856   0.370  0.1455 -0.0431 -0.0715
17536SOL    HW153680   2.398   2.778   0.347 -0.3171 -0.4273  0.2185
17536SOL    HW253681   2.412   2.914   0.412  0.3300 -0.5756  0.3907
17537SOL     OW53682   3.451   2.496   4.636 -0.3406 -0.4398 -0.1582
17537SOL    HW153683   3.476   2.404   4.632  0.1251 -0.3079 -0.3861
17537SOL    HW253684   3.528   2.543   4.603 -1.5497 -0.1387 -2.8892
17538SOL     OW53685   1.135   6.028   2.677  0.1892 -0.7177  0.1963
17538SOL    HW153686   1.158   5.937   2.657 -0.8067 -0.7300 -1.0413
17538SOL    HW253687   1.108   6.026   2.769  1.9873 -1.2760  0.7632
17539SOL     OW53688   4.948   4.506   2.312 -0.6234 -0.2090  0.3159
17539SOL    HW153689   5.015   4.468   2.369 -1.4003  1.0559  2.1944
17539SOL    HW253690   4.994   4.571   2.259 -0.1409 -0.2946  0.6293
17540SOL     OW53691   5.255   2.078   3.668 -0.7756  0.3322  0.1150
17540SOL    HW153692   5.272   2.139   3.596  1.6344 -2.4283 -1.9177
17540SOL    HW253693   5.283   2.125   3.746 -1.0061  2.5208 -1.0372
17541SOL     OW53694   6.045   4.298   2.081  0.3686  0.3084 -0.1780
17541SOL    HW153695   6.095   4.268   2.005 -1.9428  1.5502 -2.3327
17541SOL    HW253696   6.009   4.219   2.119  0.3535 -0.2487 -1.3064
17542SOL     OW53697   6.499   2.919   1.157  0.0119 -0.2708 -0.2371
17542SOL    HW153698   6.414   2.928   1.199 -0.1940 -0.6030 -0.5822
17542SOL    HW253699   6.536   3.007   1.159 -0.3016 -0.1426 -0.0099
17543SOL     OW53700   6.718   3.094   4.601  0.4233  0.2849 -0.5400
17543SOL    HW153701   6.752   3.037   4.531  0.0695 -0.3690 -0.1908
17543SOL    HW253702   6.701   3.035   4.674 -1.1255  0.6252 -0.5811
17544SOL     OW53703   5.204   3.081   3.089  0.0814  0.0293  0.0522
17544SOL    HW153704   5.229   3.027   3.164  1.7337 -0.7903 -1.0273
17544SOL    HW253705   5.109   3.091   3.097 -0.4216 -3.3922  0.1240
17545SOL     OW53706   6.143   6.827   3.620 -0.3790  0.0712 -0.0400
17545SOL    HW153707   6.174   6.885   3.690 -2.4950  0.0329  1.0391
17545SOL    HW253708   6.071   6.876   3.580 -1.8191 -1.4965  0.4966
17546SOL     OW53709   1.662   5.602   3.181  0.0265 -0.2207 -0.0914
17546SOL    HW153710   1.737   5.662   3.186  1.3455 -1.7422 -0.6619
17546SOL    HW253711   1.654   5.582   3.088  1.2724 -2.8474  0.2776
17547SOL     OW53712   5.640   0.239   0.305 -0.7787  0.0532 -0.2357
17547SOL    HW153713   5.659   0.153   0.344 -0.0944 -0.1266 -0.9255
17547SOL    HW253714   5.580   0.220   0.234 -1.2897  0.2601  0.1375
17548SOL     OW53715   7.044   5.047   7.338  0.4719  0.0814 -0.3026
17548SOL    HW153716   6.979   5.017   7.275  1.0873  0.6684 -1.2325
17548SOL    HW253717   7.128   5.016   7.303  0.8039  0.2575  0.3186
17549SOL     OW53718   3.459   1.570   7.738 -0.0712 -0.2883  0.3789
17549SOL    HW153719   3.467   1.527   7.653 -1.5323  1.6092 -0.8130
17549SOL    HW253720   3.376   1.538   7.773  0.0321 -0.2909  0.6236
17550SOL     OW53721   6.067   3.353   4.962 -0.4444 -0.0012  0.1837
17550SOL    HW153722   6.059   3.305   4.879 -0.2668 -0.8272  0.6353
17550SOL    HW253723   6.015   3.302   5.024  0.7832 -0.3263  0.9708
17551SOL     OW53724   2.165   3.670   7.152  0.1389 -0.3863  0.0118
17551SOL    HW153725   2.129   3.581   7.145 -0.7097  0.0827 -2.7058
17551SOL    HW253726   2.097   3.720   7.196  1.2195 -1.2765  2.9647
17552SOL     OW53727   2.487   6.487   2.135 -0.1720  0.1437 -0.6101
17552SOL    HW153728   2.577   6.506   2.163 -0.1128 -0.4540 -0.3643
17552SOL    HW253729   2.481   6.521   2.046 -0.4815  2.4515  0.2275
17553SOL     OW53730   1.111   3.827   4.294 -0.1006 -0.4881 -0.8275
17553SOL    HW153731   1.112   3.731   4.297  1.3796 -0.5390 -1.9851
17553SOL    HW253732   1.030   3.849   4.249 -0.0524 -1.2366 -1.2979
17554SOL     OW53733   2.882   6.308   0.474  0.0904 -0.4037  0.4909
17554SOL    HW153734   2.803   6.355   0.447  0.3785 -0.1564  0.0562
17554SOL    HW253735   2.943   6.376   0.500  0.5049 -0.5248 -0.1260
17555SOL     OW53736   4.857   4.861   8.031  0.3930  0.5938 -0.3215
17555SOL    HW153737   4.820   4.909   7.957 -0.4590  0.0952 -0.2245
17555SOL    HW253738   4.924   4.920   8.065  0.0139  1.3189 -0.7866
17556SOL     OW53739   1.036   5.756   7.011  0.8430  0.3912  0.3025
17556SOL    HW153740   0.984   5.798   7.078  0.5882 -0.8790  0.9332
17556SOL    HW253741   1.123   5.794   7.020  1.1611 -0.6853  2.2670
17557SOL     OW53742   2.392   5.800   8.043  0.5708  0.3943  0.4677
17557SOL    HW153743   2.374   5.782   7.950  2.0647  1.5139 -0.0755
17557SOL    HW253744   2.422   5.715   8.077 -1.9913 -0.5782  0.5154
17558SOL     OW53745   6.766   5.089   7.810  0.4905 -0.5618 -0.1254
17558SOL    HW153746   6.672   5.070   7.818  0.5126 -0.5910  0.0515
17558SOL    HW253747   6.786   5.067   7.719  0.2754 -0.3360 -0.2292
17559SOL     OW53748   7.783   3.140   3.917 -0.0184  0.8072  0.3243
17559SOL    HW153749   7.798   3.172   3.828  0.6377  0.3333  0.2565
17559SOL    HW253750   7.689   3.125   3.922 -0.0128  0.5152 -0.3972
17560SOL     OW53751   6.875   6.447   0.091  0.2424  0.1011  0.2747
17560SOL    HW153752   6.817   6.398   0.150 -0.7357 -0.1129 -0.8242
17560SOL    HW253753   6.947   6.387   0.072  0.3040 -0.0085  0.8573
17561SOL     OW53754   6.117   6.259   6.201  0.0669 -0.4328  0.4492
17561SOL    HW153755   6.205   6.231   6.227  0.6500  1.3922  0.5499
17561SOL    HW253756   6.093   6.326   6.265 -0.1090  1.2994 -1.3402
17562SOL     OW53757   3.428   5.876   2.715 -0.6274 -0.1580 -0.3060
17562SOL    HW153758   3.511   5.844   2.750 -1.6900 -0.3268  2.2431
17562SOL    HW253759   3.451   5.957   2.670  1.2201 -1.3675 -1.7390
17563SOL     OW53760   2.408   6.505   3.059  0.1684 -0.2784 -0.5124
17563SOL    HW153761   2.363   6.578   3.017 -0.6425 -0.5282 -0.0851
17563SOL    HW253762   2.386   6.513   3.151  2.0313  0.3372 -0.0649
17564SOL     OW53763   6.707   0.986   4.496  0.1112  0.5766  0.2689
17564SOL    HW153764   6.766   0.930   4.445  0.4144 -1.4026  2.6323
17564SOL    HW253765   6.628   0.933   4.507 -1.1277  2.1591 -0.6091
17565SOL     OW53766   1.343   3.146   0.350  0.0804 -0.0021 -0.1010
17565SOL    HW153767   1.422   3.138   0.296 -1.6428 -0.6969 -2.6958
17565SOL    HW253768   1.356   3.227   0.399  1.9191  0.4807 -1.2871
17566SOL     OW53769   7.331   7.177   2.403  0.3390  0.0844  0.3885
17566SOL    HW153770   7.380   7.124   2.340 -0.4801  0.0645 -0.2470
17566SOL    HW253771   7.374   7.262   2.401 -0.4610  0.4773 -1.1735
17567SOL     OW53772   1.965   1.219   3.962 -0.1550  0.0557  0.3934
17567SOL    HW153773   2.006   1.300   3.989 -1.6143  0.2502  2.2325
17567SOL    HW253774   1.928   1.238   3.876 -0.8072  1.4798  0.9630
17568SOL     OW53775   0.846   7.023   2.441 -0.8756 -0.2520 -0.0426
17568SOL    HW153776   0.856   7.117   2.422  2.0843 -0.4970 -0.2310
17568SOL    HW253777   0.834   6.983   2.355  0.6199 -0.2359 -0.2984
17569SOL     OW53778   1.278   0.450   2.986 -0.1799  0.4915  0.1151
17569SOL    HW153779   1.261   0.510   2.914  1.3718  0.3544 -0.3990
17569SOL    HW253780   1.363   0.411   2.965  0.0154 -0.0002  1.7042
17570SOL     OW53781   2.406   2.495   6.505  0.6161 -0.0881  0.2220
17570SOL    HW153782   2.370   2.510   6.592 -1.0699  0.9574 -0.5908
17570SOL    HW253783   2.349   2.428   6.466 -0.4523  1.4325 -1.0082
17571SOL     OW53784   7.516   4.436   0.247  0.2556  0.2722 -0.7102
17571SOL    HW153785   7.567   4.459   0.325  0.3127  1.3344 -1.0461
17571SOL    HW253786   7.503   4.341   0.254 -0.9409  0.5338  1.3213
17572SOL     OW53787   7.093   7.875   2.660  0.1684  0.6277  0.9776
17572SOL    HW153788   7.002   7.885   2.634  0.7514  3.2986 -0.4286
17572SOL    HW253789   7.093   7.891   2.754 -0.7052  1.5196  0.8404
17573SOL     OW53790   1.163   7.458   6.746  0.1127  0.3961 -0.0634
17573SOL    HW153791   1.081   7.505   6.732  0.4142  1.0158  0.2272
17573SOL    HW253792   1.135   7.371   6.777 -0.4262  0.8524  0.7852
17574SOL     OW53793   7.885   0.080   3.858  0.1246  0.1749  0.5330
17574SOL    HW153794   7.899   0.172   3.879  0.3412 -0.0659  1.4635
17574SOL    HW253795   7.966   0.036   3.883  0.6209 -0.0627 -1.3353
17575SOL     OW53796   2.941   2.261   0.664  0.0596  0.1633  0.3065
17575SOL    HW153797   2.855   2.282   0.629  0.8619  3.3151 -0.0793
17575SOL    HW253798   2.932   2.270   0.759 -0.3148 -0.8655  0.3820
17576SOL     OW53799   6.599   7.013   1.809 -0.0496 -0.6198  0.3127
17576SOL    HW153800   6.686   6.991   1.775  1.5661  2.0519  2.3050
17576SOL    HW253801   6.578   7.097   1.769 -2.2913 -1.6491 -0.8997
17577SOL     OW53802   5.272   1.436   7.044 -0.4136  0.5929 -0.4004
17577SOL    HW153803   5.365   1.423   7.061  0.0592 -0.8291 -3.3964
17577SOL    HW253804   5.269   1.495   6.968 -2.0741  2.1855  0.7938
17578SOL     OW53805   7.676   4.775   2.164 -0.6251 -0.2233  0.4404
17578SOL    HW153806   7.621   4.705   2.128 -0.8388  0.7714 -1.2712
17578SOL    HW253807   7.758   4.731   2.186 -0.5325 -0.9598 -1.1691
17579SOL     OW53808   0.945   1.624   4.426 -0.4485  0.0155 -0.2260
17579SOL    HW153809   1.022   1.583   4.466 -1.6192 -2.0194  0.0889
17579SOL    HW253810   0.941   1.587   4.338 -0.8737  0.3805 -0.3595
17580SOL     OW53811   7.650   3.595   7.159  0.1173  0.9882 -0.2068
17580SOL    HW153812   7.682   3.578   7.071 -0.2010  1.3479 -0.3963
17580SOL    HW253813   7.574   3.539   7.169  1.2031 -0.4152  0.5109
17581SOL     OW53814   7.504   1.479   3.810  0.0860 -0.4309 -0.4551
17581SOL    HW153815   7.462   1.508   3.891  0.3833  0.5614 -0.6397
17581SOL    HW253816   7.543   1.559   3.774 -1.4505 -0.5042 -2.4224
17582SOL     OW53817   7.700   2.320   7.431 -0.0608  0.1099 -0.0921
17582SOL    HW153818   7.615   2.289   7.460 -0.2035 -3.7561 -3.6811
17582SOL    HW253819   7.745   2.241   7.400  2.9181  2.5706 -2.7478
17583SOL     OW53820   0.468   6.391   5.060 -0.0348 -0.3381 -0.5240
17583SOL    HW153821   0.390   6.441   5.034 -0.7574 -1.5942 -0.8659
17583SOL    HW253822   0.458   6.378   5.154 -0.4051 -0.7471 -0.6148
17584SOL     OW53823   4.801   3.551   0.078 -0.0592 -0.1691 -0.0810
17584SOL    HW153824   4.715   3.514   0.095 -0.5619  0.3691 -1.3305
17584SOL    HW253825   4.793   3.592  -0.008  0.9696  1.3074  0.4832
17585SOL     OW53826   7.213   4.153   5.620 -0.4908  0.1838  0.0373
17585SOL    HW153827   7.185   4.168   5.530  0.4740  0.6790 -0.1926
17585SOL    HW253828   7.152   4.087   5.653 -1.5654  0.8228 -0.6075
17586SOL     OW53829   1.761   5.163   2.623 -0.4627 -0.3804 -0.4758
17586SOL    HW153830   1.795   5.206   2.544 -0.9794  1.0350  0.0379
17586SOL    HW253831   1.674   5.133   2.597 -0.1926 -0.9197 -0.7694
17587SOL     OW53832   7.756   3.749   6.794  0.8832  0.1209  0.8119
17587SOL    HW153833   7.811   3.737   6.716  1.1643  1.7737  0.7186
17587SOL    HW253834   7.790   3.828   6.835 -0.6481  0.4861  1.4375
17588SOL     OW53835   1.230   5.195   5.576  0.0461 -0.0851 -0.0058
17588SOL    HW153836   1.258   5.226   5.662 -0.9468  1.1079 -0.0793
17588SOL    HW253837   1.135   5.210   5.575  0.0390 -0.0957 -1.2905
17589SOL     OW53838   6.588   0.820   5.848 -0.1211 -0.4270 -0.2451
17589SOL    HW153839   6.641   0.740   5.844 -1.2955 -1.2315  0.0502
17589SOL    HW253840   6.534   0.816   5.769 -0.8936 -0.4352  0.2827
17590SOL     OW53841   3.647   4.113   7.328  0.6642 -0.6766 -0.1106
17590SOL    HW153842   3.657   4.062   7.247  3.1669  0.0462 -0.3434
17590SOL    HW253843   3.700   4.066   7.392 -0.4374 -0.6516  0.8385
17591SOL     OW53844   4.751   0.735   3.347 -0.2490 -1.0075  0.1518
17591SOL    HW153845   4.683   0.787   3.391  0.5285 -1.7708  2.4336
17591SOL    HW253846   4.773   0.667   3.411  1.5631 -1.7109 -1.1586
17592SOL     OW53847   2.451   1.467   7.111 -0.0666  0.4295 -0.6596
17592SOL    HW153848   2.362   1.471   7.148  0.2236  1.3043 -0.0347
17592SOL    HW253849   2.508   1.470   7.188  0.5984  3.5259 -1.1531
17593SOL     OW53850   5.713   7.070   3.398 -0.0356  0.2472 -0.1503
17593SOL    HW153851   5.633   7.019   3.411  0.1907  0.0407  0.4831
17593SOL    HW253852   5.715   7.088   3.304 -0.1361 -0.8966 -0.3873
17594SOL     OW53853   0.504   7.982   6.111 -0.5291  0.0559  0.1707
17594SOL    HW153854   0.527   8.040   6.039  2.5660 -1.7160 -0.4486
17594SOL    HW253855   0.420   8.015   6.143 -1.1929  1.9533 -3.0938
17595SOL     OW53856   7.218   4.408   3.262  0.0954  0.2033  0.4676
17595SOL    HW153857   7.238   4.394   3.354  0.9412  0.8206  0.3934
17595SOL    HW253858   7.132   4.368   3.249  0.3105 -0.5667  1.3394
17596SOL     OW53859   6.544   0.341   3.625  0.3466 -0.3009  0.1027
17596SOL    HW153860   6.573   0.391   3.702 -0.1654 -0.7787  0.6154
17596SOL    HW253861   6.459   0.306   3.650 -0.2390  0.2622 -1.0151
17597SOL     OW53862   7.050   1.207   0.699  0.6394 -0.7804 -0.2811
17597SOL    HW153863   7.101   1.278   0.739 -0.1643  0.7843 -1.9275
17597SOL    HW253864   7.080   1.128   0.745  3.0917  0.3127  0.1853
17598SOL     OW53865   1.396   2.288   0.037 -0.1182  0.0477  0.3111
17598SOL    HW153866   1.471   2.285  -0.022  1.0528 -0.7467  1.7582
17598SOL    HW253867   1.433   2.311   0.122 -1.7198  0.9355  0.8165
17599SOL     OW53868   0.346   0.218   5.820 -0.1211  0.5544  0.2771
17599SOL    HW153869   0.343   0.252   5.730  1.6277  1.9945  0.6938
17599SOL    HW253870   0.287   0.276   5.869  0.4600  1.0499  0.4055
17600SOL     OW53871   5.010   7.159   5.156 -0.3343 -0.0792 -0.4959
17600SOL    HW153872   5.073   7.227   5.181 -1.4660  0.2119  1.8872
17600SOL    HW253873   5.053   7.077   5.180 -0.7913  0.1234  1.1890
17601SOL     OW53874   0.011   4.353   6.188 -0.0314 -0.1094  0.7205
17601SOL    HW153875   0.092   4.314   6.153  1.1817  2.0368  0.9845
17601SOL    HW253876   0.024   4.354   6.283 -0.9441 -0.8916  0.8720
17602SOL     OW53877   5.004   4.494   0.659  0.0193 -0.1734 -0.1083
17602SOL    HW153878   5.065   4.423   0.679  0.2018  0.0831  0.2677
17602SOL    HW253879   4.989   4.536   0.744 -1.2740 -0.6991 -0.0627
17603SOL     OW53880   1.967   2.858   2.805  0.0097 -0.0285 -0.2597
17603SOL    HW153881   2.031   2.872   2.736 -0.6286  1.3975 -0.5916
17603SOL    HW253882   1.959   2.943   2.849 -0.2424 -0.6800  1.0024
17604SOL     OW53883   5.364   6.396   4.593  0.1679  0.1300 -0.1846
17604SOL    HW153884   5.404   6.461   4.536  1.0081 -1.0021 -0.9306
17604SOL    HW253885   5.436   6.336   4.615 -0.4143 -0.1281  1.0967
17605SOL     OW53886   3.720   5.225   7.329 -0.7287 -0.1390 -0.0142
17605SOL    HW153887   3.646   5.278   7.358 -0.1908  0.1363  0.9092
17605SOL    HW253888   3.695   5.135   7.348 -0.0531  0.0768  2.2299
17606SOL     OW53889   6.639   4.275   5.949  0.5645 -0.0142 -0.1854
17606SOL    HW153890   6.680   4.272   5.862 -0.5032  1.9588 -0.7908
17606SOL    HW253891   6.546   4.285   5.932  0.4625  1.8295  1.1557
17607SOL     OW53892   0.479   7.650   1.619  0.5862  0.3922  0.3438
17607SOL    HW153893   0.490   7.726   1.562 -0.8967 -0.1020 -0.6779
17607SOL    HW253894   0.535   7.583   1.581 -0.8260 -0.1141 -0.9302
17608SOL     OW53895   1.241   2.197   6.008 -0.0693  0.0762  0.2290
17608SOL    HW153896   1.205   2.264   6.066 -0.1898  0.6668 -0.5174
17608SOL    HW253897   1.209   2.221   5.921 -1.0996 -1.5958  0.0910
17609SOL     OW53898   6.079   0.033   1.784  0.0526  0.0835 -0.4916
17609SOL    HW153899   6.112  -0.038   1.840 -1.2661 -0.4695 -0.3883
17609SOL    HW253900   6.141   0.105   1.799  0.4032 -0.4442  0.7751
17610SOL     OW53901   6.936   2.510   2.862  0.0970  0.5317  0.2577
17610SOL    HW153902   6.870   2.517   2.931 -0.8187 -1.0942 -0.4044
17610SOL    HW253903   7.017   2.540   2.903 -0.6669  0.7500  1.6636
17611SOL     OW53904   1.207   7.631   3.370  0.1669 -0.3354 -0.1820
17611SOL    HW153905   1.265   7.706   3.384 -1.3744  0.6522  1.3431
17611SOL    HW253906   1.258   7.571   3.315  2.8521  0.1786  1.5726
17612SOL     OW53907   5.897   6.241   1.232  0.1685  0.8261 -0.5285
17612SOL    HW153908   5.974   6.184   1.231  2.0835  3.2124 -0.4346
17612SOL    HW253909   5.890   6.268   1.324 -1.8798 -0.6237 -0.1957
17613SOL     OW53910   6.762   5.204   3.368 -0.0661 -0.3355 -0.2812
17613SOL    HW153911   6.683   5.171   3.325 -2.2975  2.2719  1.4473
17613SOL    HW253912   6.779   5.142   3.439 -0.6506 -0.8568 -0.5898
17614SOL     OW53913   4.850   0.932   7.976  0.2060  0.1019  0.4324
17614SOL    HW153914   4.934   0.889   7.992 -0.6696 -1.6205  0.6171
17614SOL    HW253915   4.843   0.998   8.044  0.5701 -1.0403  1.6193
17615SOL     OW53916   1.882   3.126   3.180 -0.5315 -0.6948  0.4505
17615SOL    HW153917   1.974   3.126   3.206  0.1194 -0.4959 -1.6798
17615SOL    HW253918   1.838   3.076   3.248  1.2067 -1.0914  1.3330
17616SOL     OW53919   1.695   0.600   0.731  0.5467 -0.2938 -0.1893
17616SOL    HW153920   1.701   0.598   0.827 -2.0472 -1.3274  0.0307
17616SOL    HW253921   1.709   0.509   0.705  0.3903 -0.1700 -0.7179
17617SOL     OW53922   1.497   6.913   2.951 -0.5828 -0.3152 -0.6264
17617SOL    HW153923   1.430   6.951   2.894 -0.9660  0.1759  0.1316
17617SOL    HW253924   1.557   6.869   2.891 -1.1605 -0.1034 -1.3805
17618SOL     OW53925   1.965   4.732   1.018  0.3289  0.2316  0.3278
17618SOL    HW153926   1.872   4.751   1.006  0.4042  0.0387 -0.5996
17618SOL    HW253927   1.970   4.637   1.021  0.3602  0.2634  1.5825
17619SOL     OW53928   1.355   2.704   3.220 -0.2669 -0.2103  0.0576
17619SOL    HW153929   1.439   2.738   3.250 -0.6547 -0.8155  1.9281
17619SOL    HW253930   1.292   2.773   3.242 -0.1955  0.6362 -2.1536
17620SOL     OW53931   3.768   0.851   4.050  1.0008 -0.2662  0.0065
17620SOL    HW153932   3.790   0.830   4.141  1.4615  0.4948  0.0713
17620SOL    HW253933   3.817   0.930   4.030  0.9730 -0.4701 -0.9408
17621SOL     OW53934   0.849   3.665   6.556 -0.4364  0.4484  0.1883
17621SOL    HW153935   0.823   3.757   6.554 -0.1271  0.5421  0.5663
17621SOL    HW253936   0.912   3.656   6.484 -0.6895  0.4623 -0.0379
17622SOL     OW53937   6.106   5.626   3.084  0.1475  0.2133  0.0751
17622SOL    HW153938   6.161   5.642   3.007  0.4283 -1.3366 -0.0720
17622SOL    HW253939   6.060   5.709   3.097  0.6888  0.7682 -1.2761
17623SOL     OW53940   6.302   2.083   2.446 -0.1949  0.5865  0.2266
17623SOL    HW153941   6.395   2.097   2.426  0.1487 -0.4905  0.9645
17623SOL    HW253942   6.275   2.163   2.491  1.1405 -0.1342  2.4846
17624SOL     OW53943   4.339   7.702   5.409  0.1897  0.1334  0.1047
17624SOL    HW153944   4.418   7.746   5.378 -1.0884  1.1055 -2.0219
17624SOL    HW253945   4.301   7.663   5.331 -1.5848 -0.0731  1.0154
17625SOL     OW53946   0.432   4.658   2.964  0.5721  0.1027  0.2405
17625SOL    HW153947   0.346   4.664   2.922 -0.7521 -1.0584  2.5798
17625SOL    HW253948   0.455   4.749   2.984  0.6992  0.5748 -1.8249
17626SOL     OW53949   1.846   6.858   7.412  0.1681  0.2679  0.2384
17626SOL    HW153950   1.906   6.786   7.394 -1.6444 -1.5808  1.1723
17626SOL    HW253951   1.820   6.890   7.325  1.2858  0.0640 -0.1840
17627SOL     OW53952   0.832   6.492   4.515 -0.3871 -0.7229  0.7162
17627SOL    HW153953   0.815   6.408   4.559 -0.1709  0.1727  2.6011
17627SOL    HW253954   0.922   6.513   4.538 -0.4739  0.0881  0.3370
17628SOL     OW53955   6.570   7.531   6.861  0.4129  0.8346  0.0521
17628SOL    HW153956   6.604   7.614   6.826  1.1012 -0.0448 -1.4971
17628SOL    HW253957   6.601   7.465   6.799 -2.8989 -0.2405 -0.6484
17629SOL     OW53958   0.531   3.812   1.209 -0.3585 -0.7968  0.3260
17629SOL    HW153959   0.596   3.755   1.250 -0.3140 -0.4789  0.7023
17629SOL    HW253960   0.544   3.897   1.251 -1.0552 -0.7445  0.4469
17630SOL     OW53961   5.894   0.880   3.017 -0.1139 -0.3803  0.5699
17630SOL    HW153962   5.803   0.907   3.002 -0.4370 -1.5342  0.3950
17630SOL    HW253963   5.913   0.819   2.945  0.9003  0.0684  0.4342
17631SOL     OW53964   0.671   0.842   4.540  0.2760 -0.2025  0.3277
17631SOL    HW153965   0.705   0.930   4.553 -0.9646  0.5041 -0.9458
17631SOL    HW253966   0.748   0.789   4.521  1.1491  0.3767  2.0652
17632SOL     OW53967   0.904   4.469   0.718 -0.1501 -0.3869 -0.3217
17632SOL    HW153968   0.927   4.487   0.809  0.0319  1.2200 -0.6553
17632SOL    HW253969   0.968   4.405   0.689  0.4974 -0.0518  0.3508
17633SOL     OW53970   2.221   8.117   4.458  0.0197 -0.4180 -0.4588
17633SOL    HW153971   2.290   8.091   4.396  2.2731  0.1227  1.6509
17633SOL    HW253972   2.239   8.064   4.536 -1.6805  0.1269  0.3372
17634SOL     OW53973   6.490   2.824   7.568 -0.7616 -0.4183  0.4865
17634SOL    HW153974   6.532   2.910   7.576 -0.2300 -0.7813  1.8266
17634SOL    HW253975   6.485   2.809   7.474  0.6998  0.3356  0.2584
17635SOL     OW53976   4.598   4.661   6.408  0.0209  0.4667 -0.0465
17635SOL    HW153977   4.534   4.607   6.455  1.0386 -0.7218  0.0106
17635SOL    HW253978   4.560   4.671   6.320  0.9608 -2.5750 -0.9246
17636SOL     OW53979   4.553   6.530   2.739  0.1765 -0.4747 -0.0414
17636SOL    HW153980   4.537   6.608   2.686 -2.6588 -0.9873 -0.0668
17636SOL    HW253981   4.568   6.565   2.827 -0.2932  0.1368 -0.1943
17637SOL     OW53982   0.890   1.912   6.494  0.2675 -0.3532 -0.0601
17637SOL    HW153983   0.950   1.848   6.531  0.8350 -0.6375 -1.4010
17637SOL    HW253984   0.913   1.994   6.538 -0.6990 -1.0825  1.9175
17638SOL     OW53985   2.086   3.150   5.014  0.7288  0.5878  0.5425
17638SOL    HW153986   2.156   3.144   4.949  0.0036 -0.8538 -0.1470
17638SOL    HW253987   2.013   3.189   4.966  0.3953  0.1208  0.6638
17639SOL     OW53988   1.727   2.401   2.161 -0.1022  0.3917 -0.0131
17639SOL    HW153989   1.635   2.376   2.154 -0.4050  1.4357  0.1563
17639SOL    HW253990   1.756   2.413   2.070  0.5675 -2.3039 -0.2369
17640SOL     OW53991   7.086   6.881   4.106  0.3567 -0.1691 -0.4266
17640SOL    HW153992   7.024   6.870   4.034  1.9521 -0.9837 -1.7807
17640SOL    HW253993   7.126   6.966   4.090  0.4912 -0.2126 -0.3240
17641SOL     OW53994   1.137   4.603   5.244 -0.1916  0.4612  0.0262
17641SOL    HW153995   1.212   4.627   5.189  0.6582 -1.8927  0.0479
17641SOL    HW253996   1.066   4.587   5.181  0.5873 -1.5406 -0.4393
17642SOL     OW53997   3.256   6.288   0.446  0.3880 -0.1876 -0.1370
17642SOL    HW153998   3.324   6.272   0.380  1.2297  1.0481  0.3810
17642SOL    HW253999   3.268   6.218   0.510  0.6420 -0.4573 -0.4740
17643SOL     OW54000   3.997   1.559   2.130 -0.5498  0.1250  0.1716
17643SOL    HW154001   4.083   1.599   2.130  0.0757 -1.1581  0.8347
17643SOL    HW254002   3.974   1.550   2.223 -2.2719  2.1890  0.0242
17644SOL     OW54003   4.902   7.375   3.249  0.0898  0.2987 -0.0355
17644SOL    HW154004   4.915   7.422   3.166 -1.1196  1.2807  0.2851
17644SOL    HW254005   4.807   7.360   3.252  0.2375 -0.4747  0.7766
17645SOL     OW54006   5.988   7.403   1.926  0.3465  0.0088 -0.2511
17645SOL    HW154007   6.062   7.429   1.982  0.7030 -0.8091 -0.3408
17645SOL    HW254008   5.968   7.483   1.877  2.5609 -0.2711 -1.7952
17646SOL     OW54009   1.584   0.039   5.320 -0.1101  0.1488  0.2030
17646SOL    HW154010   1.553   0.082   5.400 -0.4912  0.9391 -0.3648
17646SOL    HW254011   1.679   0.049   5.323 -0.0407 -0.5637  0.9644
17647SOL     OW54012   4.794   7.577   8.104  0.4188  0.2238  0.3378
17647SOL    HW154013   4.857   7.649   8.101  0.5851  0.0574 -0.7078
17647SOL    HW254014   4.749   7.581   8.020 -1.8053  1.0276  1.4924
17648SOL     OW54015   5.430   7.070   6.111 -0.0737  0.4022  0.3322
17648SOL    HW154016   5.402   7.079   6.202 -1.3446  1.8632 -0.1602
17648SOL    HW254017   5.484   6.991   6.110 -0.5775 -0.0101  2.2157
17649SOL     OW54018   0.061   0.846   7.386 -0.2117 -0.0580  0.1948
17649SOL    HW154019   0.118   0.884   7.319 -1.0836 -1.5708 -1.4803
17649SOL    HW254020  -0.028   0.862   7.353 -0.6537 -0.8262  0.9924
17650SOL     OW54021   4.284   0.206   1.984  0.3359 -0.2250  0.2782
17650SOL    HW154022   4.322   0.134   1.935  0.2686  0.2962 -0.5504
17650SOL    HW254023   4.339   0.281   1.963  0.9379 -0.2011  1.8163
17651SOL     OW54024   1.239   2.312   1.215  0.4431  0.3609  0.1026
17651SOL    HW154025   1.283   2.294   1.298  0.6988 -1.7579 -0.4334
17651SOL    HW254026   1.176   2.240   1.205 -0.2032  1.0641 -1.1235
17652SOL     OW54027   1.248   3.031   0.002 -0.2580  0.6910  0.1138
17652SOL    HW154028   1.209   3.118  -0.009  0.2708  0.7794 -1.1742
17652SOL    HW254029   1.333   3.037  -0.040 -0.9503 -0.9717 -1.6631
17653SOL     OW54030   8.030   4.493   3.662 -0.0804 -0.3483  0.7628
17653SOL    HW154031   8.045   4.541   3.581 -1.0309 -0.6993  0.3668
17653SOL    HW254032   8.070   4.548   3.730  2.2481 -0.8810 -0.1045
17654SOL     OW54033   2.185   4.037   2.541  0.2366  0.2690 -0.0482
17654SOL    HW154034   2.173   4.091   2.620  1.6943 -0.5287  0.7548
17654SOL    HW254035   2.193   3.948   2.574  1.3290 -0.0271 -1.0607
17655SOL     OW54036   0.799   1.516   7.020  0.1649  0.4062 -0.3473
17655SOL    HW154037   0.744   1.444   7.053 -0.3564  1.5671  1.4628
17655SOL    HW254038   0.888   1.491   7.045  0.2220 -0.4004 -1.2745
17656SOL     OW54039   2.261   2.586   5.255  0.4878 -0.1542 -0.0940
17656SOL    HW154040   2.352   2.563   5.269  0.2535 -0.9743  0.1812
17656SOL    HW254041   2.213   2.505   5.273 -0.3426  0.4143  0.3691
17657SOL     OW54042   7.048   1.523   6.766  1.0550 -0.0468 -0.0340
17657SOL    HW154043   7.067   1.532   6.859 -0.3753  0.7016  0.2104
17657SOL    HW254044   7.112   1.579   6.723 -0.3404  2.2432  0.7406
17658SOL     OW54045   0.875   3.644   1.634 -0.1289  0.0025 -0.1454
17658SOL    HW154046   0.861   3.621   1.726 -0.8666  1.0537  0.0256
17658SOL    HW254047   0.921   3.728   1.637 -2.7461  1.6046 -0.6400
17659SOL     OW54048   4.589   8.071   4.517  0.2086  0.4976  0.9734
17659SOL    HW154049   4.597   7.976   4.525 -1.2275  0.4909  3.2809
17659SOL    HW254050   4.658   8.095   4.455  0.5283 -2.0343  0.2025
17660SOL     OW54051   1.791   0.221   0.391  0.0001 -0.1208 -0.2730
17660SOL    HW154052   1.701   0.200   0.368 -0.1418 -1.5409  1.4098
17660SOL    HW254053   1.822   0.277   0.319 -2.2306  0.4910 -0.8213
17661SOL     OW54054   1.107   4.085   6.929 -0.1472 -0.1467  0.1415
17661SOL    HW154055   1.013   4.101   6.929 -0.0627  0.3745 -0.1877
17661SOL    HW254056   1.131   4.081   7.022 -0.1984  1.5716  0.2633
17662SOL     OW54057   0.939   1.056   5.062 -0.7195  0.1390 -0.0175
17662SOL    HW154058   0.972   0.979   5.015 -0.6841  0.9628 -1.3982
17662SOL    HW254059   0.850   1.031   5.087 -0.7089 -0.3626 -0.4483
17663SOL     OW54060   7.944   7.998   2.018 -0.5284 -0.3786 -0.0507
17663SOL    HW154061   7.993   8.081   2.014 -1.6159  0.2806 -0.3034
17663SOL    HW254062   8.003   7.937   2.060  0.0281  0.7346  0.8410
17664SOL     OW54063   7.290   3.511   0.188  0.4413 -0.3711  0.0306
17664SOL    HW154064   7.327   3.556   0.265 -1.0252  0.0857  0.4954
17664SOL    HW254065   7.244   3.435   0.224  0.1741 -0.4394 -0.4471
17665SOL     OW54066   1.595   4.575   3.892 -0.0367  0.2850  0.2800
17665SOL    HW154067   1.671   4.526   3.922 -1.2086 -1.5545  0.3993
17665SOL    HW254068   1.565   4.528   3.814 -2.3668 -0.4578  1.5214
17666SOL     OW54069   4.610   5.082   1.574  0.2806 -0.2553 -0.0342
17666SOL    HW154070   4.613   5.171   1.539 -2.0250  0.7787  2.1384
17666SOL    HW254071   4.531   5.044   1.536  0.5459 -0.9494  0.0859
17667SOL     OW54072   7.934   6.332   1.673  0.2798 -0.3975 -0.4908
17667SOL    HW154073   7.892   6.247   1.686  0.0252 -0.4451 -1.5003
17667SOL    HW254074   7.874   6.395   1.715  0.1030 -0.6488 -0.3672
17668SOL     OW54075   0.280   0.214   7.547 -0.2014  0.4976  0.0157
17668SOL    HW154076   0.323   0.289   7.587  1.2758 -0.4230  0.2264
17668SOL    HW254077   0.192   0.245   7.526 -0.5590  1.4848  2.5897
17669SOL     OW54078   0.038   7.709   7.450  0.7555 -0.0283  0.3802
17669SOL    HW154079  -0.023   7.647   7.410  1.4026 -1.1358  1.0645
17669SOL    HW254080   0.096   7.736   7.379 -1.1547  1.9410 -0.5764
17670SOL     OW54081   6.558   5.197   2.538 -0.2607 -0.0057  0.5048
17670SOL    HW154082   6.622   5.137   2.577 -1.2888 -1.5160 -0.0074
17670SOL    HW254083   6.564   5.179   2.444 -2.6869 -1.6034  0.5556
17671SOL     OW54084   2.130   0.393   2.246  0.5413  0.1641 -0.0661
17671SOL    HW154085   2.202   0.340   2.280 -0.3503 -0.3341  1.1023
17671SOL    HW254086   2.063   0.389   2.314 -0.5488  0.7121 -1.0755
17672SOL     OW54087   1.493   0.038   2.167  0.2206 -0.1256  0.0975
17672SOL    HW154088   1.493  -0.053   2.197 -0.6095 -0.0102  0.4723
17672SOL    HW254089   1.430   0.039   2.095  0.2119  0.1620  0.1105
17673SOL     OW54090   7.256   1.927   8.109  0.1820 -0.3860 -0.0744
17673SOL    HW154091   7.208   2.000   8.070 -0.4783 -1.1889 -0.7912
17673SOL    HW254092   7.347   1.957   8.110  0.4411 -0.6689 -3.2711
17674SOL     OW54093   6.995   6.531   3.823 -0.0150 -0.4046 -0.0703
17674SOL    HW154094   7.038   6.548   3.907 -1.3256  0.2513  0.4926
17674SOL    HW254095   7.046   6.581   3.760 -0.1061  0.5973  0.6269
17675SOL     OW54096   6.578   3.831   1.852 -0.1752 -0.1330  0.3966
17675SOL    HW154097   6.588   3.738   1.868  0.0987  0.1180  1.7578
17675SOL    HW254098   6.632   3.849   1.775  0.1050 -1.0068  0.3903
17676SOL     OW54099   0.685   5.029   5.387  0.4037  0.1264 -0.2178
17676SOL    HW154100   0.747   4.975   5.436 -0.2544 -0.5914 -0.1634
17676SOL    HW254101   0.606   5.031   5.441  0.2320  0.6923 -0.4808
17677SOL     OW54102   3.935   7.047   4.412 -0.2399 -0.4081  0.8605
17677SOL    HW154103   3.950   7.142   4.412 -2.1983 -0.0455  2.0188
17677SOL    HW254104   3.839   7.038   4.414 -0.0698 -2.4142  1.4722
17678SOL     OW54105   3.718   7.309   6.728 -0.3551  0.1080  0.7364
17678SOL    HW154106   3.682   7.359   6.801  1.3547  2.5824  0.0152
17678SOL    HW254107   3.675   7.345   6.651 -0.4129 -0.8370  0.3103
17679SOL     OW54108   0.353   1.949   6.212  0.1186  0.4568  0.5390
17679SOL    HW154109   0.436   1.995   6.228  0.8128 -0.4312 -0.3894
17679SOL    HW254110   0.365   1.863   6.252  0.1526 -0.1386 -0.7003
17680SOL     OW54111   6.108   7.308   3.698 -0.2036  0.3875  0.6083
17680SOL    HW154112   6.039   7.257   3.742 -1.3304  0.2896 -1.1465
17680SOL    HW254113   6.139   7.251   3.628  1.4039  0.6024  1.1155
17681SOL     OW54114   7.451   5.235   3.083 -0.2113  0.4567  0.1228
17681SOL    HW154115   7.428   5.143   3.089 -1.2569  0.5482 -1.6545
17681SOL    HW254116   7.392   5.270   3.016  3.2697  1.3449 -2.8290
17682SOL     OW54117   4.688   3.502   6.349 -0.4725  0.2477 -0.0490
17682SOL    HW154118   4.746   3.578   6.339  0.0378  0.1747  1.9395
17682SOL    HW254119   4.600   3.538   6.339 -0.1886  0.8557 -0.4537
17683SOL     OW54120   6.881   1.926   5.348 -0.6393 -0.4763 -0.7063
17683SOL    HW154121   6.973   1.914   5.325 -0.1319  1.4905  0.1732
17683SOL    HW254122   6.866   1.864   5.419  0.1543 -0.4216 -0.4801
17684SOL     OW54123   2.180   7.767   0.385 -0.5751  0.0766 -0.1032
17684SOL    HW154124   2.230   7.792   0.462  0.1484  0.7509 -0.7712
17684SOL    HW254125   2.171   7.672   0.392 -0.3880  0.1151  0.7313
17685SOL     OW54126   2.454   8.003   0.774 -0.0449 -0.1537 -0.1462
17685SOL    HW154127   2.359   8.010   0.764  0.0514  1.8091  0.0944
17685SOL    HW254128   2.490   8.057   0.703  0.9245 -1.2666 -0.5416
17686SOL     OW54129   7.567   7.581   7.713 -0.5031  0.4786  0.2641
17686SOL    HW154130   7.649   7.533   7.702 -0.1121  1.2700 -0.3463
17686SOL    HW254131   7.589   7.652   7.774 -1.1788 -0.3175  1.4980
17687SOL     OW54132   3.406   2.502   5.445 -0.3646  0.9676 -0.1139
17687SOL    HW154133   3.391   2.570   5.511  0.5032  0.6919  0.3828
17687SOL    HW254134   3.353   2.530   5.370  0.7229  2.7175 -0.2912
17688SOL     OW54135   2.110   0.300   8.156  0.2866  0.1230 -0.2844
17688SOL    HW154136   2.155   0.222   8.189 -1.2224 -0.3452  0.8156
17688SOL    HW254137   2.134   0.369   8.218 -1.6573 -0.5010  1.3135
17689SOL     OW54138   5.354   5.524   5.079 -0.1534 -0.1920 -0.4037
17689SOL    HW154139   5.300   5.555   5.006 -0.4419  1.7421  0.5582
17689SOL    HW254140   5.401   5.602   5.108 -0.1055 -0.8947  1.5078
17690SOL     OW54141   5.769   6.862   0.043 -0.3113 -0.2787  0.2155
17690SOL    HW154142   5.721   6.907  -0.026 -0.2060  1.2574  1.0912
17690SOL    HW254143   5.859   6.858   0.012 -0.4310 -0.4367 -0.1185
17691SOL     OW54144   6.914   4.653   5.427  0.0283 -0.3067 -0.7737
17691SOL    HW154145   6.894   4.595   5.501 -2.4737  1.2811 -0.0610
17691SOL    HW254146   6.876   4.608   5.352 -0.0779 -0.5528 -0.5768
17692SOL     OW54147   1.366   3.297   6.717  0.6074 -0.0164  0.0480
17692SOL    HW154148   1.342   3.377   6.670 -1.1139  0.3212  1.3422
17692SOL    HW254149   1.418   3.328   6.791  1.4465 -0.3079 -0.4078
17693SOL     OW54150   1.074   5.078   1.468 -0.1343  0.6297  0.2293
17693SOL    HW154151   0.984   5.098   1.441  0.5227  1.0601 -1.8668
17693SOL    HW254152   1.127   5.105   1.393  1.7820  0.6601  1.5328
17694SOL     OW54153   5.476   4.279   1.246  0.3237 -0.6929 -0.0453
17694SOL    HW154154   5.524   4.206   1.285  0.9790 -0.0445  0.4035
17694SOL    HW254155   5.424   4.315   1.318 -0.3458 -0.9878 -0.3743
17695SOL     OW54156   3.633   5.763   4.027 -0.2158 -0.0884 -0.0873
17695SOL    HW154157   3.645   5.690   4.088  0.3739  0.2059  0.1619
17695SOL    HW254158   3.620   5.721   3.942  0.9951 -0.4930 -0.1026
17696SOL     OW54159   7.034   2.509   1.918 -0.0754  0.0016 -0.0061
17696SOL    HW154160   7.042   2.586   1.974 -2.0156  0.1789  0.1011
17696SOL    HW254161   7.076   2.534   1.835 -1.6512  1.6049 -0.3671
17697SOL     OW54162   3.968   2.696   4.811 -0.4062 -0.2059  0.2406
17697SOL    HW154163   3.937   2.775   4.855 -0.6234 -0.4180  0.4735
17697SOL    HW254164   3.894   2.635   4.816  0.3844 -1.0814  1.6961
17698SOL     OW54165   0.362   7.652   4.826 -0.0429  0.3659  0.4697
17698SOL    HW154166   0.347   7.563   4.857 -1.8187  0.1255 -0.8991
17698SOL    HW254167   0.456   7.666   4.837  0.0693 -1.2004  1.8765
17699SOL     OW54168   7.583   7.510   0.289  0.0034 -0.3089  0.2836
17699SOL    HW154169   7.605   7.494   0.198 -0.6137 -0.5097  0.1641
17699SOL    HW254170   7.667   7.513   0.334  0.3596  0.5854 -0.4160
17700SOL     OW54171   1.932   7.941   5.005  0.5634 -0.5371  0.0953
17700SOL    HW154172   1.937   7.883   5.081 -0.2808  1.2604  1.5790
17700SOL    HW254173   1.850   7.989   5.016  1.5161  1.3703 -0.7468
17701SOL     OW54174   0.991   1.737   0.894 -0.1949 -0.3850  0.4384
17701SOL    HW154175   1.057   1.711   0.830 -1.2650  1.3593 -1.5152
17701SOL    HW254176   0.943   1.809   0.852 -1.5144  0.3207  2.8965
17702SOL     OW54177   4.261   2.475   3.215 -0.3315  0.0381 -0.1193
17702SOL    HW154178   4.336   2.497   3.271 -0.1996 -2.2505  0.7007
17702SOL    HW254179   4.297   2.412   3.151 -1.4314 -0.7217 -0.0164
17703SOL     OW54180   0.879   3.837   3.436 -0.4462  0.2019  0.1528
17703SOL    HW154181   0.896   3.923   3.474 -0.3954  0.6317 -0.8115
17703SOL    HW254182   0.810   3.799   3.490 -1.1398  1.2474  0.0176
17704SOL     OW54183   2.289   1.716   1.818 -0.2265 -0.2881 -0.4966
17704SOL    HW154184   2.238   1.789   1.783 -1.4715 -0.8191  0.1320
17704SOL    HW254185   2.223   1.651   1.844  0.8720 -2.3971 -2.6211
17705SOL     OW54186   4.583   8.150   7.578 -0.1962  1.2068 -0.4102
17705SOL    HW154187   4.529   8.076   7.553 -0.0728  0.5957  1.0533
17705SOL    HW254188   4.633   8.171   7.499  0.3100 -0.7406 -0.6537
17706SOL     OW54189   1.473   3.051   3.198  0.3122  0.0667  0.3258
17706SOL    HW154190   1.425   3.007   3.268 -0.8503  3.2363  1.7411
17706SOL    HW254191   1.416   3.046   3.122 -1.2782  1.7136  1.3375
17707SOL     OW54192   2.841   4.175   5.833  0.5221  0.4898 -0.1022
17707SOL    HW154193   2.925   4.131   5.844 -0.0764 -0.8120 -0.4468
17707SOL    HW254194   2.849   4.224   5.751  1.6711  2.2053  0.9848
17708SOL     OW54195   0.511   0.532   1.949 -0.2317 -0.2486 -0.1500
17708SOL    HW154196   0.486   0.601   1.887 -1.9444 -0.2996  0.4273
17708SOL    HW254197   0.582   0.486   1.906 -0.3705  0.6536 -1.4167
17709NA      NA54198   4.581   2.288   1.958  0.1851  0.5811 -0.2355
17710NA      NA54199   0.502   5.348   3.840  0.2059  0.3582 -0.0691
17711NA      NA54200   0.137   2.930   2.716 -0.0093 -0.2386 -0.0586
17712NA      NA54201   3.377   6.612   3.826 -0.1797  0.0976  0.3933
17713NA      NA54202   0.450   0.846   0.335 -0.0367  0.2747 -0.2497
17714NA      NA54203   7.271   3.500   1.820  0.2067  0.4586  0.4219
17715NA      NA54204   0.940   6.130   2.248 -0.0227 -0.1253  0.4510
17716NA      NA54205   6.707   2.618   7.815  0.5464 -0.2727 -0.0971
17717NA      NA54206   0.457   6.710   3.369 -0.1879 -0.0005  0.0518
17718NA      NA54207   0.599   1.631   2.733 -1.0786 -0.1994 -0.6770
17719NA      NA54208   2.994   4.471   6.429 -0.4066 -0.5502  0.0436
17720NA      NA54209   2.381   2.381   2.258 -0.1451 -0.2415 -0.2561
17721NA      NA54210   5.124   1.382   1.034  0.2826  0.0943  0.2066
17722NA      NA54211   7.584   6.041   4.904  0.1637 -0.1374 -0.5198
17723NA      NA54212   2.702   3.176   2.590 -0.7914 -0.5671  0.3225
17724NA      NA54213   3.453   5.567   0.907  0.6373 -0.1338 -0.5394
17725NA      NA54214   7.449   8.088   4.957  0.2304  0.0641 -0.0153
17726NA      NA54215   2.310   3.908   6.898  0.3383  0.5263 -0.4832
17727NA      NA54216   1.642   7.134   5.480  0.3695  0.3342 -0.3065
17728NA      NA54217   3.784   1.085   7.761 -0.3222  0.4542 -0.3431
17729NA      NA54218   2.516   5.582   2.814 -0.3694  0.5381 -0.2623
17730NA      NA54219   1.927   3.874   2.870 -0.5076 -0.0181  0.3379
17731NA      NA54220   7.587   3.945   4.668 -0.1017 -0.1934 -0.0065
17732NA      NA54221   5.651   7.777   2.940 -0.3094 -0.1132 -0.5412
17733NA      NA54222   0.445   6.382   7.340 -0.2822  0.2837  0.0339
17734NA      NA54223   7.722   1.493   6.556 -0.1768 -0.2365 -0.0922
17735NA      NA54224   0.629   5.776   4.585 -0.2381  0.5961 -0.6844
17736NA      NA54225   2.115   6.460   2.508  0.1039 -0.1956  0.2967
17737NA      NA54226   0.653   7.818   2.430 -0.1578 -0.1523 -0.3533
17738NA      NA54227   2.419   6.292   6.872 -0.3545  0.0186  0.2332
17739NA      NA54228   7.502   7.016   4.430 -0.1015  0.9025 -0.0359
17740NA      NA54229   0.604   0.800   2.242  0.3366 -0.3269 -0.0360
17741NA      NA54230   8.011   4.695   1.434 -0.0611  0.3927 -0.1491
17742NA      NA54231   2.116   6.038   0.647  0.2357  0.3413  0.0305
17743NA      NA54232   5.752   0.304   2.489 -0.2162  0.2241 -0.2301
17744NA      NA54233   2.186   0.362   4.699 -0.2122  0.2600 -0.2776
17745NA      NA54234   3.824   3.870   3.497 -0.0799  0.0560  0.5662
17746NA      NA54235   3.712   6.738   5.411 -0.2413 -0.3761 -0.2741
17747NA      NA54236   0.879   1.273   5.478  0.1793  0.4855 -0.3194
17748NA      NA54237   4.085   7.965   6.128 -0.0920 -0.0872  0.2631
17749NA      NA54238   3.497   5.222   2.143  0.0736 -0.0997 -0.0081
17750NA      NA54239   1.449   2.164   6.011  0.1996  0.2544  0.2775
17751NA      NA54240   0.142   4.085   2.427  0.4123  0.2168  0.1712
17752NA      NA54241   3.196   6.965   6.396 -0.2133 -0.4175 -0.4533
17753NA      NA54242   2.066   4.962   7.664  0.3716 -0.4620  0.0229
17754NA      NA54243   4.114   7.840   2.476 -0.3678  0.2260 -0.3260
17755NA      NA54244   6.503   2.055   0.802 -0.0762  0.1415 -0.1377
17756NA      NA54245   6.529   0.092   5.269 -0.2470 -0.0262  0.6580
17757NA      NA54246   7.178   6.922   2.794  0.2736  0.0892  0.4136
17758NA      NA54247   2.892   1.041   3.342 -0.8752 -0.4579  0.3506
17759CL      CL54248   7.991   7.227   3.641 -0.1254 -0.0140 -0.0513
17760CL      CL54249   0.452   5.021   5.637  0.0457  0.4616 -0.0390
17761CL      CL54250   7.551   2.042   8.028 -0.2421 -0.2058 -0.1688
17762CL      CL54251   2.099   3.689   2.526 -0.1470  0.2189  0.0351
17763CL      CL54252   6.748   0.461   0.032  0.1870 -0.0483  0.1323
17764CL      CL54253   0.061   2.151   5.354 -0.4323  0.4021 -0.2288
17765CL      CL54254   2.487   6.544   1.815  0.2402 -0.0006  0.7654
17766CL      CL54255   0.243   5.025   2.352  0.3140 -0.2481 -0.2699
17767CL      CL54256   3.440   7.996   5.529  0.4016  0.1463  0.4881
17768CL      CL54257   5.063   3.956   6.430 -0.5420  0.1917 -0.1185
17769CL      CL54258   7.848   5.094   3.197 -0.0618 -0.0151 -0.0333
17770CL      CL54259   3.811   1.106   7.530  0.0293  0.3280 -0.2995
17771CL      CL54260   6.956   1.312   5.972  0.4156  0.1550 -0.2902
17772CL      CL54261   2.533   5.803   3.800  0.3027 -0.0727 -0.3237
17773CL      CL54262   1.210   2.718   6.100 -0.4756 -0.1075  0.4021
17774CL      CL54263   5.872   3.398   3.653  0.3013 -0.0737  0.1684
17775CL      CL54264   5.390   2.695   2.107 -0.6198  0.0602  0.2204
17776CL      CL54265   3.068   4.909   4.310  0.3017 -0.3061  0.0064
17777CL      CL54266   7.330   5.780   6.596  0.4375  0.3502 -0.2914
17778CL      CL54267   8.023   1.634   4.290  0.2049 -0.0893 -0.0070
17779CL      CL54268   5.171   0.506   6.522 -0.0769 -0.2643 -0.0236
17780CL      CL54269   4.310   5.529   0.088 -0.0383 -0.2131  0.4917
17781CL      CL54270   2.045   0.215   6.463  0.1311 -0.0095 -0.1229
17782CL      CL54271   1.594   4.102   1.373 -0.0620 -0.0340  0.2105
17783CL      CL54272   7.607   0.289   5.869  0.1089 -0.0101  0.1287
17784CL      CL54273   0.837   4.534   6.966 -0.1100 -0.0561  0.0260
17785CL      CL54274   0.878   7.746   2.452  0.1532 -0.0655 -0.0446
17786CL      CL54275   3.256   7.073   3.978  0.0041  0.0145  0.3379
17787CL      CL54276   0.388   1.294   7.906 -0.1271 -0.1652 -0.3606
17788CL      CL54277   0.562   6.542   7.951 -0.1215 -0.3813  0.1782
17789CL      CL54278   4.729   7.400   3.959 -0.2081 -0.0998  0.2992
17790CL      CL54279   5.649   6.192   0.055  0.2358  0.4355  0.1148
17791CL      CL54280   3.830   0.955   0.524 -0.0044  0.0618 -0.1070
17792CL      CL54281   6.688   3.942   7.236 -0.2540  0.1684  0.2127
17793CL      CL54282   6.905   7.006   1.804  0.0246 -0.4094  0.1125
17794CL      CL54283   0.899   4.112   1.890 -0.2316  0.2374  0.2811
17795CL      CL54284   7.431   6.493   6.885  0.0852  0.0540 -0.1177
17796CL      CL54285   2.199   3.606   6.038 -0.0002 -0.0885 -0.2690
17797CL      CL54286   3.187   7.172   1.557 -0.2894 -0.0963 -0.5157
17798CL      CL54287   6.367   7.629   6.546 -0.2134 -0.2537  0.1393
17799CL      CL54288   3.354   2.107   4.906  0.0103 -0.3466 -0.0800
17800CL      CL54289   5.119   5.537   4.122  0.0049 -0.2156 -0.1205
17801CL      CL54290   4.019   1.272   3.805 -0.2317 -0.0496 -0.4895
17802CL      CL54291   3.077   7.264   7.749 -0.2044 -0.1400 -0.1574
17803CL      CL54292   7.790   5.209   1.093  0.0895  0.0182 -0.0350
17804CL      CL54293   5.759   7.940   2.490  0.2772  0.0952 -0.1957
17805CL      CL54294   3.475   1.395   3.376 -0.1988 -0.1049 -0.0517
17806CL      CL54295   0.338   7.348   4.966  0.1133  0.3729  0.4141
17807CL      CL54296   6.331   6.746   4.407 -0.0498 -0.3192  0.3695
17808CL      CL54297   0.269   0.843   0.196 -0.0753 -0.2202  0.3797
17809CL      CL54298   4.499   4.860   1.937  0.0301 -0.1027  0.2354
17810CL      CL54299   7.730   0.359   4.221 -0.0797 -0.0325 -0.0181
17811CL      CL54300   7.439   4.804   6.271  0.3169 -0.0383 -0.2189
17812CL      CL54301   4.411   5.299   6.310  0.0269  0.3165 -0.2908
17813CL      CL54302   2.663   5.739   2.722  0.3980  0.3365 -0.2307
17814CL      CL54303   2.294   5.789   5.743  0.0103 -0.2992 -0.0577
17815CL      CL54304   0.725   2.793   3.899  0.2409  0.1361  0.0601
17816CL      CL54305   4.403   7.862   7.424  0.0647  0.0457  0.1996
17817CL      CL54306   0.069   1.634   1.490 -0.2622 -0.0014  0.3639
17818CL      CL54307   5.012   5.828   7.118 -0.1674 -0.1354 -0.6151
17819CL      CL54308   5.002   3.952   5.301 -0.1228 -0.0243 -0.0256
17820CL      CL54309   5.299   8.043   0.771  0.2734 -0.6015  0.2242
17821CL      CL54310   1.028   1.843   0.534  0.2305  0.0500 -0.0186
17822CL      CL54311   7.372   7.170   0.312 -0.0996  0.2479  0.2373
17823CL      CL54312   3.936   4.759   0.586 -0.2727  0.0085  0.4013
17824CL      CL54313   7.005   0.469   0.456 -0.0478  0.1596  0.2276
17825CL      CL54314   0.704   7.295   6.758 -0.0830  0.0234  0.3481
17826CL      CL54315   7.117   7.323   5.731  0.5952 -0.1640  0.0781
17827CL      CL54316   6.890   2.255   7.025  0.3693 -0.4171  0.1509
17828CL      CL54317   7.025   7.695   5.034 -0.2010  0.6856 -0.1050
17829CL      CL54318   2.936   4.059   2.789 -0.0827 -0.0614  0.1606
17830CL      CL54319   1.936   2.198   2.898 -0.0159 -0.1926 -0.4871
   8.16391   8.16391   8.16391
