;
;   File g2.5dpNcore_cooh_petim.itp  was generated
;   By user: sairam (1000)
;   On host: sairam
;   At date: Mon. February  1 15:11:02 2025
;
;   This is a standalone topology file
;
;   Created by:
;   ParmEd:       amb2gro_top_gro.py, VERSION 3.4.1
;   Executable:   amb2gro_top_gro.py
;   Library dir:  /usr/local/gromacs/share/gromacs/top
;   Command line:
;     ./amb2gro_top_gro.py -p g2.5dpNcore_cooh_petim.prmtop -c g2.5dpNcore_cooh_petim.inpcrd -t g2.5dpNcore_cooh_petim.itp -g g2.5dpNcore_cooh_petim.gro -b g2.5dpNcore_cooh_petim.pdb
;

;[ defaults ]
;; nbfunc        comb-rule       gen-pairs       fudgeLJ fudgeQQ
;1               2               yes             0.5          0.83333333  
;
;[ atomtypes ]
;; name    at.num    mass    charge ptype  sigma      epsilon
;n4             7  14.010000  0.00000000  A     0.32499985        0.71128
;c3             6  12.010000  0.00000000  A     0.33996695      0.4577296
;hx             1   1.008000  0.00000000  A     0.19599772      0.0656888
;hc             1   1.008000  0.00000000  A     0.26495328      0.0656888
;h1             1   1.008000  0.00000000  A      0.2471353      0.0656888
;hn             1   1.008000  0.00000000  A     0.10690785      0.0656888
;os             8  16.000000  0.00000000  A     0.30000123        0.71128
;c              6  12.010000  0.00000000  A     0.33996695       0.359824
;o              8  16.000000  0.00000000  A     0.29599219        0.87864
;oh             8  16.000000  0.00000000  A     0.30664734      0.8803136
;ho             1   1.008000  0.00000000  A              0              0


[ moleculetype ]
; Name            nrexcl
g2.5dpNcore_cooh_petim          3

[ atoms ]
;   nr       type  resnr residue  atom   cgnr    charge       mass  typeB    chargeB      massB
; residue    1 aaa rtp aaa q 1.0
    1         n4      1    aaa     N1      1 -0.24795800  14.010000   ; qtot -0.247958
    2         c3      1    aaa     C1      2 0.15727100  12.010000   ; qtot -0.090687
    3         hx      1    aaa     H1      3 0.05072400   1.008000   ; qtot -0.039963
    4         hx      1    aaa     H2      4 0.05072400   1.008000   ; qtot 0.010761
    5         c3      1    aaa     C2      5 0.15727100  12.010000   ; qtot 0.168032
    6         hx      1    aaa     H3      6 0.05072400   1.008000   ; qtot 0.218756
    7         hx      1    aaa     H4      7 0.05072400   1.008000   ; qtot 0.269480
    8         c3      1    aaa     C3      8 0.15727100  12.010000   ; qtot 0.426751
    9         hx      1    aaa     H5      9 0.05072400   1.008000   ; qtot 0.477475
   10         hx      1    aaa     H6     10 0.05072400   1.008000   ; qtot 0.528199
   11         c3      1    aaa     C4     11 0.05437700  12.010000   ; qtot 0.582576
   12         hc      1    aaa     H7     12 0.07708700   1.008000   ; qtot 0.659663
   13         hc      1    aaa     H8     13 0.07708700   1.008000   ; qtot 0.736750
   14         c3      1    aaa     C5     14 0.05437700  12.010000   ; qtot 0.791127
   15         hc      1    aaa     H9     15 0.07708700   1.008000   ; qtot 0.868214
   16         hc      1    aaa    H10     16 0.07708700   1.008000   ; qtot 0.945301
   17         c3      1    aaa     C6     17 0.05437700  12.010000   ; qtot 0.999678
   18         hc      1    aaa    H11     18 0.07708700   1.008000   ; qtot 1.076765
   19         hc      1    aaa    H12     19 0.07708700   1.008000   ; qtot 1.153852
   20         c3      1    aaa     C7     20 -0.74569400  12.010000   ; qtot 0.408158
   21         h1      1    aaa    H13     21 0.30837900   1.008000   ; qtot 0.716537
   22         h1      1    aaa    H14     22 0.30837900   1.008000   ; qtot 1.024916
   23         c3      1    aaa     C8     23 -0.74569400  12.010000   ; qtot 0.279222
   24         h1      1    aaa    H15     24 0.30837900   1.008000   ; qtot 0.587601
   25         h1      1    aaa    H16     25 0.30837900   1.008000   ; qtot 0.895980
   26         c3      1    aaa     C9     26 -0.74569400  12.010000   ; qtot 0.150286
   27         h1      1    aaa    H17     27 0.30837900   1.008000   ; qtot 0.458665
   28         h1      1    aaa    H18     28 0.30837900   1.008000   ; qtot 0.767044
   29         hn      1    aaa    H19     29 0.23295100   1.008000   ; qtot 0.999995
; residue    2 bbb rtp bbb q 1.0
   30         n4      2    bbb     N1     30 0.03726400  14.010000   ; qtot 1.037259
   31         c3      2    bbb     C1     31 -0.07020100  12.010000   ; qtot 0.967058
   32         hx      2    bbb     H1     32 0.12219000   1.008000   ; qtot 1.089248
   33         hx      2    bbb     H2     33 0.12219000   1.008000   ; qtot 1.211438
   34         c3      2    bbb     C2     34 -0.07020100  12.010000   ; qtot 1.141237
   35         hx      2    bbb     H3     35 0.12219000   1.008000   ; qtot 1.263427
   36         hx      2    bbb     H4     36 0.12219000   1.008000   ; qtot 1.385617
   37         c3      2    bbb     C3     37 -0.39007700  12.010000   ; qtot 0.995540
   38         hx      2    bbb     H5     38 0.14940300   1.008000   ; qtot 1.144943
   39         hx      2    bbb     H6     39 0.14940300   1.008000   ; qtot 1.294346
   40         c3      2    bbb     C4     40 0.18057300  12.010000   ; qtot 1.474919
   41         hc      2    bbb     H7     41 0.01788900   1.008000   ; qtot 1.492808
   42         hc      2    bbb     H8     42 0.01788900   1.008000   ; qtot 1.510697
   43         c3      2    bbb     C5     43 -0.11337700  12.010000   ; qtot 1.397320
   44         hc      2    bbb     H9     44 0.09515400   1.008000   ; qtot 1.492474
   45         hc      2    bbb    H10     45 0.09515400   1.008000   ; qtot 1.587628
   46         c3      2    bbb     C6     46 -0.11337700  12.010000   ; qtot 1.474251
   47         hc      2    bbb    H11     47 0.09515400   1.008000   ; qtot 1.569405
   48         hc      2    bbb    H12     48 0.09515400   1.008000   ; qtot 1.664559
   49         c3      2    bbb     C7     49 0.21842400  12.010000   ; qtot 1.882983
   50         h1      2    bbb    H13     50 0.04500300   1.008000   ; qtot 1.927986
   51         h1      2    bbb    H14     51 0.04500300   1.008000   ; qtot 1.972989
   52         c3      2    bbb     C8     52 -0.06455200  12.010000   ; qtot 1.908437
   53         h1      2    bbb    H15     53 0.13554100   1.008000   ; qtot 2.043978
   54         h1      2    bbb    H16     54 0.13554100   1.008000   ; qtot 2.179519
   55         c3      2    bbb     C9     55 -0.06455200  12.010000   ; qtot 2.114967
   56         h1      2    bbb    H17     56 0.13554100   1.008000   ; qtot 2.250508
   57         h1      2    bbb    H18     57 0.13554100   1.008000   ; qtot 2.386049
   58         os      2    bbb     O1     58 -0.62587700  16.000000   ; qtot 1.760172
   59         hn      2    bbb    H19     59 0.23982500   1.008000   ; qtot 1.999997
; residue    3 bbb rtp bbb q 1.0
   60         n4      3    bbb     N1     60 0.03726400  14.010000   ; qtot 2.037261
   61         c3      3    bbb     C1     61 -0.07020100  12.010000   ; qtot 1.967060
   62         hx      3    bbb     H1     62 0.12219000   1.008000   ; qtot 2.089250
   63         hx      3    bbb     H2     63 0.12219000   1.008000   ; qtot 2.211440
   64         c3      3    bbb     C2     64 -0.07020100  12.010000   ; qtot 2.141239
   65         hx      3    bbb     H3     65 0.12219000   1.008000   ; qtot 2.263429
   66         hx      3    bbb     H4     66 0.12219000   1.008000   ; qtot 2.385619
   67         c3      3    bbb     C3     67 -0.39007700  12.010000   ; qtot 1.995542
   68         hx      3    bbb     H5     68 0.14940300   1.008000   ; qtot 2.144945
   69         hx      3    bbb     H6     69 0.14940300   1.008000   ; qtot 2.294348
   70         c3      3    bbb     C4     70 0.18057300  12.010000   ; qtot 2.474921
   71         hc      3    bbb     H7     71 0.01788900   1.008000   ; qtot 2.492810
   72         hc      3    bbb     H8     72 0.01788900   1.008000   ; qtot 2.510699
   73         c3      3    bbb     C5     73 -0.11337700  12.010000   ; qtot 2.397322
   74         hc      3    bbb     H9     74 0.09515400   1.008000   ; qtot 2.492476
   75         hc      3    bbb    H10     75 0.09515400   1.008000   ; qtot 2.587630
   76         c3      3    bbb     C6     76 -0.11337700  12.010000   ; qtot 2.474253
   77         hc      3    bbb    H11     77 0.09515400   1.008000   ; qtot 2.569407
   78         hc      3    bbb    H12     78 0.09515400   1.008000   ; qtot 2.664561
   79         c3      3    bbb     C7     79 0.21842400  12.010000   ; qtot 2.882985
   80         h1      3    bbb    H13     80 0.04500300   1.008000   ; qtot 2.927988
   81         h1      3    bbb    H14     81 0.04500300   1.008000   ; qtot 2.972991
   82         c3      3    bbb     C8     82 -0.06455200  12.010000   ; qtot 2.908439
   83         h1      3    bbb    H15     83 0.13554100   1.008000   ; qtot 3.043980
   84         h1      3    bbb    H16     84 0.13554100   1.008000   ; qtot 3.179521
   85         c3      3    bbb     C9     85 -0.06455200  12.010000   ; qtot 3.114969
   86         h1      3    bbb    H17     86 0.13554100   1.008000   ; qtot 3.250510
   87         h1      3    bbb    H18     87 0.13554100   1.008000   ; qtot 3.386051
   88         os      3    bbb     O1     88 -0.62587700  16.000000   ; qtot 2.760174
   89         hn      3    bbb    H19     89 0.23982500   1.008000   ; qtot 2.999999
; residue    4 bbb rtp bbb q 1.0
   90         n4      4    bbb     N1     90 0.03726400  14.010000   ; qtot 3.037263
   91         c3      4    bbb     C1     91 -0.07020100  12.010000   ; qtot 2.967062
   92         hx      4    bbb     H1     92 0.12219000   1.008000   ; qtot 3.089252
   93         hx      4    bbb     H2     93 0.12219000   1.008000   ; qtot 3.211442
   94         c3      4    bbb     C2     94 -0.07020100  12.010000   ; qtot 3.141241
   95         hx      4    bbb     H3     95 0.12219000   1.008000   ; qtot 3.263431
   96         hx      4    bbb     H4     96 0.12219000   1.008000   ; qtot 3.385621
   97         c3      4    bbb     C3     97 -0.39007700  12.010000   ; qtot 2.995544
   98         hx      4    bbb     H5     98 0.14940300   1.008000   ; qtot 3.144947
   99         hx      4    bbb     H6     99 0.14940300   1.008000   ; qtot 3.294350
  100         c3      4    bbb     C4    100 0.18057300  12.010000   ; qtot 3.474923
  101         hc      4    bbb     H7    101 0.01788900   1.008000   ; qtot 3.492812
  102         hc      4    bbb     H8    102 0.01788900   1.008000   ; qtot 3.510701
  103         c3      4    bbb     C5    103 -0.11337700  12.010000   ; qtot 3.397324
  104         hc      4    bbb     H9    104 0.09515400   1.008000   ; qtot 3.492478
  105         hc      4    bbb    H10    105 0.09515400   1.008000   ; qtot 3.587632
  106         c3      4    bbb     C6    106 -0.11337700  12.010000   ; qtot 3.474255
  107         hc      4    bbb    H11    107 0.09515400   1.008000   ; qtot 3.569409
  108         hc      4    bbb    H12    108 0.09515400   1.008000   ; qtot 3.664563
  109         c3      4    bbb     C7    109 0.21842400  12.010000   ; qtot 3.882987
  110         h1      4    bbb    H13    110 0.04500300   1.008000   ; qtot 3.927990
  111         h1      4    bbb    H14    111 0.04500300   1.008000   ; qtot 3.972993
  112         c3      4    bbb     C8    112 -0.06455200  12.010000   ; qtot 3.908441
  113         h1      4    bbb    H15    113 0.13554100   1.008000   ; qtot 4.043982
  114         h1      4    bbb    H16    114 0.13554100   1.008000   ; qtot 4.179523
  115         c3      4    bbb     C9    115 -0.06455200  12.010000   ; qtot 4.114971
  116         h1      4    bbb    H17    116 0.13554100   1.008000   ; qtot 4.250512
  117         h1      4    bbb    H18    117 0.13554100   1.008000   ; qtot 4.386053
  118         os      4    bbb     O1    118 -0.62587700  16.000000   ; qtot 3.760176
  119         hn      4    bbb    H19    119 0.23982500   1.008000   ; qtot 4.000001
; residue    5 bbb rtp bbb q 1.0
  120         n4      5    bbb     N1    120 0.03726400  14.010000   ; qtot 4.037265
  121         c3      5    bbb     C1    121 -0.07020100  12.010000   ; qtot 3.967064
  122         hx      5    bbb     H1    122 0.12219000   1.008000   ; qtot 4.089254
  123         hx      5    bbb     H2    123 0.12219000   1.008000   ; qtot 4.211444
  124         c3      5    bbb     C2    124 -0.07020100  12.010000   ; qtot 4.141243
  125         hx      5    bbb     H3    125 0.12219000   1.008000   ; qtot 4.263433
  126         hx      5    bbb     H4    126 0.12219000   1.008000   ; qtot 4.385623
  127         c3      5    bbb     C3    127 -0.39007700  12.010000   ; qtot 3.995546
  128         hx      5    bbb     H5    128 0.14940300   1.008000   ; qtot 4.144949
  129         hx      5    bbb     H6    129 0.14940300   1.008000   ; qtot 4.294352
  130         c3      5    bbb     C4    130 0.18057300  12.010000   ; qtot 4.474925
  131         hc      5    bbb     H7    131 0.01788900   1.008000   ; qtot 4.492814
  132         hc      5    bbb     H8    132 0.01788900   1.008000   ; qtot 4.510703
  133         c3      5    bbb     C5    133 -0.11337700  12.010000   ; qtot 4.397326
  134         hc      5    bbb     H9    134 0.09515400   1.008000   ; qtot 4.492480
  135         hc      5    bbb    H10    135 0.09515400   1.008000   ; qtot 4.587634
  136         c3      5    bbb     C6    136 -0.11337700  12.010000   ; qtot 4.474257
  137         hc      5    bbb    H11    137 0.09515400   1.008000   ; qtot 4.569411
  138         hc      5    bbb    H12    138 0.09515400   1.008000   ; qtot 4.664565
  139         c3      5    bbb     C7    139 0.21842400  12.010000   ; qtot 4.882989
  140         h1      5    bbb    H13    140 0.04500300   1.008000   ; qtot 4.927992
  141         h1      5    bbb    H14    141 0.04500300   1.008000   ; qtot 4.972995
  142         c3      5    bbb     C8    142 -0.06455200  12.010000   ; qtot 4.908443
  143         h1      5    bbb    H15    143 0.13554100   1.008000   ; qtot 5.043984
  144         h1      5    bbb    H16    144 0.13554100   1.008000   ; qtot 5.179525
  145         c3      5    bbb     C9    145 -0.06455200  12.010000   ; qtot 5.114973
  146         h1      5    bbb    H17    146 0.13554100   1.008000   ; qtot 5.250514
  147         h1      5    bbb    H18    147 0.13554100   1.008000   ; qtot 5.386055
  148         os      5    bbb     O1    148 -0.62587700  16.000000   ; qtot 4.760178
  149         hn      5    bbb    H19    149 0.23982500   1.008000   ; qtot 5.000003
; residue    6 bbb rtp bbb q 1.0
  150         n4      6    bbb     N1    150 0.03726400  14.010000   ; qtot 5.037267
  151         c3      6    bbb     C1    151 -0.07020100  12.010000   ; qtot 4.967066
  152         hx      6    bbb     H1    152 0.12219000   1.008000   ; qtot 5.089256
  153         hx      6    bbb     H2    153 0.12219000   1.008000   ; qtot 5.211446
  154         c3      6    bbb     C2    154 -0.07020100  12.010000   ; qtot 5.141245
  155         hx      6    bbb     H3    155 0.12219000   1.008000   ; qtot 5.263435
  156         hx      6    bbb     H4    156 0.12219000   1.008000   ; qtot 5.385625
  157         c3      6    bbb     C3    157 -0.39007700  12.010000   ; qtot 4.995548
  158         hx      6    bbb     H5    158 0.14940300   1.008000   ; qtot 5.144951
  159         hx      6    bbb     H6    159 0.14940300   1.008000   ; qtot 5.294354
  160         c3      6    bbb     C4    160 0.18057300  12.010000   ; qtot 5.474927
  161         hc      6    bbb     H7    161 0.01788900   1.008000   ; qtot 5.492816
  162         hc      6    bbb     H8    162 0.01788900   1.008000   ; qtot 5.510705
  163         c3      6    bbb     C5    163 -0.11337700  12.010000   ; qtot 5.397328
  164         hc      6    bbb     H9    164 0.09515400   1.008000   ; qtot 5.492482
  165         hc      6    bbb    H10    165 0.09515400   1.008000   ; qtot 5.587636
  166         c3      6    bbb     C6    166 -0.11337700  12.010000   ; qtot 5.474259
  167         hc      6    bbb    H11    167 0.09515400   1.008000   ; qtot 5.569413
  168         hc      6    bbb    H12    168 0.09515400   1.008000   ; qtot 5.664567
  169         c3      6    bbb     C7    169 0.21842400  12.010000   ; qtot 5.882991
  170         h1      6    bbb    H13    170 0.04500300   1.008000   ; qtot 5.927994
  171         h1      6    bbb    H14    171 0.04500300   1.008000   ; qtot 5.972997
  172         c3      6    bbb     C8    172 -0.06455200  12.010000   ; qtot 5.908445
  173         h1      6    bbb    H15    173 0.13554100   1.008000   ; qtot 6.043986
  174         h1      6    bbb    H16    174 0.13554100   1.008000   ; qtot 6.179527
  175         c3      6    bbb     C9    175 -0.06455200  12.010000   ; qtot 6.114975
  176         h1      6    bbb    H17    176 0.13554100   1.008000   ; qtot 6.250516
  177         h1      6    bbb    H18    177 0.13554100   1.008000   ; qtot 6.386057
  178         os      6    bbb     O1    178 -0.62587700  16.000000   ; qtot 5.760180
  179         hn      6    bbb    H19    179 0.23982500   1.008000   ; qtot 6.000005
; residue    7 bbb rtp bbb q 1.0
  180         n4      7    bbb     N1    180 0.03726400  14.010000   ; qtot 6.037269
  181         c3      7    bbb     C1    181 -0.07020100  12.010000   ; qtot 5.967068
  182         hx      7    bbb     H1    182 0.12219000   1.008000   ; qtot 6.089258
  183         hx      7    bbb     H2    183 0.12219000   1.008000   ; qtot 6.211448
  184         c3      7    bbb     C2    184 -0.07020100  12.010000   ; qtot 6.141247
  185         hx      7    bbb     H3    185 0.12219000   1.008000   ; qtot 6.263437
  186         hx      7    bbb     H4    186 0.12219000   1.008000   ; qtot 6.385627
  187         c3      7    bbb     C3    187 -0.39007700  12.010000   ; qtot 5.995550
  188         hx      7    bbb     H5    188 0.14940300   1.008000   ; qtot 6.144953
  189         hx      7    bbb     H6    189 0.14940300   1.008000   ; qtot 6.294356
  190         c3      7    bbb     C4    190 0.18057300  12.010000   ; qtot 6.474929
  191         hc      7    bbb     H7    191 0.01788900   1.008000   ; qtot 6.492818
  192         hc      7    bbb     H8    192 0.01788900   1.008000   ; qtot 6.510707
  193         c3      7    bbb     C5    193 -0.11337700  12.010000   ; qtot 6.397330
  194         hc      7    bbb     H9    194 0.09515400   1.008000   ; qtot 6.492484
  195         hc      7    bbb    H10    195 0.09515400   1.008000   ; qtot 6.587638
  196         c3      7    bbb     C6    196 -0.11337700  12.010000   ; qtot 6.474261
  197         hc      7    bbb    H11    197 0.09515400   1.008000   ; qtot 6.569415
  198         hc      7    bbb    H12    198 0.09515400   1.008000   ; qtot 6.664569
  199         c3      7    bbb     C7    199 0.21842400  12.010000   ; qtot 6.882993
  200         h1      7    bbb    H13    200 0.04500300   1.008000   ; qtot 6.927996
  201         h1      7    bbb    H14    201 0.04500300   1.008000   ; qtot 6.972999
  202         c3      7    bbb     C8    202 -0.06455200  12.010000   ; qtot 6.908447
  203         h1      7    bbb    H15    203 0.13554100   1.008000   ; qtot 7.043988
  204         h1      7    bbb    H16    204 0.13554100   1.008000   ; qtot 7.179529
  205         c3      7    bbb     C9    205 -0.06455200  12.010000   ; qtot 7.114977
  206         h1      7    bbb    H17    206 0.13554100   1.008000   ; qtot 7.250518
  207         h1      7    bbb    H18    207 0.13554100   1.008000   ; qtot 7.386059
  208         os      7    bbb     O1    208 -0.62587700  16.000000   ; qtot 6.760182
  209         hn      7    bbb    H19    209 0.23982500   1.008000   ; qtot 7.000007
; residue    8 bbb rtp bbb q 1.0
  210         n4      8    bbb     N1    210 0.03726400  14.010000   ; qtot 7.037271
  211         c3      8    bbb     C1    211 -0.07020100  12.010000   ; qtot 6.967070
  212         hx      8    bbb     H1    212 0.12219000   1.008000   ; qtot 7.089260
  213         hx      8    bbb     H2    213 0.12219000   1.008000   ; qtot 7.211450
  214         c3      8    bbb     C2    214 -0.07020100  12.010000   ; qtot 7.141249
  215         hx      8    bbb     H3    215 0.12219000   1.008000   ; qtot 7.263439
  216         hx      8    bbb     H4    216 0.12219000   1.008000   ; qtot 7.385629
  217         c3      8    bbb     C3    217 -0.39007700  12.010000   ; qtot 6.995552
  218         hx      8    bbb     H5    218 0.14940300   1.008000   ; qtot 7.144955
  219         hx      8    bbb     H6    219 0.14940300   1.008000   ; qtot 7.294358
  220         c3      8    bbb     C4    220 0.18057300  12.010000   ; qtot 7.474931
  221         hc      8    bbb     H7    221 0.01788900   1.008000   ; qtot 7.492820
  222         hc      8    bbb     H8    222 0.01788900   1.008000   ; qtot 7.510709
  223         c3      8    bbb     C5    223 -0.11337700  12.010000   ; qtot 7.397332
  224         hc      8    bbb     H9    224 0.09515400   1.008000   ; qtot 7.492486
  225         hc      8    bbb    H10    225 0.09515400   1.008000   ; qtot 7.587640
  226         c3      8    bbb     C6    226 -0.11337700  12.010000   ; qtot 7.474263
  227         hc      8    bbb    H11    227 0.09515400   1.008000   ; qtot 7.569417
  228         hc      8    bbb    H12    228 0.09515400   1.008000   ; qtot 7.664571
  229         c3      8    bbb     C7    229 0.21842400  12.010000   ; qtot 7.882995
  230         h1      8    bbb    H13    230 0.04500300   1.008000   ; qtot 7.927998
  231         h1      8    bbb    H14    231 0.04500300   1.008000   ; qtot 7.973001
  232         c3      8    bbb     C8    232 -0.06455200  12.010000   ; qtot 7.908449
  233         h1      8    bbb    H15    233 0.13554100   1.008000   ; qtot 8.043990
  234         h1      8    bbb    H16    234 0.13554100   1.008000   ; qtot 8.179531
  235         c3      8    bbb     C9    235 -0.06455200  12.010000   ; qtot 8.114979
  236         h1      8    bbb    H17    236 0.13554100   1.008000   ; qtot 8.250520
  237         h1      8    bbb    H18    237 0.13554100   1.008000   ; qtot 8.386061
  238         os      8    bbb     O1    238 -0.62587700  16.000000   ; qtot 7.760184
  239         hn      8    bbb    H19    239 0.23982500   1.008000   ; qtot 8.000009
; residue    9 bbb rtp bbb q 1.0
  240         n4      9    bbb     N1    240 0.03726400  14.010000   ; qtot 8.037273
  241         c3      9    bbb     C1    241 -0.07020100  12.010000   ; qtot 7.967072
  242         hx      9    bbb     H1    242 0.12219000   1.008000   ; qtot 8.089262
  243         hx      9    bbb     H2    243 0.12219000   1.008000   ; qtot 8.211452
  244         c3      9    bbb     C2    244 -0.07020100  12.010000   ; qtot 8.141251
  245         hx      9    bbb     H3    245 0.12219000   1.008000   ; qtot 8.263441
  246         hx      9    bbb     H4    246 0.12219000   1.008000   ; qtot 8.385631
  247         c3      9    bbb     C3    247 -0.39007700  12.010000   ; qtot 7.995554
  248         hx      9    bbb     H5    248 0.14940300   1.008000   ; qtot 8.144957
  249         hx      9    bbb     H6    249 0.14940300   1.008000   ; qtot 8.294360
  250         c3      9    bbb     C4    250 0.18057300  12.010000   ; qtot 8.474933
  251         hc      9    bbb     H7    251 0.01788900   1.008000   ; qtot 8.492822
  252         hc      9    bbb     H8    252 0.01788900   1.008000   ; qtot 8.510711
  253         c3      9    bbb     C5    253 -0.11337700  12.010000   ; qtot 8.397334
  254         hc      9    bbb     H9    254 0.09515400   1.008000   ; qtot 8.492488
  255         hc      9    bbb    H10    255 0.09515400   1.008000   ; qtot 8.587642
  256         c3      9    bbb     C6    256 -0.11337700  12.010000   ; qtot 8.474265
  257         hc      9    bbb    H11    257 0.09515400   1.008000   ; qtot 8.569419
  258         hc      9    bbb    H12    258 0.09515400   1.008000   ; qtot 8.664573
  259         c3      9    bbb     C7    259 0.21842400  12.010000   ; qtot 8.882997
  260         h1      9    bbb    H13    260 0.04500300   1.008000   ; qtot 8.928000
  261         h1      9    bbb    H14    261 0.04500300   1.008000   ; qtot 8.973003
  262         c3      9    bbb     C8    262 -0.06455200  12.010000   ; qtot 8.908451
  263         h1      9    bbb    H15    263 0.13554100   1.008000   ; qtot 9.043992
  264         h1      9    bbb    H16    264 0.13554100   1.008000   ; qtot 9.179533
  265         c3      9    bbb     C9    265 -0.06455200  12.010000   ; qtot 9.114981
  266         h1      9    bbb    H17    266 0.13554100   1.008000   ; qtot 9.250522
  267         h1      9    bbb    H18    267 0.13554100   1.008000   ; qtot 9.386063
  268         os      9    bbb     O1    268 -0.62587700  16.000000   ; qtot 8.760186
  269         hn      9    bbb    H19    269 0.23982500   1.008000   ; qtot 9.000011
; residue   10 bbb rtp bbb q 1.0
  270         n4     10    bbb     N1    270 0.03726400  14.010000   ; qtot 9.037275
  271         c3     10    bbb     C1    271 -0.07020100  12.010000   ; qtot 8.967074
  272         hx     10    bbb     H1    272 0.12219000   1.008000   ; qtot 9.089264
  273         hx     10    bbb     H2    273 0.12219000   1.008000   ; qtot 9.211454
  274         c3     10    bbb     C2    274 -0.07020100  12.010000   ; qtot 9.141253
  275         hx     10    bbb     H3    275 0.12219000   1.008000   ; qtot 9.263443
  276         hx     10    bbb     H4    276 0.12219000   1.008000   ; qtot 9.385633
  277         c3     10    bbb     C3    277 -0.39007700  12.010000   ; qtot 8.995556
  278         hx     10    bbb     H5    278 0.14940300   1.008000   ; qtot 9.144959
  279         hx     10    bbb     H6    279 0.14940300   1.008000   ; qtot 9.294362
  280         c3     10    bbb     C4    280 0.18057300  12.010000   ; qtot 9.474935
  281         hc     10    bbb     H7    281 0.01788900   1.008000   ; qtot 9.492824
  282         hc     10    bbb     H8    282 0.01788900   1.008000   ; qtot 9.510713
  283         c3     10    bbb     C5    283 -0.11337700  12.010000   ; qtot 9.397336
  284         hc     10    bbb     H9    284 0.09515400   1.008000   ; qtot 9.492490
  285         hc     10    bbb    H10    285 0.09515400   1.008000   ; qtot 9.587644
  286         c3     10    bbb     C6    286 -0.11337700  12.010000   ; qtot 9.474267
  287         hc     10    bbb    H11    287 0.09515400   1.008000   ; qtot 9.569421
  288         hc     10    bbb    H12    288 0.09515400   1.008000   ; qtot 9.664575
  289         c3     10    bbb     C7    289 0.21842400  12.010000   ; qtot 9.882999
  290         h1     10    bbb    H13    290 0.04500300   1.008000   ; qtot 9.928002
  291         h1     10    bbb    H14    291 0.04500300   1.008000   ; qtot 9.973005
  292         c3     10    bbb     C8    292 -0.06455200  12.010000   ; qtot 9.908453
  293         h1     10    bbb    H15    293 0.13554100   1.008000   ; qtot 10.043994
  294         h1     10    bbb    H16    294 0.13554100   1.008000   ; qtot 10.179535
  295         c3     10    bbb     C9    295 -0.06455200  12.010000   ; qtot 10.114983
  296         h1     10    bbb    H17    296 0.13554100   1.008000   ; qtot 10.250524
  297         h1     10    bbb    H18    297 0.13554100   1.008000   ; qtot 10.386065
  298         os     10    bbb     O1    298 -0.62587700  16.000000   ; qtot 9.760188
  299         hn     10    bbb    H19    299 0.23982500   1.008000   ; qtot 10.000013
; residue   11 ccc rtp ccc q 1.0
  300         c3     11    ccc     C1    300 0.14608100  12.010000   ; qtot 10.146094
  301         h1     11    ccc     H1    301 0.06738100   1.008000   ; qtot 10.213475
  302         h1     11    ccc     H2    302 0.06738100   1.008000   ; qtot 10.280856
  303         c3     11    ccc     C2    303 -0.14571900  12.010000   ; qtot 10.135137
  304         hc     11    ccc     H3    304 0.08688100   1.008000   ; qtot 10.222018
  305         hc     11    ccc     H4    305 0.08688100   1.008000   ; qtot 10.308899
  306         c3     11    ccc     C3    306 0.12348100  12.010000   ; qtot 10.432380
  307         hx     11    ccc     H5    307 0.10638100   1.008000   ; qtot 10.538761
  308         hx     11    ccc     H6    308 0.10638100   1.008000   ; qtot 10.645142
  309         n4     11    ccc     N1    309 -0.69071900  14.010000   ; qtot 9.954423
  310         c3     11    ccc     C4    310 0.12498100  12.010000   ; qtot 10.079404
  311         hx     11    ccc     H7    311 0.12238100   1.008000   ; qtot 10.201785
  312         hx     11    ccc     H8    312 0.12238100   1.008000   ; qtot 10.324166
  313         c3     11    ccc     C5    313 -0.20771900  12.010000   ; qtot 10.116447
  314         hc     11    ccc     H9    314 0.11463100   1.008000   ; qtot 10.231078
  315         hc     11    ccc    H10    315 0.11463100   1.008000   ; qtot 10.345709
  316          c     11    ccc     C6    316 0.64078100  12.010000   ; qtot 10.986490
  317          o     11    ccc     O1    317 -0.49231900  16.000000   ; qtot 10.494171
  318         oh     11    ccc     O2    318 -0.51841900  16.000000   ; qtot 9.975752
  319         ho     11    ccc    H11    319 0.45318100   1.008000   ; qtot 10.428933
  320         c3     11    ccc     C7    320 0.12498100  12.010000   ; qtot 10.553914
  321         hx     11    ccc    H12    321 0.12238100   1.008000   ; qtot 10.676295
  322         hx     11    ccc    H13    322 0.12238100   1.008000   ; qtot 10.798676
  323         c3     11    ccc     C8    323 -0.20771900  12.010000   ; qtot 10.590957
  324         hc     11    ccc    H14    324 0.11463100   1.008000   ; qtot 10.705588
  325         hc     11    ccc    H15    325 0.11463100   1.008000   ; qtot 10.820219
  326          c     11    ccc     C9    326 0.64078100  12.010000   ; qtot 11.461000
  327          o     11    ccc     O3    327 -0.49231900  16.000000   ; qtot 10.968681
  328         oh     11    ccc     O4    328 -0.51841900  16.000000   ; qtot 10.450262
  329         ho     11    ccc    H16    329 0.45318100   1.008000   ; qtot 10.903443
  330         os     11    ccc     O5    330 -0.39491900  16.000000   ; qtot 10.508524
  331         hn     11    ccc    H17    331 0.49148100   1.008000   ; qtot 11.000005
; residue   12 ccc rtp ccc q 1.0
  332         c3     12    ccc     C1    332 0.14608100  12.010000   ; qtot 11.146086
  333         h1     12    ccc     H1    333 0.06738100   1.008000   ; qtot 11.213467
  334         h1     12    ccc     H2    334 0.06738100   1.008000   ; qtot 11.280848
  335         c3     12    ccc     C2    335 -0.14571900  12.010000   ; qtot 11.135129
  336         hc     12    ccc     H3    336 0.08688100   1.008000   ; qtot 11.222010
  337         hc     12    ccc     H4    337 0.08688100   1.008000   ; qtot 11.308891
  338         c3     12    ccc     C3    338 0.12348100  12.010000   ; qtot 11.432372
  339         hx     12    ccc     H5    339 0.10638100   1.008000   ; qtot 11.538753
  340         hx     12    ccc     H6    340 0.10638100   1.008000   ; qtot 11.645134
  341         n4     12    ccc     N1    341 -0.69071900  14.010000   ; qtot 10.954415
  342         c3     12    ccc     C4    342 0.12498100  12.010000   ; qtot 11.079396
  343         hx     12    ccc     H7    343 0.12238100   1.008000   ; qtot 11.201777
  344         hx     12    ccc     H8    344 0.12238100   1.008000   ; qtot 11.324158
  345         c3     12    ccc     C5    345 -0.20771900  12.010000   ; qtot 11.116439
  346         hc     12    ccc     H9    346 0.11463100   1.008000   ; qtot 11.231070
  347         hc     12    ccc    H10    347 0.11463100   1.008000   ; qtot 11.345701
  348          c     12    ccc     C6    348 0.64078100  12.010000   ; qtot 11.986482
  349          o     12    ccc     O1    349 -0.49231900  16.000000   ; qtot 11.494163
  350         oh     12    ccc     O2    350 -0.51841900  16.000000   ; qtot 10.975744
  351         ho     12    ccc    H11    351 0.45318100   1.008000   ; qtot 11.428925
  352         c3     12    ccc     C7    352 0.12498100  12.010000   ; qtot 11.553906
  353         hx     12    ccc    H12    353 0.12238100   1.008000   ; qtot 11.676287
  354         hx     12    ccc    H13    354 0.12238100   1.008000   ; qtot 11.798668
  355         c3     12    ccc     C8    355 -0.20771900  12.010000   ; qtot 11.590949
  356         hc     12    ccc    H14    356 0.11463100   1.008000   ; qtot 11.705580
  357         hc     12    ccc    H15    357 0.11463100   1.008000   ; qtot 11.820211
  358          c     12    ccc     C9    358 0.64078100  12.010000   ; qtot 12.460992
  359          o     12    ccc     O3    359 -0.49231900  16.000000   ; qtot 11.968673
  360         oh     12    ccc     O4    360 -0.51841900  16.000000   ; qtot 11.450254
  361         ho     12    ccc    H16    361 0.45318100   1.008000   ; qtot 11.903435
  362         os     12    ccc     O5    362 -0.39491900  16.000000   ; qtot 11.508516
  363         hn     12    ccc    H17    363 0.49148100   1.008000   ; qtot 11.999997
; residue   13 ccc rtp ccc q 1.0
  364         c3     13    ccc     C1    364 0.14608100  12.010000   ; qtot 12.146078
  365         h1     13    ccc     H1    365 0.06738100   1.008000   ; qtot 12.213459
  366         h1     13    ccc     H2    366 0.06738100   1.008000   ; qtot 12.280840
  367         c3     13    ccc     C2    367 -0.14571900  12.010000   ; qtot 12.135121
  368         hc     13    ccc     H3    368 0.08688100   1.008000   ; qtot 12.222002
  369         hc     13    ccc     H4    369 0.08688100   1.008000   ; qtot 12.308883
  370         c3     13    ccc     C3    370 0.12348100  12.010000   ; qtot 12.432364
  371         hx     13    ccc     H5    371 0.10638100   1.008000   ; qtot 12.538745
  372         hx     13    ccc     H6    372 0.10638100   1.008000   ; qtot 12.645126
  373         n4     13    ccc     N1    373 -0.69071900  14.010000   ; qtot 11.954407
  374         c3     13    ccc     C4    374 0.12498100  12.010000   ; qtot 12.079388
  375         hx     13    ccc     H7    375 0.12238100   1.008000   ; qtot 12.201769
  376         hx     13    ccc     H8    376 0.12238100   1.008000   ; qtot 12.324150
  377         c3     13    ccc     C5    377 -0.20771900  12.010000   ; qtot 12.116431
  378         hc     13    ccc     H9    378 0.11463100   1.008000   ; qtot 12.231062
  379         hc     13    ccc    H10    379 0.11463100   1.008000   ; qtot 12.345693
  380          c     13    ccc     C6    380 0.64078100  12.010000   ; qtot 12.986474
  381          o     13    ccc     O1    381 -0.49231900  16.000000   ; qtot 12.494155
  382         oh     13    ccc     O2    382 -0.51841900  16.000000   ; qtot 11.975736
  383         ho     13    ccc    H11    383 0.45318100   1.008000   ; qtot 12.428917
  384         c3     13    ccc     C7    384 0.12498100  12.010000   ; qtot 12.553898
  385         hx     13    ccc    H12    385 0.12238100   1.008000   ; qtot 12.676279
  386         hx     13    ccc    H13    386 0.12238100   1.008000   ; qtot 12.798660
  387         c3     13    ccc     C8    387 -0.20771900  12.010000   ; qtot 12.590941
  388         hc     13    ccc    H14    388 0.11463100   1.008000   ; qtot 12.705572
  389         hc     13    ccc    H15    389 0.11463100   1.008000   ; qtot 12.820203
  390          c     13    ccc     C9    390 0.64078100  12.010000   ; qtot 13.460984
  391          o     13    ccc     O3    391 -0.49231900  16.000000   ; qtot 12.968665
  392         oh     13    ccc     O4    392 -0.51841900  16.000000   ; qtot 12.450246
  393         ho     13    ccc    H16    393 0.45318100   1.008000   ; qtot 12.903427
  394         os     13    ccc     O5    394 -0.39491900  16.000000   ; qtot 12.508508
  395         hn     13    ccc    H17    395 0.49148100   1.008000   ; qtot 12.999989
; residue   14 ccc rtp ccc q 1.0
  396         c3     14    ccc     C1    396 0.14608100  12.010000   ; qtot 13.146070
  397         h1     14    ccc     H1    397 0.06738100   1.008000   ; qtot 13.213451
  398         h1     14    ccc     H2    398 0.06738100   1.008000   ; qtot 13.280832
  399         c3     14    ccc     C2    399 -0.14571900  12.010000   ; qtot 13.135113
  400         hc     14    ccc     H3    400 0.08688100   1.008000   ; qtot 13.221994
  401         hc     14    ccc     H4    401 0.08688100   1.008000   ; qtot 13.308875
  402         c3     14    ccc     C3    402 0.12348100  12.010000   ; qtot 13.432356
  403         hx     14    ccc     H5    403 0.10638100   1.008000   ; qtot 13.538737
  404         hx     14    ccc     H6    404 0.10638100   1.008000   ; qtot 13.645118
  405         n4     14    ccc     N1    405 -0.69071900  14.010000   ; qtot 12.954399
  406         c3     14    ccc     C4    406 0.12498100  12.010000   ; qtot 13.079380
  407         hx     14    ccc     H7    407 0.12238100   1.008000   ; qtot 13.201761
  408         hx     14    ccc     H8    408 0.12238100   1.008000   ; qtot 13.324142
  409         c3     14    ccc     C5    409 -0.20771900  12.010000   ; qtot 13.116423
  410         hc     14    ccc     H9    410 0.11463100   1.008000   ; qtot 13.231054
  411         hc     14    ccc    H10    411 0.11463100   1.008000   ; qtot 13.345685
  412          c     14    ccc     C6    412 0.64078100  12.010000   ; qtot 13.986466
  413          o     14    ccc     O1    413 -0.49231900  16.000000   ; qtot 13.494147
  414         oh     14    ccc     O2    414 -0.51841900  16.000000   ; qtot 12.975728
  415         ho     14    ccc    H11    415 0.45318100   1.008000   ; qtot 13.428909
  416         c3     14    ccc     C7    416 0.12498100  12.010000   ; qtot 13.553890
  417         hx     14    ccc    H12    417 0.12238100   1.008000   ; qtot 13.676271
  418         hx     14    ccc    H13    418 0.12238100   1.008000   ; qtot 13.798652
  419         c3     14    ccc     C8    419 -0.20771900  12.010000   ; qtot 13.590933
  420         hc     14    ccc    H14    420 0.11463100   1.008000   ; qtot 13.705564
  421         hc     14    ccc    H15    421 0.11463100   1.008000   ; qtot 13.820195
  422          c     14    ccc     C9    422 0.64078100  12.010000   ; qtot 14.460976
  423          o     14    ccc     O3    423 -0.49231900  16.000000   ; qtot 13.968657
  424         oh     14    ccc     O4    424 -0.51841900  16.000000   ; qtot 13.450238
  425         ho     14    ccc    H16    425 0.45318100   1.008000   ; qtot 13.903419
  426         os     14    ccc     O5    426 -0.39491900  16.000000   ; qtot 13.508500
  427         hn     14    ccc    H17    427 0.49148100   1.008000   ; qtot 13.999981
; residue   15 ccc rtp ccc q 1.0
  428         c3     15    ccc     C1    428 0.14608100  12.010000   ; qtot 14.146062
  429         h1     15    ccc     H1    429 0.06738100   1.008000   ; qtot 14.213443
  430         h1     15    ccc     H2    430 0.06738100   1.008000   ; qtot 14.280824
  431         c3     15    ccc     C2    431 -0.14571900  12.010000   ; qtot 14.135105
  432         hc     15    ccc     H3    432 0.08688100   1.008000   ; qtot 14.221986
  433         hc     15    ccc     H4    433 0.08688100   1.008000   ; qtot 14.308867
  434         c3     15    ccc     C3    434 0.12348100  12.010000   ; qtot 14.432348
  435         hx     15    ccc     H5    435 0.10638100   1.008000   ; qtot 14.538729
  436         hx     15    ccc     H6    436 0.10638100   1.008000   ; qtot 14.645110
  437         n4     15    ccc     N1    437 -0.69071900  14.010000   ; qtot 13.954391
  438         c3     15    ccc     C4    438 0.12498100  12.010000   ; qtot 14.079372
  439         hx     15    ccc     H7    439 0.12238100   1.008000   ; qtot 14.201753
  440         hx     15    ccc     H8    440 0.12238100   1.008000   ; qtot 14.324134
  441         c3     15    ccc     C5    441 -0.20771900  12.010000   ; qtot 14.116415
  442         hc     15    ccc     H9    442 0.11463100   1.008000   ; qtot 14.231046
  443         hc     15    ccc    H10    443 0.11463100   1.008000   ; qtot 14.345677
  444          c     15    ccc     C6    444 0.64078100  12.010000   ; qtot 14.986458
  445          o     15    ccc     O1    445 -0.49231900  16.000000   ; qtot 14.494139
  446         oh     15    ccc     O2    446 -0.51841900  16.000000   ; qtot 13.975720
  447         ho     15    ccc    H11    447 0.45318100   1.008000   ; qtot 14.428901
  448         c3     15    ccc     C7    448 0.12498100  12.010000   ; qtot 14.553882
  449         hx     15    ccc    H12    449 0.12238100   1.008000   ; qtot 14.676263
  450         hx     15    ccc    H13    450 0.12238100   1.008000   ; qtot 14.798644
  451         c3     15    ccc     C8    451 -0.20771900  12.010000   ; qtot 14.590925
  452         hc     15    ccc    H14    452 0.11463100   1.008000   ; qtot 14.705556
  453         hc     15    ccc    H15    453 0.11463100   1.008000   ; qtot 14.820187
  454          c     15    ccc     C9    454 0.64078100  12.010000   ; qtot 15.460968
  455          o     15    ccc     O3    455 -0.49231900  16.000000   ; qtot 14.968649
  456         oh     15    ccc     O4    456 -0.51841900  16.000000   ; qtot 14.450230
  457         ho     15    ccc    H16    457 0.45318100   1.008000   ; qtot 14.903411
  458         os     15    ccc     O5    458 -0.39491900  16.000000   ; qtot 14.508492
  459         hn     15    ccc    H17    459 0.49148100   1.008000   ; qtot 14.999973
; residue   16 ccc rtp ccc q 1.0
  460         c3     16    ccc     C1    460 0.14608100  12.010000   ; qtot 15.146054
  461         h1     16    ccc     H1    461 0.06738100   1.008000   ; qtot 15.213435
  462         h1     16    ccc     H2    462 0.06738100   1.008000   ; qtot 15.280816
  463         c3     16    ccc     C2    463 -0.14571900  12.010000   ; qtot 15.135097
  464         hc     16    ccc     H3    464 0.08688100   1.008000   ; qtot 15.221978
  465         hc     16    ccc     H4    465 0.08688100   1.008000   ; qtot 15.308859
  466         c3     16    ccc     C3    466 0.12348100  12.010000   ; qtot 15.432340
  467         hx     16    ccc     H5    467 0.10638100   1.008000   ; qtot 15.538721
  468         hx     16    ccc     H6    468 0.10638100   1.008000   ; qtot 15.645102
  469         n4     16    ccc     N1    469 -0.69071900  14.010000   ; qtot 14.954383
  470         c3     16    ccc     C4    470 0.12498100  12.010000   ; qtot 15.079364
  471         hx     16    ccc     H7    471 0.12238100   1.008000   ; qtot 15.201745
  472         hx     16    ccc     H8    472 0.12238100   1.008000   ; qtot 15.324126
  473         c3     16    ccc     C5    473 -0.20771900  12.010000   ; qtot 15.116407
  474         hc     16    ccc     H9    474 0.11463100   1.008000   ; qtot 15.231038
  475         hc     16    ccc    H10    475 0.11463100   1.008000   ; qtot 15.345669
  476          c     16    ccc     C6    476 0.64078100  12.010000   ; qtot 15.986450
  477          o     16    ccc     O1    477 -0.49231900  16.000000   ; qtot 15.494131
  478         oh     16    ccc     O2    478 -0.51841900  16.000000   ; qtot 14.975712
  479         ho     16    ccc    H11    479 0.45318100   1.008000   ; qtot 15.428893
  480         c3     16    ccc     C7    480 0.12498100  12.010000   ; qtot 15.553874
  481         hx     16    ccc    H12    481 0.12238100   1.008000   ; qtot 15.676255
  482         hx     16    ccc    H13    482 0.12238100   1.008000   ; qtot 15.798636
  483         c3     16    ccc     C8    483 -0.20771900  12.010000   ; qtot 15.590917
  484         hc     16    ccc    H14    484 0.11463100   1.008000   ; qtot 15.705548
  485         hc     16    ccc    H15    485 0.11463100   1.008000   ; qtot 15.820179
  486          c     16    ccc     C9    486 0.64078100  12.010000   ; qtot 16.460960
  487          o     16    ccc     O3    487 -0.49231900  16.000000   ; qtot 15.968641
  488         oh     16    ccc     O4    488 -0.51841900  16.000000   ; qtot 15.450222
  489         ho     16    ccc    H16    489 0.45318100   1.008000   ; qtot 15.903403
  490         os     16    ccc     O5    490 -0.39491900  16.000000   ; qtot 15.508484
  491         hn     16    ccc    H17    491 0.49148100   1.008000   ; qtot 15.999965
; residue   17 ccc rtp ccc q 1.0
  492         c3     17    ccc     C1    492 0.14608100  12.010000   ; qtot 16.146046
  493         h1     17    ccc     H1    493 0.06738100   1.008000   ; qtot 16.213427
  494         h1     17    ccc     H2    494 0.06738100   1.008000   ; qtot 16.280808
  495         c3     17    ccc     C2    495 -0.14571900  12.010000   ; qtot 16.135089
  496         hc     17    ccc     H3    496 0.08688100   1.008000   ; qtot 16.221970
  497         hc     17    ccc     H4    497 0.08688100   1.008000   ; qtot 16.308851
  498         c3     17    ccc     C3    498 0.12348100  12.010000   ; qtot 16.432332
  499         hx     17    ccc     H5    499 0.10638100   1.008000   ; qtot 16.538713
  500         hx     17    ccc     H6    500 0.10638100   1.008000   ; qtot 16.645094
  501         n4     17    ccc     N1    501 -0.69071900  14.010000   ; qtot 15.954375
  502         c3     17    ccc     C4    502 0.12498100  12.010000   ; qtot 16.079356
  503         hx     17    ccc     H7    503 0.12238100   1.008000   ; qtot 16.201737
  504         hx     17    ccc     H8    504 0.12238100   1.008000   ; qtot 16.324118
  505         c3     17    ccc     C5    505 -0.20771900  12.010000   ; qtot 16.116399
  506         hc     17    ccc     H9    506 0.11463100   1.008000   ; qtot 16.231030
  507         hc     17    ccc    H10    507 0.11463100   1.008000   ; qtot 16.345661
  508          c     17    ccc     C6    508 0.64078100  12.010000   ; qtot 16.986442
  509          o     17    ccc     O1    509 -0.49231900  16.000000   ; qtot 16.494123
  510         oh     17    ccc     O2    510 -0.51841900  16.000000   ; qtot 15.975704
  511         ho     17    ccc    H11    511 0.45318100   1.008000   ; qtot 16.428885
  512         c3     17    ccc     C7    512 0.12498100  12.010000   ; qtot 16.553866
  513         hx     17    ccc    H12    513 0.12238100   1.008000   ; qtot 16.676247
  514         hx     17    ccc    H13    514 0.12238100   1.008000   ; qtot 16.798628
  515         c3     17    ccc     C8    515 -0.20771900  12.010000   ; qtot 16.590909
  516         hc     17    ccc    H14    516 0.11463100   1.008000   ; qtot 16.705540
  517         hc     17    ccc    H15    517 0.11463100   1.008000   ; qtot 16.820171
  518          c     17    ccc     C9    518 0.64078100  12.010000   ; qtot 17.460952
  519          o     17    ccc     O3    519 -0.49231900  16.000000   ; qtot 16.968633
  520         oh     17    ccc     O4    520 -0.51841900  16.000000   ; qtot 16.450214
  521         ho     17    ccc    H16    521 0.45318100   1.008000   ; qtot 16.903395
  522         os     17    ccc     O5    522 -0.39491900  16.000000   ; qtot 16.508476
  523         hn     17    ccc    H17    523 0.49148100   1.008000   ; qtot 16.999957
; residue   18 ccc rtp ccc q 1.0
  524         c3     18    ccc     C1    524 0.14608100  12.010000   ; qtot 17.146038
  525         h1     18    ccc     H1    525 0.06738100   1.008000   ; qtot 17.213419
  526         h1     18    ccc     H2    526 0.06738100   1.008000   ; qtot 17.280800
  527         c3     18    ccc     C2    527 -0.14571900  12.010000   ; qtot 17.135081
  528         hc     18    ccc     H3    528 0.08688100   1.008000   ; qtot 17.221962
  529         hc     18    ccc     H4    529 0.08688100   1.008000   ; qtot 17.308843
  530         c3     18    ccc     C3    530 0.12348100  12.010000   ; qtot 17.432324
  531         hx     18    ccc     H5    531 0.10638100   1.008000   ; qtot 17.538705
  532         hx     18    ccc     H6    532 0.10638100   1.008000   ; qtot 17.645086
  533         n4     18    ccc     N1    533 -0.69071900  14.010000   ; qtot 16.954367
  534         c3     18    ccc     C4    534 0.12498100  12.010000   ; qtot 17.079348
  535         hx     18    ccc     H7    535 0.12238100   1.008000   ; qtot 17.201729
  536         hx     18    ccc     H8    536 0.12238100   1.008000   ; qtot 17.324110
  537         c3     18    ccc     C5    537 -0.20771900  12.010000   ; qtot 17.116391
  538         hc     18    ccc     H9    538 0.11463100   1.008000   ; qtot 17.231022
  539         hc     18    ccc    H10    539 0.11463100   1.008000   ; qtot 17.345653
  540          c     18    ccc     C6    540 0.64078100  12.010000   ; qtot 17.986434
  541          o     18    ccc     O1    541 -0.49231900  16.000000   ; qtot 17.494115
  542         oh     18    ccc     O2    542 -0.51841900  16.000000   ; qtot 16.975696
  543         ho     18    ccc    H11    543 0.45318100   1.008000   ; qtot 17.428877
  544         c3     18    ccc     C7    544 0.12498100  12.010000   ; qtot 17.553858
  545         hx     18    ccc    H12    545 0.12238100   1.008000   ; qtot 17.676239
  546         hx     18    ccc    H13    546 0.12238100   1.008000   ; qtot 17.798620
  547         c3     18    ccc     C8    547 -0.20771900  12.010000   ; qtot 17.590901
  548         hc     18    ccc    H14    548 0.11463100   1.008000   ; qtot 17.705532
  549         hc     18    ccc    H15    549 0.11463100   1.008000   ; qtot 17.820163
  550          c     18    ccc     C9    550 0.64078100  12.010000   ; qtot 18.460944
  551          o     18    ccc     O3    551 -0.49231900  16.000000   ; qtot 17.968625
  552         oh     18    ccc     O4    552 -0.51841900  16.000000   ; qtot 17.450206
  553         ho     18    ccc    H16    553 0.45318100   1.008000   ; qtot 17.903387
  554         os     18    ccc     O5    554 -0.39491900  16.000000   ; qtot 17.508468
  555         hn     18    ccc    H17    555 0.49148100   1.008000   ; qtot 17.999949
; residue   19 ccc rtp ccc q 1.0
  556         c3     19    ccc     C1    556 0.14608100  12.010000   ; qtot 18.146030
  557         h1     19    ccc     H1    557 0.06738100   1.008000   ; qtot 18.213411
  558         h1     19    ccc     H2    558 0.06738100   1.008000   ; qtot 18.280792
  559         c3     19    ccc     C2    559 -0.14571900  12.010000   ; qtot 18.135073
  560         hc     19    ccc     H3    560 0.08688100   1.008000   ; qtot 18.221954
  561         hc     19    ccc     H4    561 0.08688100   1.008000   ; qtot 18.308835
  562         c3     19    ccc     C3    562 0.12348100  12.010000   ; qtot 18.432316
  563         hx     19    ccc     H5    563 0.10638100   1.008000   ; qtot 18.538697
  564         hx     19    ccc     H6    564 0.10638100   1.008000   ; qtot 18.645078
  565         n4     19    ccc     N1    565 -0.69071900  14.010000   ; qtot 17.954359
  566         c3     19    ccc     C4    566 0.12498100  12.010000   ; qtot 18.079340
  567         hx     19    ccc     H7    567 0.12238100   1.008000   ; qtot 18.201721
  568         hx     19    ccc     H8    568 0.12238100   1.008000   ; qtot 18.324102
  569         c3     19    ccc     C5    569 -0.20771900  12.010000   ; qtot 18.116383
  570         hc     19    ccc     H9    570 0.11463100   1.008000   ; qtot 18.231014
  571         hc     19    ccc    H10    571 0.11463100   1.008000   ; qtot 18.345645
  572          c     19    ccc     C6    572 0.64078100  12.010000   ; qtot 18.986426
  573          o     19    ccc     O1    573 -0.49231900  16.000000   ; qtot 18.494107
  574         oh     19    ccc     O2    574 -0.51841900  16.000000   ; qtot 17.975688
  575         ho     19    ccc    H11    575 0.45318100   1.008000   ; qtot 18.428869
  576         c3     19    ccc     C7    576 0.12498100  12.010000   ; qtot 18.553850
  577         hx     19    ccc    H12    577 0.12238100   1.008000   ; qtot 18.676231
  578         hx     19    ccc    H13    578 0.12238100   1.008000   ; qtot 18.798612
  579         c3     19    ccc     C8    579 -0.20771900  12.010000   ; qtot 18.590893
  580         hc     19    ccc    H14    580 0.11463100   1.008000   ; qtot 18.705524
  581         hc     19    ccc    H15    581 0.11463100   1.008000   ; qtot 18.820155
  582          c     19    ccc     C9    582 0.64078100  12.010000   ; qtot 19.460936
  583          o     19    ccc     O3    583 -0.49231900  16.000000   ; qtot 18.968617
  584         oh     19    ccc     O4    584 -0.51841900  16.000000   ; qtot 18.450198
  585         ho     19    ccc    H16    585 0.45318100   1.008000   ; qtot 18.903379
  586         os     19    ccc     O5    586 -0.39491900  16.000000   ; qtot 18.508460
  587         hn     19    ccc    H17    587 0.49148100   1.008000   ; qtot 18.999941
; residue   20 ccc rtp ccc q 1.0
  588         c3     20    ccc     C1    588 0.14608100  12.010000   ; qtot 19.146022
  589         h1     20    ccc     H1    589 0.06738100   1.008000   ; qtot 19.213403
  590         h1     20    ccc     H2    590 0.06738100   1.008000   ; qtot 19.280784
  591         c3     20    ccc     C2    591 -0.14571900  12.010000   ; qtot 19.135065
  592         hc     20    ccc     H3    592 0.08688100   1.008000   ; qtot 19.221946
  593         hc     20    ccc     H4    593 0.08688100   1.008000   ; qtot 19.308827
  594         c3     20    ccc     C3    594 0.12348100  12.010000   ; qtot 19.432308
  595         hx     20    ccc     H5    595 0.10638100   1.008000   ; qtot 19.538689
  596         hx     20    ccc     H6    596 0.10638100   1.008000   ; qtot 19.645070
  597         n4     20    ccc     N1    597 -0.69071900  14.010000   ; qtot 18.954351
  598         c3     20    ccc     C4    598 0.12498100  12.010000   ; qtot 19.079332
  599         hx     20    ccc     H7    599 0.12238100   1.008000   ; qtot 19.201713
  600         hx     20    ccc     H8    600 0.12238100   1.008000   ; qtot 19.324094
  601         c3     20    ccc     C5    601 -0.20771900  12.010000   ; qtot 19.116375
  602         hc     20    ccc     H9    602 0.11463100   1.008000   ; qtot 19.231006
  603         hc     20    ccc    H10    603 0.11463100   1.008000   ; qtot 19.345637
  604          c     20    ccc     C6    604 0.64078100  12.010000   ; qtot 19.986418
  605          o     20    ccc     O1    605 -0.49231900  16.000000   ; qtot 19.494099
  606         oh     20    ccc     O2    606 -0.51841900  16.000000   ; qtot 18.975680
  607         ho     20    ccc    H11    607 0.45318100   1.008000   ; qtot 19.428861
  608         c3     20    ccc     C7    608 0.12498100  12.010000   ; qtot 19.553842
  609         hx     20    ccc    H12    609 0.12238100   1.008000   ; qtot 19.676223
  610         hx     20    ccc    H13    610 0.12238100   1.008000   ; qtot 19.798604
  611         c3     20    ccc     C8    611 -0.20771900  12.010000   ; qtot 19.590885
  612         hc     20    ccc    H14    612 0.11463100   1.008000   ; qtot 19.705516
  613         hc     20    ccc    H15    613 0.11463100   1.008000   ; qtot 19.820147
  614          c     20    ccc     C9    614 0.64078100  12.010000   ; qtot 20.460928
  615          o     20    ccc     O3    615 -0.49231900  16.000000   ; qtot 19.968609
  616         oh     20    ccc     O4    616 -0.51841900  16.000000   ; qtot 19.450190
  617         ho     20    ccc    H16    617 0.45318100   1.008000   ; qtot 19.903371
  618         os     20    ccc     O5    618 -0.39491900  16.000000   ; qtot 19.508452
  619         hn     20    ccc    H17    619 0.49148100   1.008000   ; qtot 19.999933
; residue   21 ccc rtp ccc q 1.0
  620         c3     21    ccc     C1    620 0.14608100  12.010000   ; qtot 20.146014
  621         h1     21    ccc     H1    621 0.06738100   1.008000   ; qtot 20.213395
  622         h1     21    ccc     H2    622 0.06738100   1.008000   ; qtot 20.280776
  623         c3     21    ccc     C2    623 -0.14571900  12.010000   ; qtot 20.135057
  624         hc     21    ccc     H3    624 0.08688100   1.008000   ; qtot 20.221938
  625         hc     21    ccc     H4    625 0.08688100   1.008000   ; qtot 20.308819
  626         c3     21    ccc     C3    626 0.12348100  12.010000   ; qtot 20.432300
  627         hx     21    ccc     H5    627 0.10638100   1.008000   ; qtot 20.538681
  628         hx     21    ccc     H6    628 0.10638100   1.008000   ; qtot 20.645062
  629         n4     21    ccc     N1    629 -0.69071900  14.010000   ; qtot 19.954343
  630         c3     21    ccc     C4    630 0.12498100  12.010000   ; qtot 20.079324
  631         hx     21    ccc     H7    631 0.12238100   1.008000   ; qtot 20.201705
  632         hx     21    ccc     H8    632 0.12238100   1.008000   ; qtot 20.324086
  633         c3     21    ccc     C5    633 -0.20771900  12.010000   ; qtot 20.116367
  634         hc     21    ccc     H9    634 0.11463100   1.008000   ; qtot 20.230998
  635         hc     21    ccc    H10    635 0.11463100   1.008000   ; qtot 20.345629
  636          c     21    ccc     C6    636 0.64078100  12.010000   ; qtot 20.986410
  637          o     21    ccc     O1    637 -0.49231900  16.000000   ; qtot 20.494091
  638         oh     21    ccc     O2    638 -0.51841900  16.000000   ; qtot 19.975672
  639         ho     21    ccc    H11    639 0.45318100   1.008000   ; qtot 20.428853
  640         c3     21    ccc     C7    640 0.12498100  12.010000   ; qtot 20.553834
  641         hx     21    ccc    H12    641 0.12238100   1.008000   ; qtot 20.676215
  642         hx     21    ccc    H13    642 0.12238100   1.008000   ; qtot 20.798596
  643         c3     21    ccc     C8    643 -0.20771900  12.010000   ; qtot 20.590877
  644         hc     21    ccc    H14    644 0.11463100   1.008000   ; qtot 20.705508
  645         hc     21    ccc    H15    645 0.11463100   1.008000   ; qtot 20.820139
  646          c     21    ccc     C9    646 0.64078100  12.010000   ; qtot 21.460920
  647          o     21    ccc     O3    647 -0.49231900  16.000000   ; qtot 20.968601
  648         oh     21    ccc     O4    648 -0.51841900  16.000000   ; qtot 20.450182
  649         ho     21    ccc    H16    649 0.45318100   1.008000   ; qtot 20.903363
  650         os     21    ccc     O5    650 -0.39491900  16.000000   ; qtot 20.508444
  651         hn     21    ccc    H17    651 0.49148100   1.008000   ; qtot 20.999925
; residue   22 ccc rtp ccc q 1.0
  652         c3     22    ccc     C1    652 0.14608100  12.010000   ; qtot 21.146006
  653         h1     22    ccc     H1    653 0.06738100   1.008000   ; qtot 21.213387
  654         h1     22    ccc     H2    654 0.06738100   1.008000   ; qtot 21.280768
  655         c3     22    ccc     C2    655 -0.14571900  12.010000   ; qtot 21.135049
  656         hc     22    ccc     H3    656 0.08688100   1.008000   ; qtot 21.221930
  657         hc     22    ccc     H4    657 0.08688100   1.008000   ; qtot 21.308811
  658         c3     22    ccc     C3    658 0.12348100  12.010000   ; qtot 21.432292
  659         hx     22    ccc     H5    659 0.10638100   1.008000   ; qtot 21.538673
  660         hx     22    ccc     H6    660 0.10638100   1.008000   ; qtot 21.645054
  661         n4     22    ccc     N1    661 -0.69071900  14.010000   ; qtot 20.954335
  662         c3     22    ccc     C4    662 0.12498100  12.010000   ; qtot 21.079316
  663         hx     22    ccc     H7    663 0.12238100   1.008000   ; qtot 21.201697
  664         hx     22    ccc     H8    664 0.12238100   1.008000   ; qtot 21.324078
  665         c3     22    ccc     C5    665 -0.20771900  12.010000   ; qtot 21.116359
  666         hc     22    ccc     H9    666 0.11463100   1.008000   ; qtot 21.230990
  667         hc     22    ccc    H10    667 0.11463100   1.008000   ; qtot 21.345621
  668          c     22    ccc     C6    668 0.64078100  12.010000   ; qtot 21.986402
  669          o     22    ccc     O1    669 -0.49231900  16.000000   ; qtot 21.494083
  670         oh     22    ccc     O2    670 -0.51841900  16.000000   ; qtot 20.975664
  671         ho     22    ccc    H11    671 0.45318100   1.008000   ; qtot 21.428845
  672         c3     22    ccc     C7    672 0.12498100  12.010000   ; qtot 21.553826
  673         hx     22    ccc    H12    673 0.12238100   1.008000   ; qtot 21.676207
  674         hx     22    ccc    H13    674 0.12238100   1.008000   ; qtot 21.798588
  675         c3     22    ccc     C8    675 -0.20771900  12.010000   ; qtot 21.590869
  676         hc     22    ccc    H14    676 0.11463100   1.008000   ; qtot 21.705500
  677         hc     22    ccc    H15    677 0.11463100   1.008000   ; qtot 21.820131
  678          c     22    ccc     C9    678 0.64078100  12.010000   ; qtot 22.460912
  679          o     22    ccc     O3    679 -0.49231900  16.000000   ; qtot 21.968593
  680         oh     22    ccc     O4    680 -0.51841900  16.000000   ; qtot 21.450174
  681         ho     22    ccc    H16    681 0.45318100   1.008000   ; qtot 21.903355
  682         os     22    ccc     O5    682 -0.39491900  16.000000   ; qtot 21.508436
  683         hn     22    ccc    H17    683 0.49148100   1.008000   ; qtot 21.999917

[ bonds ]
;    ai     aj funct         c0         c1         c2         c3
      1      2     1   0.15110 237065.440000
      1      5     1   0.15110 237065.440000
      1      8     1   0.15110 237065.440000
      2     14     1   0.15375 251793.120000
      5     17     1   0.15375 251793.120000
      8     11     1   0.15375 251793.120000
     11     23     1   0.15375 251793.120000
     14     26     1   0.15375 251793.120000
     17     20     1   0.15375 251793.120000
     20     58     1   0.14316 258236.480000
     23     88     1   0.14316 258236.480000
     26    118     1   0.14316 258236.480000
     30     31     1   0.15110 237065.440000
     30     34     1   0.15110 237065.440000
     30     37     1   0.15110 237065.440000
     31     43     1   0.15375 251793.120000
     34     46     1   0.15375 251793.120000
     37     40     1   0.15375 251793.120000
     40     49     1   0.15375 251793.120000
     43     55     1   0.15375 251793.120000
     46     52     1   0.15375 251793.120000
     49     58     1   0.14316 258236.480000
     52    148     1   0.14316 258236.480000
     55    178     1   0.14316 258236.480000
     60     61     1   0.15110 237065.440000
     60     64     1   0.15110 237065.440000
     60     67     1   0.15110 237065.440000
     61     73     1   0.15375 251793.120000
     64     76     1   0.15375 251793.120000
     67     70     1   0.15375 251793.120000
     70     79     1   0.15375 251793.120000
     73     85     1   0.15375 251793.120000
     76     82     1   0.15375 251793.120000
     79     88     1   0.14316 258236.480000
     82    208     1   0.14316 258236.480000
     85    238     1   0.14316 258236.480000
     90     91     1   0.15110 237065.440000
     90     94     1   0.15110 237065.440000
     90     97     1   0.15110 237065.440000
     91    103     1   0.15375 251793.120000
     94    106     1   0.15375 251793.120000
     97    100     1   0.15375 251793.120000
    100    109     1   0.15375 251793.120000
    103    115     1   0.15375 251793.120000
    106    112     1   0.15375 251793.120000
    109    118     1   0.14316 258236.480000
    112    268     1   0.14316 258236.480000
    115    298     1   0.14316 258236.480000
    120    121     1   0.15110 237065.440000
    120    124     1   0.15110 237065.440000
    120    127     1   0.15110 237065.440000
    121    133     1   0.15375 251793.120000
    124    136     1   0.15375 251793.120000
    127    130     1   0.15375 251793.120000
    130    139     1   0.15375 251793.120000
    133    145     1   0.15375 251793.120000
    136    142     1   0.15375 251793.120000
    139    148     1   0.14316 258236.480000
    142    330     1   0.14316 258236.480000
    145    362     1   0.14316 258236.480000
    150    151     1   0.15110 237065.440000
    150    154     1   0.15110 237065.440000
    150    157     1   0.15110 237065.440000
    151    163     1   0.15375 251793.120000
    154    166     1   0.15375 251793.120000
    157    160     1   0.15375 251793.120000
    160    169     1   0.15375 251793.120000
    163    175     1   0.15375 251793.120000
    166    172     1   0.15375 251793.120000
    169    178     1   0.14316 258236.480000
    172    394     1   0.14316 258236.480000
    175    426     1   0.14316 258236.480000
    180    181     1   0.15110 237065.440000
    180    184     1   0.15110 237065.440000
    180    187     1   0.15110 237065.440000
    181    193     1   0.15375 251793.120000
    184    196     1   0.15375 251793.120000
    187    190     1   0.15375 251793.120000
    190    199     1   0.15375 251793.120000
    193    205     1   0.15375 251793.120000
    196    202     1   0.15375 251793.120000
    199    208     1   0.14316 258236.480000
    202    458     1   0.14316 258236.480000
    205    490     1   0.14316 258236.480000
    210    211     1   0.15110 237065.440000
    210    214     1   0.15110 237065.440000
    210    217     1   0.15110 237065.440000
    211    223     1   0.15375 251793.120000
    214    226     1   0.15375 251793.120000
    217    220     1   0.15375 251793.120000
    220    229     1   0.15375 251793.120000
    223    235     1   0.15375 251793.120000
    226    232     1   0.15375 251793.120000
    229    238     1   0.14316 258236.480000
    232    522     1   0.14316 258236.480000
    235    554     1   0.14316 258236.480000
    240    241     1   0.15110 237065.440000
    240    244     1   0.15110 237065.440000
    240    247     1   0.15110 237065.440000
    241    253     1   0.15375 251793.120000
    244    256     1   0.15375 251793.120000
    247    250     1   0.15375 251793.120000
    250    259     1   0.15375 251793.120000
    253    265     1   0.15375 251793.120000
    256    262     1   0.15375 251793.120000
    259    268     1   0.14316 258236.480000
    262    586     1   0.14316 258236.480000
    265    618     1   0.14316 258236.480000
    270    271     1   0.15110 237065.440000
    270    274     1   0.15110 237065.440000
    270    277     1   0.15110 237065.440000
    271    283     1   0.15375 251793.120000
    274    286     1   0.15375 251793.120000
    277    280     1   0.15375 251793.120000
    280    289     1   0.15375 251793.120000
    283    295     1   0.15375 251793.120000
    286    292     1   0.15375 251793.120000
    289    298     1   0.14316 258236.480000
    292    650     1   0.14316 258236.480000
    295    682     1   0.14316 258236.480000
    300    303     1   0.15375 251793.120000
    300    330     1   0.14316 258236.480000
    303    306     1   0.15375 251793.120000
    306    309     1   0.15110 237065.440000
    309    310     1   0.15110 237065.440000
    309    320     1   0.15110 237065.440000
    310    313     1   0.15375 251793.120000
    313    316     1   0.15241 261918.400000
    316    317     1   0.12183 533627.360000
    316    318     1   0.13513 334803.680000
    320    323     1   0.15375 251793.120000
    323    326     1   0.15241 261918.400000
    326    327     1   0.12183 533627.360000
    326    328     1   0.13513 334803.680000
    332    335     1   0.15375 251793.120000
    332    362     1   0.14316 258236.480000
    335    338     1   0.15375 251793.120000
    338    341     1   0.15110 237065.440000
    341    342     1   0.15110 237065.440000
    341    352     1   0.15110 237065.440000
    342    345     1   0.15375 251793.120000
    345    348     1   0.15241 261918.400000
    348    349     1   0.12183 533627.360000
    348    350     1   0.13513 334803.680000
    352    355     1   0.15375 251793.120000
    355    358     1   0.15241 261918.400000
    358    359     1   0.12183 533627.360000
    358    360     1   0.13513 334803.680000
    364    367     1   0.15375 251793.120000
    364    394     1   0.14316 258236.480000
    367    370     1   0.15375 251793.120000
    370    373     1   0.15110 237065.440000
    373    374     1   0.15110 237065.440000
    373    384     1   0.15110 237065.440000
    374    377     1   0.15375 251793.120000
    377    380     1   0.15241 261918.400000
    380    381     1   0.12183 533627.360000
    380    382     1   0.13513 334803.680000
    384    387     1   0.15375 251793.120000
    387    390     1   0.15241 261918.400000
    390    391     1   0.12183 533627.360000
    390    392     1   0.13513 334803.680000
    396    399     1   0.15375 251793.120000
    396    426     1   0.14316 258236.480000
    399    402     1   0.15375 251793.120000
    402    405     1   0.15110 237065.440000
    405    406     1   0.15110 237065.440000
    405    416     1   0.15110 237065.440000
    406    409     1   0.15375 251793.120000
    409    412     1   0.15241 261918.400000
    412    413     1   0.12183 533627.360000
    412    414     1   0.13513 334803.680000
    416    419     1   0.15375 251793.120000
    419    422     1   0.15241 261918.400000
    422    423     1   0.12183 533627.360000
    422    424     1   0.13513 334803.680000
    428    431     1   0.15375 251793.120000
    428    458     1   0.14316 258236.480000
    431    434     1   0.15375 251793.120000
    434    437     1   0.15110 237065.440000
    437    438     1   0.15110 237065.440000
    437    448     1   0.15110 237065.440000
    438    441     1   0.15375 251793.120000
    441    444     1   0.15241 261918.400000
    444    445     1   0.12183 533627.360000
    444    446     1   0.13513 334803.680000
    448    451     1   0.15375 251793.120000
    451    454     1   0.15241 261918.400000
    454    455     1   0.12183 533627.360000
    454    456     1   0.13513 334803.680000
    460    463     1   0.15375 251793.120000
    460    490     1   0.14316 258236.480000
    463    466     1   0.15375 251793.120000
    466    469     1   0.15110 237065.440000
    469    470     1   0.15110 237065.440000
    469    480     1   0.15110 237065.440000
    470    473     1   0.15375 251793.120000
    473    476     1   0.15241 261918.400000
    476    477     1   0.12183 533627.360000
    476    478     1   0.13513 334803.680000
    480    483     1   0.15375 251793.120000
    483    486     1   0.15241 261918.400000
    486    487     1   0.12183 533627.360000
    486    488     1   0.13513 334803.680000
    492    495     1   0.15375 251793.120000
    492    522     1   0.14316 258236.480000
    495    498     1   0.15375 251793.120000
    498    501     1   0.15110 237065.440000
    501    502     1   0.15110 237065.440000
    501    512     1   0.15110 237065.440000
    502    505     1   0.15375 251793.120000
    505    508     1   0.15241 261918.400000
    508    509     1   0.12183 533627.360000
    508    510     1   0.13513 334803.680000
    512    515     1   0.15375 251793.120000
    515    518     1   0.15241 261918.400000
    518    519     1   0.12183 533627.360000
    518    520     1   0.13513 334803.680000
    524    527     1   0.15375 251793.120000
    524    554     1   0.14316 258236.480000
    527    530     1   0.15375 251793.120000
    530    533     1   0.15110 237065.440000
    533    534     1   0.15110 237065.440000
    533    544     1   0.15110 237065.440000
    534    537     1   0.15375 251793.120000
    537    540     1   0.15241 261918.400000
    540    541     1   0.12183 533627.360000
    540    542     1   0.13513 334803.680000
    544    547     1   0.15375 251793.120000
    547    550     1   0.15241 261918.400000
    550    551     1   0.12183 533627.360000
    550    552     1   0.13513 334803.680000
    556    559     1   0.15375 251793.120000
    556    586     1   0.14316 258236.480000
    559    562     1   0.15375 251793.120000
    562    565     1   0.15110 237065.440000
    565    566     1   0.15110 237065.440000
    565    576     1   0.15110 237065.440000
    566    569     1   0.15375 251793.120000
    569    572     1   0.15241 261918.400000
    572    573     1   0.12183 533627.360000
    572    574     1   0.13513 334803.680000
    576    579     1   0.15375 251793.120000
    579    582     1   0.15241 261918.400000
    582    583     1   0.12183 533627.360000
    582    584     1   0.13513 334803.680000
    588    591     1   0.15375 251793.120000
    588    618     1   0.14316 258236.480000
    591    594     1   0.15375 251793.120000
    594    597     1   0.15110 237065.440000
    597    598     1   0.15110 237065.440000
    597    608     1   0.15110 237065.440000
    598    601     1   0.15375 251793.120000
    601    604     1   0.15241 261918.400000
    604    605     1   0.12183 533627.360000
    604    606     1   0.13513 334803.680000
    608    611     1   0.15375 251793.120000
    611    614     1   0.15241 261918.400000
    614    615     1   0.12183 533627.360000
    614    616     1   0.13513 334803.680000
    620    623     1   0.15375 251793.120000
    620    650     1   0.14316 258236.480000
    623    626     1   0.15375 251793.120000
    626    629     1   0.15110 237065.440000
    629    630     1   0.15110 237065.440000
    629    640     1   0.15110 237065.440000
    630    633     1   0.15375 251793.120000
    633    636     1   0.15241 261918.400000
    636    637     1   0.12183 533627.360000
    636    638     1   0.13513 334803.680000
    640    643     1   0.15375 251793.120000
    643    646     1   0.15241 261918.400000
    646    647     1   0.12183 533627.360000
    646    648     1   0.13513 334803.680000
    652    655     1   0.15375 251793.120000
    652    682     1   0.14316 258236.480000
    655    658     1   0.15375 251793.120000
    658    661     1   0.15110 237065.440000
    661    662     1   0.15110 237065.440000
    661    672     1   0.15110 237065.440000
    662    665     1   0.15375 251793.120000
    665    668     1   0.15241 261918.400000
    668    669     1   0.12183 533627.360000
    668    670     1   0.13513 334803.680000
    672    675     1   0.15375 251793.120000
    675    678     1   0.15241 261918.400000
    678    679     1   0.12183 533627.360000
    678    680     1   0.13513 334803.680000
      1     29     1   0.10304 312293.760000
      2      3     1   0.10910 283424.160000
      2      4     1   0.10910 283424.160000
      5      6     1   0.10910 283424.160000
      5      7     1   0.10910 283424.160000
      8      9     1   0.10910 283424.160000
      8     10     1   0.10910 283424.160000
     11     12     1   0.10969 276646.080000
     11     13     1   0.10969 276646.080000
     14     15     1   0.10969 276646.080000
     14     16     1   0.10969 276646.080000
     17     18     1   0.10969 276646.080000
     17     19     1   0.10969 276646.080000
     20     21     1   0.10969 276646.080000
     20     22     1   0.10969 276646.080000
     23     24     1   0.10969 276646.080000
     23     25     1   0.10969 276646.080000
     26     27     1   0.10969 276646.080000
     26     28     1   0.10969 276646.080000
     30     59     1   0.10304 312293.760000
     31     32     1   0.10910 283424.160000
     31     33     1   0.10910 283424.160000
     34     35     1   0.10910 283424.160000
     34     36     1   0.10910 283424.160000
     37     38     1   0.10910 283424.160000
     37     39     1   0.10910 283424.160000
     40     41     1   0.10969 276646.080000
     40     42     1   0.10969 276646.080000
     43     44     1   0.10969 276646.080000
     43     45     1   0.10969 276646.080000
     46     47     1   0.10969 276646.080000
     46     48     1   0.10969 276646.080000
     49     50     1   0.10969 276646.080000
     49     51     1   0.10969 276646.080000
     52     53     1   0.10969 276646.080000
     52     54     1   0.10969 276646.080000
     55     56     1   0.10969 276646.080000
     55     57     1   0.10969 276646.080000
     60     89     1   0.10304 312293.760000
     61     62     1   0.10910 283424.160000
     61     63     1   0.10910 283424.160000
     64     65     1   0.10910 283424.160000
     64     66     1   0.10910 283424.160000
     67     68     1   0.10910 283424.160000
     67     69     1   0.10910 283424.160000
     70     71     1   0.10969 276646.080000
     70     72     1   0.10969 276646.080000
     73     74     1   0.10969 276646.080000
     73     75     1   0.10969 276646.080000
     76     77     1   0.10969 276646.080000
     76     78     1   0.10969 276646.080000
     79     80     1   0.10969 276646.080000
     79     81     1   0.10969 276646.080000
     82     83     1   0.10969 276646.080000
     82     84     1   0.10969 276646.080000
     85     86     1   0.10969 276646.080000
     85     87     1   0.10969 276646.080000
     90    119     1   0.10304 312293.760000
     91     92     1   0.10910 283424.160000
     91     93     1   0.10910 283424.160000
     94     95     1   0.10910 283424.160000
     94     96     1   0.10910 283424.160000
     97     98     1   0.10910 283424.160000
     97     99     1   0.10910 283424.160000
    100    101     1   0.10969 276646.080000
    100    102     1   0.10969 276646.080000
    103    104     1   0.10969 276646.080000
    103    105     1   0.10969 276646.080000
    106    107     1   0.10969 276646.080000
    106    108     1   0.10969 276646.080000
    109    110     1   0.10969 276646.080000
    109    111     1   0.10969 276646.080000
    112    113     1   0.10969 276646.080000
    112    114     1   0.10969 276646.080000
    115    116     1   0.10969 276646.080000
    115    117     1   0.10969 276646.080000
    120    149     1   0.10304 312293.760000
    121    122     1   0.10910 283424.160000
    121    123     1   0.10910 283424.160000
    124    125     1   0.10910 283424.160000
    124    126     1   0.10910 283424.160000
    127    128     1   0.10910 283424.160000
    127    129     1   0.10910 283424.160000
    130    131     1   0.10969 276646.080000
    130    132     1   0.10969 276646.080000
    133    134     1   0.10969 276646.080000
    133    135     1   0.10969 276646.080000
    136    137     1   0.10969 276646.080000
    136    138     1   0.10969 276646.080000
    139    140     1   0.10969 276646.080000
    139    141     1   0.10969 276646.080000
    142    143     1   0.10969 276646.080000
    142    144     1   0.10969 276646.080000
    145    146     1   0.10969 276646.080000
    145    147     1   0.10969 276646.080000
    150    179     1   0.10304 312293.760000
    151    152     1   0.10910 283424.160000
    151    153     1   0.10910 283424.160000
    154    155     1   0.10910 283424.160000
    154    156     1   0.10910 283424.160000
    157    158     1   0.10910 283424.160000
    157    159     1   0.10910 283424.160000
    160    161     1   0.10969 276646.080000
    160    162     1   0.10969 276646.080000
    163    164     1   0.10969 276646.080000
    163    165     1   0.10969 276646.080000
    166    167     1   0.10969 276646.080000
    166    168     1   0.10969 276646.080000
    169    170     1   0.10969 276646.080000
    169    171     1   0.10969 276646.080000
    172    173     1   0.10969 276646.080000
    172    174     1   0.10969 276646.080000
    175    176     1   0.10969 276646.080000
    175    177     1   0.10969 276646.080000
    180    209     1   0.10304 312293.760000
    181    182     1   0.10910 283424.160000
    181    183     1   0.10910 283424.160000
    184    185     1   0.10910 283424.160000
    184    186     1   0.10910 283424.160000
    187    188     1   0.10910 283424.160000
    187    189     1   0.10910 283424.160000
    190    191     1   0.10969 276646.080000
    190    192     1   0.10969 276646.080000
    193    194     1   0.10969 276646.080000
    193    195     1   0.10969 276646.080000
    196    197     1   0.10969 276646.080000
    196    198     1   0.10969 276646.080000
    199    200     1   0.10969 276646.080000
    199    201     1   0.10969 276646.080000
    202    203     1   0.10969 276646.080000
    202    204     1   0.10969 276646.080000
    205    206     1   0.10969 276646.080000
    205    207     1   0.10969 276646.080000
    210    239     1   0.10304 312293.760000
    211    212     1   0.10910 283424.160000
    211    213     1   0.10910 283424.160000
    214    215     1   0.10910 283424.160000
    214    216     1   0.10910 283424.160000
    217    218     1   0.10910 283424.160000
    217    219     1   0.10910 283424.160000
    220    221     1   0.10969 276646.080000
    220    222     1   0.10969 276646.080000
    223    224     1   0.10969 276646.080000
    223    225     1   0.10969 276646.080000
    226    227     1   0.10969 276646.080000
    226    228     1   0.10969 276646.080000
    229    230     1   0.10969 276646.080000
    229    231     1   0.10969 276646.080000
    232    233     1   0.10969 276646.080000
    232    234     1   0.10969 276646.080000
    235    236     1   0.10969 276646.080000
    235    237     1   0.10969 276646.080000
    240    269     1   0.10304 312293.760000
    241    242     1   0.10910 283424.160000
    241    243     1   0.10910 283424.160000
    244    245     1   0.10910 283424.160000
    244    246     1   0.10910 283424.160000
    247    248     1   0.10910 283424.160000
    247    249     1   0.10910 283424.160000
    250    251     1   0.10969 276646.080000
    250    252     1   0.10969 276646.080000
    253    254     1   0.10969 276646.080000
    253    255     1   0.10969 276646.080000
    256    257     1   0.10969 276646.080000
    256    258     1   0.10969 276646.080000
    259    260     1   0.10969 276646.080000
    259    261     1   0.10969 276646.080000
    262    263     1   0.10969 276646.080000
    262    264     1   0.10969 276646.080000
    265    266     1   0.10969 276646.080000
    265    267     1   0.10969 276646.080000
    270    299     1   0.10304 312293.760000
    271    272     1   0.10910 283424.160000
    271    273     1   0.10910 283424.160000
    274    275     1   0.10910 283424.160000
    274    276     1   0.10910 283424.160000
    277    278     1   0.10910 283424.160000
    277    279     1   0.10910 283424.160000
    280    281     1   0.10969 276646.080000
    280    282     1   0.10969 276646.080000
    283    284     1   0.10969 276646.080000
    283    285     1   0.10969 276646.080000
    286    287     1   0.10969 276646.080000
    286    288     1   0.10969 276646.080000
    289    290     1   0.10969 276646.080000
    289    291     1   0.10969 276646.080000
    292    293     1   0.10969 276646.080000
    292    294     1   0.10969 276646.080000
    295    296     1   0.10969 276646.080000
    295    297     1   0.10969 276646.080000
    300    301     1   0.10969 276646.080000
    300    302     1   0.10969 276646.080000
    303    304     1   0.10969 276646.080000
    303    305     1   0.10969 276646.080000
    306    307     1   0.10910 283424.160000
    306    308     1   0.10910 283424.160000
    309    331     1   0.10304 312293.760000
    310    311     1   0.10910 283424.160000
    310    312     1   0.10910 283424.160000
    313    314     1   0.10969 276646.080000
    313    315     1   0.10969 276646.080000
    318    319     1   0.09730 310787.520000
    320    321     1   0.10910 283424.160000
    320    322     1   0.10910 283424.160000
    323    324     1   0.10969 276646.080000
    323    325     1   0.10969 276646.080000
    328    329     1   0.09730 310787.520000
    332    333     1   0.10969 276646.080000
    332    334     1   0.10969 276646.080000
    335    336     1   0.10969 276646.080000
    335    337     1   0.10969 276646.080000
    338    339     1   0.10910 283424.160000
    338    340     1   0.10910 283424.160000
    341    363     1   0.10304 312293.760000
    342    343     1   0.10910 283424.160000
    342    344     1   0.10910 283424.160000
    345    346     1   0.10969 276646.080000
    345    347     1   0.10969 276646.080000
    350    351     1   0.09730 310787.520000
    352    353     1   0.10910 283424.160000
    352    354     1   0.10910 283424.160000
    355    356     1   0.10969 276646.080000
    355    357     1   0.10969 276646.080000
    360    361     1   0.09730 310787.520000
    364    365     1   0.10969 276646.080000
    364    366     1   0.10969 276646.080000
    367    368     1   0.10969 276646.080000
    367    369     1   0.10969 276646.080000
    370    371     1   0.10910 283424.160000
    370    372     1   0.10910 283424.160000
    373    395     1   0.10304 312293.760000
    374    375     1   0.10910 283424.160000
    374    376     1   0.10910 283424.160000
    377    378     1   0.10969 276646.080000
    377    379     1   0.10969 276646.080000
    382    383     1   0.09730 310787.520000
    384    385     1   0.10910 283424.160000
    384    386     1   0.10910 283424.160000
    387    388     1   0.10969 276646.080000
    387    389     1   0.10969 276646.080000
    392    393     1   0.09730 310787.520000
    396    397     1   0.10969 276646.080000
    396    398     1   0.10969 276646.080000
    399    400     1   0.10969 276646.080000
    399    401     1   0.10969 276646.080000
    402    403     1   0.10910 283424.160000
    402    404     1   0.10910 283424.160000
    405    427     1   0.10304 312293.760000
    406    407     1   0.10910 283424.160000
    406    408     1   0.10910 283424.160000
    409    410     1   0.10969 276646.080000
    409    411     1   0.10969 276646.080000
    414    415     1   0.09730 310787.520000
    416    417     1   0.10910 283424.160000
    416    418     1   0.10910 283424.160000
    419    420     1   0.10969 276646.080000
    419    421     1   0.10969 276646.080000
    424    425     1   0.09730 310787.520000
    428    429     1   0.10969 276646.080000
    428    430     1   0.10969 276646.080000
    431    432     1   0.10969 276646.080000
    431    433     1   0.10969 276646.080000
    434    435     1   0.10910 283424.160000
    434    436     1   0.10910 283424.160000
    437    459     1   0.10304 312293.760000
    438    439     1   0.10910 283424.160000
    438    440     1   0.10910 283424.160000
    441    442     1   0.10969 276646.080000
    441    443     1   0.10969 276646.080000
    446    447     1   0.09730 310787.520000
    448    449     1   0.10910 283424.160000
    448    450     1   0.10910 283424.160000
    451    452     1   0.10969 276646.080000
    451    453     1   0.10969 276646.080000
    456    457     1   0.09730 310787.520000
    460    461     1   0.10969 276646.080000
    460    462     1   0.10969 276646.080000
    463    464     1   0.10969 276646.080000
    463    465     1   0.10969 276646.080000
    466    467     1   0.10910 283424.160000
    466    468     1   0.10910 283424.160000
    469    491     1   0.10304 312293.760000
    470    471     1   0.10910 283424.160000
    470    472     1   0.10910 283424.160000
    473    474     1   0.10969 276646.080000
    473    475     1   0.10969 276646.080000
    478    479     1   0.09730 310787.520000
    480    481     1   0.10910 283424.160000
    480    482     1   0.10910 283424.160000
    483    484     1   0.10969 276646.080000
    483    485     1   0.10969 276646.080000
    488    489     1   0.09730 310787.520000
    492    493     1   0.10969 276646.080000
    492    494     1   0.10969 276646.080000
    495    496     1   0.10969 276646.080000
    495    497     1   0.10969 276646.080000
    498    499     1   0.10910 283424.160000
    498    500     1   0.10910 283424.160000
    501    523     1   0.10304 312293.760000
    502    503     1   0.10910 283424.160000
    502    504     1   0.10910 283424.160000
    505    506     1   0.10969 276646.080000
    505    507     1   0.10969 276646.080000
    510    511     1   0.09730 310787.520000
    512    513     1   0.10910 283424.160000
    512    514     1   0.10910 283424.160000
    515    516     1   0.10969 276646.080000
    515    517     1   0.10969 276646.080000
    520    521     1   0.09730 310787.520000
    524    525     1   0.10969 276646.080000
    524    526     1   0.10969 276646.080000
    527    528     1   0.10969 276646.080000
    527    529     1   0.10969 276646.080000
    530    531     1   0.10910 283424.160000
    530    532     1   0.10910 283424.160000
    533    555     1   0.10304 312293.760000
    534    535     1   0.10910 283424.160000
    534    536     1   0.10910 283424.160000
    537    538     1   0.10969 276646.080000
    537    539     1   0.10969 276646.080000
    542    543     1   0.09730 310787.520000
    544    545     1   0.10910 283424.160000
    544    546     1   0.10910 283424.160000
    547    548     1   0.10969 276646.080000
    547    549     1   0.10969 276646.080000
    552    553     1   0.09730 310787.520000
    556    557     1   0.10969 276646.080000
    556    558     1   0.10969 276646.080000
    559    560     1   0.10969 276646.080000
    559    561     1   0.10969 276646.080000
    562    563     1   0.10910 283424.160000
    562    564     1   0.10910 283424.160000
    565    587     1   0.10304 312293.760000
    566    567     1   0.10910 283424.160000
    566    568     1   0.10910 283424.160000
    569    570     1   0.10969 276646.080000
    569    571     1   0.10969 276646.080000
    574    575     1   0.09730 310787.520000
    576    577     1   0.10910 283424.160000
    576    578     1   0.10910 283424.160000
    579    580     1   0.10969 276646.080000
    579    581     1   0.10969 276646.080000
    584    585     1   0.09730 310787.520000
    588    589     1   0.10969 276646.080000
    588    590     1   0.10969 276646.080000
    591    592     1   0.10969 276646.080000
    591    593     1   0.10969 276646.080000
    594    595     1   0.10910 283424.160000
    594    596     1   0.10910 283424.160000
    597    619     1   0.10304 312293.760000
    598    599     1   0.10910 283424.160000
    598    600     1   0.10910 283424.160000
    601    602     1   0.10969 276646.080000
    601    603     1   0.10969 276646.080000
    606    607     1   0.09730 310787.520000
    608    609     1   0.10910 283424.160000
    608    610     1   0.10910 283424.160000
    611    612     1   0.10969 276646.080000
    611    613     1   0.10969 276646.080000
    616    617     1   0.09730 310787.520000
    620    621     1   0.10969 276646.080000
    620    622     1   0.10969 276646.080000
    623    624     1   0.10969 276646.080000
    623    625     1   0.10969 276646.080000
    626    627     1   0.10910 283424.160000
    626    628     1   0.10910 283424.160000
    629    651     1   0.10304 312293.760000
    630    631     1   0.10910 283424.160000
    630    632     1   0.10910 283424.160000
    633    634     1   0.10969 276646.080000
    633    635     1   0.10969 276646.080000
    638    639     1   0.09730 310787.520000
    640    641     1   0.10910 283424.160000
    640    642     1   0.10910 283424.160000
    643    644     1   0.10969 276646.080000
    643    645     1   0.10969 276646.080000
    648    649     1   0.09730 310787.520000
    652    653     1   0.10969 276646.080000
    652    654     1   0.10969 276646.080000
    655    656     1   0.10969 276646.080000
    655    657     1   0.10969 276646.080000
    658    659     1   0.10910 283424.160000
    658    660     1   0.10910 283424.160000
    661    683     1   0.10304 312293.760000
    662    663     1   0.10910 283424.160000
    662    664     1   0.10910 283424.160000
    665    666     1   0.10969 276646.080000
    665    667     1   0.10969 276646.080000
    670    671     1   0.09730 310787.520000
    672    673     1   0.10910 283424.160000
    672    674     1   0.10910 283424.160000
    675    676     1   0.10969 276646.080000
    675    677     1   0.10969 276646.080000
    680    681     1   0.09730 310787.520000

[ pairs ]
;    ai     aj funct         c0         c1         c2         c3
      1     26     1
      1     20     1
      1     23     1
      2     17     1
      2     11     1
      2    118     1
      5     14     1
      5     11     1
      5     58     1
      8     14     1
      8     17     1
      8     88     1
     11     79     1
     14    109     1
     17     49     1
     20     40     1
     23     70     1
     26    100     1
     30     55     1
     30     52     1
     30     49     1
     31     46     1
     31     40     1
     31    178     1
     34     43     1
     34     40     1
     34    148     1
     37     43     1
     37     46     1
     37     58     1
     43    169     1
     46    139     1
     52    130     1
     55    160     1
     60     85     1
     60     82     1
     60     79     1
     61     76     1
     61     70     1
     61    238     1
     64     73     1
     64     70     1
     64    208     1
     67     73     1
     67     76     1
     67     88     1
     73    229     1
     76    199     1
     82    190     1
     85    220     1
     90    115     1
     90    112     1
     90    109     1
     91    106     1
     91    100     1
     91    298     1
     94    103     1
     94    100     1
     94    268     1
     97    103     1
     97    106     1
     97    118     1
    103    289     1
    106    259     1
    112    250     1
    115    280     1
    120    145     1
    120    142     1
    120    139     1
    121    136     1
    121    130     1
    121    362     1
    124    133     1
    124    130     1
    124    330     1
    127    133     1
    127    136     1
    127    148     1
    133    332     1
    136    300     1
    142    303     1
    145    335     1
    150    175     1
    150    172     1
    150    169     1
    151    166     1
    151    160     1
    151    426     1
    154    163     1
    154    160     1
    154    394     1
    157    163     1
    157    166     1
    157    178     1
    163    396     1
    166    364     1
    172    367     1
    175    399     1
    180    205     1
    180    202     1
    180    199     1
    181    196     1
    181    190     1
    181    490     1
    184    193     1
    184    190     1
    184    458     1
    187    193     1
    187    196     1
    187    208     1
    193    460     1
    196    428     1
    202    431     1
    205    463     1
    210    235     1
    210    232     1
    210    229     1
    211    226     1
    211    220     1
    211    554     1
    214    223     1
    214    220     1
    214    522     1
    217    223     1
    217    226     1
    217    238     1
    223    524     1
    226    492     1
    232    495     1
    235    527     1
    240    265     1
    240    262     1
    240    259     1
    241    256     1
    241    250     1
    241    618     1
    244    253     1
    244    250     1
    244    586     1
    247    253     1
    247    256     1
    247    268     1
    253    588     1
    256    556     1
    262    559     1
    265    591     1
    270    295     1
    270    292     1
    270    289     1
    271    286     1
    271    280     1
    271    682     1
    274    283     1
    274    280     1
    274    650     1
    277    283     1
    277    286     1
    277    298     1
    283    652     1
    286    620     1
    292    623     1
    295    655     1
    300    309     1
    303    310     1
    303    320     1
    306    330     1
    306    313     1
    306    323     1
    309    316     1
    309    326     1
    310    323     1
    310    317     1
    310    318     1
    313    320     1
    320    327     1
    320    328     1
    332    341     1
    335    342     1
    335    352     1
    338    345     1
    338    355     1
    338    362     1
    341    348     1
    341    358     1
    342    349     1
    342    350     1
    342    355     1
    345    352     1
    352    359     1
    352    360     1
    364    373     1
    367    374     1
    367    384     1
    370    394     1
    370    377     1
    370    387     1
    373    380     1
    373    390     1
    374    387     1
    374    381     1
    374    382     1
    377    384     1
    384    391     1
    384    392     1
    396    405     1
    399    406     1
    399    416     1
    402    409     1
    402    419     1
    402    426     1
    405    412     1
    405    422     1
    406    413     1
    406    414     1
    406    419     1
    409    416     1
    416    423     1
    416    424     1
    428    437     1
    431    438     1
    431    448     1
    434    458     1
    434    441     1
    434    451     1
    437    444     1
    437    454     1
    438    451     1
    438    445     1
    438    446     1
    441    448     1
    448    455     1
    448    456     1
    460    469     1
    463    470     1
    463    480     1
    466    473     1
    466    483     1
    466    490     1
    469    476     1
    469    486     1
    470    477     1
    470    478     1
    470    483     1
    473    480     1
    480    487     1
    480    488     1
    492    501     1
    495    502     1
    495    512     1
    498    522     1
    498    505     1
    498    515     1
    501    508     1
    501    518     1
    502    515     1
    502    509     1
    502    510     1
    505    512     1
    512    519     1
    512    520     1
    524    533     1
    527    534     1
    527    544     1
    530    537     1
    530    547     1
    530    554     1
    533    540     1
    533    550     1
    534    541     1
    534    542     1
    534    547     1
    537    544     1
    544    551     1
    544    552     1
    556    565     1
    559    566     1
    559    576     1
    562    586     1
    562    569     1
    562    579     1
    565    572     1
    565    582     1
    566    579     1
    566    573     1
    566    574     1
    569    576     1
    576    583     1
    576    584     1
    588    597     1
    591    598     1
    591    608     1
    594    601     1
    594    611     1
    594    618     1
    597    604     1
    597    614     1
    598    605     1
    598    606     1
    598    611     1
    601    608     1
    608    615     1
    608    616     1
    620    629     1
    623    630     1
    623    640     1
    626    650     1
    626    633     1
    626    643     1
    629    636     1
    629    646     1
    630    643     1
    630    637     1
    630    638     1
    633    640     1
    640    647     1
    640    648     1
    652    661     1
    655    662     1
    655    672     1
    658    665     1
    658    675     1
    658    682     1
    661    668     1
    661    678     1
    662    669     1
    662    670     1
    662    675     1
    665    672     1
    672    679     1
    672    680     1
      1     15     1
      1     16     1
      1     18     1
      1     19     1
      1     12     1
      1     13     1
      2      6     1
      2      7     1
      2      9     1
      2     10     1
      2     27     1
      2     28     1
      5      3     1
      8      3     1
     29      3     1
      3     26     1
      3     15     1
      3     16     1
      5      4     1
      8      4     1
     29      4     1
      4     26     1
      4     15     1
      4     16     1
      5      9     1
      5     10     1
      5     21     1
      5     22     1
      8      6     1
     29      6     1
      6     20     1
      6     18     1
      6     19     1
      8      7     1
     29      7     1
      7     20     1
      7     18     1
      7     19     1
      8     24     1
      8     25     1
     29      9     1
      9     23     1
      9     12     1
      9     13     1
     29     10     1
     10     23     1
     10     12     1
     10     13     1
     29     11     1
     12     88     1
     12     24     1
     12     25     1
     13     88     1
     13     24     1
     13     25     1
     29     14     1
     15    118     1
     15     27     1
     15     28     1
     16    118     1
     16     27     1
     16     28     1
     29     17     1
     18     58     1
     18     21     1
     18     22     1
     19     58     1
     19     21     1
     19     22     1
     20     50     1
     20     51     1
     21     49     1
     22     49     1
     23     80     1
     23     81     1
     24     79     1
     25     79     1
     26    110     1
     26    111     1
     27    109     1
     28    109     1
     30     44     1
     30     45     1
     30     47     1
     30     48     1
     30     41     1
     30     42     1
     31     35     1
     31     36     1
     31     38     1
     31     39     1
     31     56     1
     31     57     1
     32     34     1
     32     37     1
     32     59     1
     32     55     1
     32     44     1
     32     45     1
     33     34     1
     33     37     1
     33     59     1
     33     55     1
     33     44     1
     33     45     1
     34     38     1
     34     39     1
     34     53     1
     34     54     1
     35     37     1
     35     59     1
     35     52     1
     35     47     1
     35     48     1
     36     37     1
     36     59     1
     36     52     1
     36     47     1
     36     48     1
     37     50     1
     37     51     1
     38     59     1
     38     49     1
     38     41     1
     38     42     1
     39     59     1
     39     49     1
     39     41     1
     39     42     1
     40     59     1
     41     58     1
     41     50     1
     41     51     1
     42     58     1
     42     50     1
     42     51     1
     43     59     1
     44    178     1
     44     56     1
     44     57     1
     45    178     1
     45     56     1
     45     57     1
     46     59     1
     47    148     1
     47     53     1
     47     54     1
     48    148     1
     48     53     1
     48     54     1
     52    140     1
     52    141     1
     53    139     1
     54    139     1
     55    170     1
     55    171     1
     56    169     1
     57    169     1
     60     74     1
     60     75     1
     60     77     1
     60     78     1
     60     71     1
     60     72     1
     61     65     1
     61     66     1
     61     68     1
     61     69     1
     61     86     1
     61     87     1
     62     64     1
     62     67     1
     62     89     1
     62     85     1
     62     74     1
     62     75     1
     63     64     1
     63     67     1
     63     89     1
     63     85     1
     63     74     1
     63     75     1
     64     68     1
     64     69     1
     64     83     1
     64     84     1
     65     67     1
     65     89     1
     65     82     1
     65     77     1
     65     78     1
     66     67     1
     66     89     1
     66     82     1
     66     77     1
     66     78     1
     67     80     1
     67     81     1
     68     89     1
     68     79     1
     68     71     1
     68     72     1
     69     89     1
     69     79     1
     69     71     1
     69     72     1
     70     89     1
     71     88     1
     71     80     1
     71     81     1
     72     88     1
     72     80     1
     72     81     1
     73     89     1
     74    238     1
     74     86     1
     74     87     1
     75    238     1
     75     86     1
     75     87     1
     76     89     1
     77    208     1
     77     83     1
     77     84     1
     78    208     1
     78     83     1
     78     84     1
     82    200     1
     82    201     1
     83    199     1
     84    199     1
     85    230     1
     85    231     1
     86    229     1
     87    229     1
     90    104     1
     90    105     1
     90    107     1
     90    108     1
     90    101     1
     90    102     1
     91     95     1
     91     96     1
     91     98     1
     91     99     1
     91    116     1
     91    117     1
     92     94     1
     92     97     1
     92    119     1
     92    115     1
     92    104     1
     92    105     1
     93     94     1
     93     97     1
     93    119     1
     93    115     1
     93    104     1
     93    105     1
     94     98     1
     94     99     1
     94    113     1
     94    114     1
     95     97     1
     95    119     1
     95    112     1
     95    107     1
     95    108     1
     96     97     1
     96    119     1
     96    112     1
     96    107     1
     96    108     1
     97    110     1
     97    111     1
     98    119     1
     98    109     1
     98    101     1
     98    102     1
     99    119     1
     99    109     1
     99    101     1
     99    102     1
    100    119     1
    101    118     1
    101    110     1
    101    111     1
    102    118     1
    102    110     1
    102    111     1
    103    119     1
    104    298     1
    104    116     1
    104    117     1
    105    298     1
    105    116     1
    105    117     1
    106    119     1
    107    268     1
    107    113     1
    107    114     1
    108    268     1
    108    113     1
    108    114     1
    112    260     1
    112    261     1
    113    259     1
    114    259     1
    115    290     1
    115    291     1
    116    289     1
    117    289     1
    120    134     1
    120    135     1
    120    137     1
    120    138     1
    120    131     1
    120    132     1
    121    125     1
    121    126     1
    121    128     1
    121    129     1
    121    146     1
    121    147     1
    122    124     1
    122    127     1
    122    149     1
    122    145     1
    122    134     1
    122    135     1
    123    124     1
    123    127     1
    123    149     1
    123    145     1
    123    134     1
    123    135     1
    124    128     1
    124    129     1
    124    143     1
    124    144     1
    125    127     1
    125    149     1
    125    142     1
    125    137     1
    125    138     1
    126    127     1
    126    149     1
    126    142     1
    126    137     1
    126    138     1
    127    140     1
    127    141     1
    128    149     1
    128    139     1
    128    131     1
    128    132     1
    129    149     1
    129    139     1
    129    131     1
    129    132     1
    130    149     1
    131    148     1
    131    140     1
    131    141     1
    132    148     1
    132    140     1
    132    141     1
    133    149     1
    134    362     1
    134    146     1
    134    147     1
    135    362     1
    135    146     1
    135    147     1
    136    149     1
    137    330     1
    137    143     1
    137    144     1
    138    330     1
    138    143     1
    138    144     1
    142    301     1
    142    302     1
    143    300     1
    144    300     1
    145    333     1
    145    334     1
    146    332     1
    147    332     1
    150    164     1
    150    165     1
    150    167     1
    150    168     1
    150    161     1
    150    162     1
    151    155     1
    151    156     1
    151    158     1
    151    159     1
    151    176     1
    151    177     1
    152    154     1
    152    157     1
    152    179     1
    152    175     1
    152    164     1
    152    165     1
    153    154     1
    153    157     1
    153    179     1
    153    175     1
    153    164     1
    153    165     1
    154    158     1
    154    159     1
    154    173     1
    154    174     1
    155    157     1
    155    179     1
    155    172     1
    155    167     1
    155    168     1
    156    157     1
    156    179     1
    156    172     1
    156    167     1
    156    168     1
    157    170     1
    157    171     1
    158    179     1
    158    169     1
    158    161     1
    158    162     1
    159    179     1
    159    169     1
    159    161     1
    159    162     1
    160    179     1
    161    178     1
    161    170     1
    161    171     1
    162    178     1
    162    170     1
    162    171     1
    163    179     1
    164    426     1
    164    176     1
    164    177     1
    165    426     1
    165    176     1
    165    177     1
    166    179     1
    167    394     1
    167    173     1
    167    174     1
    168    394     1
    168    173     1
    168    174     1
    172    365     1
    172    366     1
    173    364     1
    174    364     1
    175    397     1
    175    398     1
    176    396     1
    177    396     1
    180    194     1
    180    195     1
    180    197     1
    180    198     1
    180    191     1
    180    192     1
    181    185     1
    181    186     1
    181    188     1
    181    189     1
    181    206     1
    181    207     1
    182    184     1
    182    187     1
    182    209     1
    182    205     1
    182    194     1
    182    195     1
    183    184     1
    183    187     1
    183    209     1
    183    205     1
    183    194     1
    183    195     1
    184    188     1
    184    189     1
    184    203     1
    184    204     1
    185    187     1
    185    209     1
    185    202     1
    185    197     1
    185    198     1
    186    187     1
    186    209     1
    186    202     1
    186    197     1
    186    198     1
    187    200     1
    187    201     1
    188    209     1
    188    199     1
    188    191     1
    188    192     1
    189    209     1
    189    199     1
    189    191     1
    189    192     1
    190    209     1
    191    208     1
    191    200     1
    191    201     1
    192    208     1
    192    200     1
    192    201     1
    193    209     1
    194    490     1
    194    206     1
    194    207     1
    195    490     1
    195    206     1
    195    207     1
    196    209     1
    197    458     1
    197    203     1
    197    204     1
    198    458     1
    198    203     1
    198    204     1
    202    429     1
    202    430     1
    203    428     1
    204    428     1
    205    461     1
    205    462     1
    206    460     1
    207    460     1
    210    224     1
    210    225     1
    210    227     1
    210    228     1
    210    221     1
    210    222     1
    211    215     1
    211    216     1
    211    218     1
    211    219     1
    211    236     1
    211    237     1
    212    214     1
    212    217     1
    212    239     1
    212    235     1
    212    224     1
    212    225     1
    213    214     1
    213    217     1
    213    239     1
    213    235     1
    213    224     1
    213    225     1
    214    218     1
    214    219     1
    214    233     1
    214    234     1
    215    217     1
    215    239     1
    215    232     1
    215    227     1
    215    228     1
    216    217     1
    216    239     1
    216    232     1
    216    227     1
    216    228     1
    217    230     1
    217    231     1
    218    239     1
    218    229     1
    218    221     1
    218    222     1
    219    239     1
    219    229     1
    219    221     1
    219    222     1
    220    239     1
    221    238     1
    221    230     1
    221    231     1
    222    238     1
    222    230     1
    222    231     1
    223    239     1
    224    554     1
    224    236     1
    224    237     1
    225    554     1
    225    236     1
    225    237     1
    226    239     1
    227    522     1
    227    233     1
    227    234     1
    228    522     1
    228    233     1
    228    234     1
    232    493     1
    232    494     1
    233    492     1
    234    492     1
    235    525     1
    235    526     1
    236    524     1
    237    524     1
    240    254     1
    240    255     1
    240    257     1
    240    258     1
    240    251     1
    240    252     1
    241    245     1
    241    246     1
    241    248     1
    241    249     1
    241    266     1
    241    267     1
    242    244     1
    242    247     1
    242    269     1
    242    265     1
    242    254     1
    242    255     1
    243    244     1
    243    247     1
    243    269     1
    243    265     1
    243    254     1
    243    255     1
    244    248     1
    244    249     1
    244    263     1
    244    264     1
    245    247     1
    245    269     1
    245    262     1
    245    257     1
    245    258     1
    246    247     1
    246    269     1
    246    262     1
    246    257     1
    246    258     1
    247    260     1
    247    261     1
    248    269     1
    248    259     1
    248    251     1
    248    252     1
    249    269     1
    249    259     1
    249    251     1
    249    252     1
    250    269     1
    251    268     1
    251    260     1
    251    261     1
    252    268     1
    252    260     1
    252    261     1
    253    269     1
    254    618     1
    254    266     1
    254    267     1
    255    618     1
    255    266     1
    255    267     1
    256    269     1
    257    586     1
    257    263     1
    257    264     1
    258    586     1
    258    263     1
    258    264     1
    262    557     1
    262    558     1
    263    556     1
    264    556     1
    265    589     1
    265    590     1
    266    588     1
    267    588     1
    270    284     1
    270    285     1
    270    287     1
    270    288     1
    270    281     1
    270    282     1
    271    275     1
    271    276     1
    271    278     1
    271    279     1
    271    296     1
    271    297     1
    272    274     1
    272    277     1
    272    299     1
    272    295     1
    272    284     1
    272    285     1
    273    274     1
    273    277     1
    273    299     1
    273    295     1
    273    284     1
    273    285     1
    274    278     1
    274    279     1
    274    293     1
    274    294     1
    275    277     1
    275    299     1
    275    292     1
    275    287     1
    275    288     1
    276    277     1
    276    299     1
    276    292     1
    276    287     1
    276    288     1
    277    290     1
    277    291     1
    278    299     1
    278    289     1
    278    281     1
    278    282     1
    279    299     1
    279    289     1
    279    281     1
    279    282     1
    280    299     1
    281    298     1
    281    290     1
    281    291     1
    282    298     1
    282    290     1
    282    291     1
    283    299     1
    284    682     1
    284    296     1
    284    297     1
    285    682     1
    285    296     1
    285    297     1
    286    299     1
    287    650     1
    287    293     1
    287    294     1
    288    650     1
    288    293     1
    288    294     1
    292    621     1
    292    622     1
    293    620     1
    294    620     1
    295    653     1
    295    654     1
    296    652     1
    297    652     1
    300    307     1
    300    308     1
    301    306     1
    301    304     1
    301    305     1
    302    306     1
    302    304     1
    302    305     1
    303    331     1
    304    330     1
    304    309     1
    304    307     1
    304    308     1
    305    330     1
    305    309     1
    305    307     1
    305    308     1
    306    311     1
    306    312     1
    306    321     1
    306    322     1
    307    310     1
    307    320     1
    307    331     1
    308    310     1
    308    320     1
    308    331     1
    309    314     1
    309    315     1
    309    324     1
    309    325     1
    310    321     1
    310    322     1
    311    320     1
    311    331     1
    311    316     1
    311    314     1
    311    315     1
    312    320     1
    312    331     1
    312    316     1
    312    314     1
    312    315     1
    313    331     1
    313    319     1
    314    317     1
    314    318     1
    315    317     1
    315    318     1
    317    319     1
    321    331     1
    321    326     1
    321    324     1
    321    325     1
    322    331     1
    322    326     1
    322    324     1
    322    325     1
    323    331     1
    323    329     1
    324    327     1
    324    328     1
    325    327     1
    325    328     1
    327    329     1
    332    339     1
    332    340     1
    333    338     1
    333    336     1
    333    337     1
    334    338     1
    334    336     1
    334    337     1
    335    363     1
    336    341     1
    336    339     1
    336    340     1
    336    362     1
    337    341     1
    337    339     1
    337    340     1
    337    362     1
    338    343     1
    338    344     1
    338    353     1
    338    354     1
    339    342     1
    339    352     1
    339    363     1
    340    342     1
    340    352     1
    340    363     1
    341    346     1
    341    347     1
    341    356     1
    341    357     1
    342    353     1
    342    354     1
    343    348     1
    343    346     1
    343    347     1
    343    352     1
    343    363     1
    344    348     1
    344    346     1
    344    347     1
    344    352     1
    344    363     1
    345    351     1
    345    363     1
    346    349     1
    346    350     1
    347    349     1
    347    350     1
    349    351     1
    353    358     1
    353    356     1
    353    357     1
    353    363     1
    354    358     1
    354    356     1
    354    357     1
    354    363     1
    355    361     1
    355    363     1
    356    359     1
    356    360     1
    357    359     1
    357    360     1
    359    361     1
    364    371     1
    364    372     1
    365    370     1
    365    368     1
    365    369     1
    366    370     1
    366    368     1
    366    369     1
    367    395     1
    368    394     1
    368    373     1
    368    371     1
    368    372     1
    369    394     1
    369    373     1
    369    371     1
    369    372     1
    370    375     1
    370    376     1
    370    385     1
    370    386     1
    371    374     1
    371    384     1
    371    395     1
    372    374     1
    372    384     1
    372    395     1
    373    378     1
    373    379     1
    373    388     1
    373    389     1
    374    385     1
    374    386     1
    375    384     1
    375    395     1
    375    380     1
    375    378     1
    375    379     1
    376    384     1
    376    395     1
    376    380     1
    376    378     1
    376    379     1
    377    395     1
    377    383     1
    378    381     1
    378    382     1
    379    381     1
    379    382     1
    381    383     1
    385    395     1
    385    390     1
    385    388     1
    385    389     1
    386    395     1
    386    390     1
    386    388     1
    386    389     1
    387    395     1
    387    393     1
    388    391     1
    388    392     1
    389    391     1
    389    392     1
    391    393     1
    396    403     1
    396    404     1
    397    402     1
    397    400     1
    397    401     1
    398    402     1
    398    400     1
    398    401     1
    399    427     1
    400    405     1
    400    403     1
    400    404     1
    400    426     1
    401    405     1
    401    403     1
    401    404     1
    401    426     1
    402    407     1
    402    408     1
    402    417     1
    402    418     1
    403    406     1
    403    416     1
    403    427     1
    404    406     1
    404    416     1
    404    427     1
    405    410     1
    405    411     1
    405    420     1
    405    421     1
    406    417     1
    406    418     1
    407    412     1
    407    410     1
    407    411     1
    407    416     1
    407    427     1
    408    412     1
    408    410     1
    408    411     1
    408    416     1
    408    427     1
    409    415     1
    409    427     1
    410    413     1
    410    414     1
    411    413     1
    411    414     1
    413    415     1
    417    422     1
    417    420     1
    417    421     1
    417    427     1
    418    422     1
    418    420     1
    418    421     1
    418    427     1
    419    425     1
    419    427     1
    420    423     1
    420    424     1
    421    423     1
    421    424     1
    423    425     1
    428    435     1
    428    436     1
    429    434     1
    429    432     1
    429    433     1
    430    434     1
    430    432     1
    430    433     1
    431    459     1
    432    458     1
    432    437     1
    432    435     1
    432    436     1
    433    458     1
    433    437     1
    433    435     1
    433    436     1
    434    439     1
    434    440     1
    434    449     1
    434    450     1
    435    438     1
    435    448     1
    435    459     1
    436    438     1
    436    448     1
    436    459     1
    437    442     1
    437    443     1
    437    452     1
    437    453     1
    438    449     1
    438    450     1
    439    448     1
    439    459     1
    439    444     1
    439    442     1
    439    443     1
    440    448     1
    440    459     1
    440    444     1
    440    442     1
    440    443     1
    441    459     1
    441    447     1
    442    445     1
    442    446     1
    443    445     1
    443    446     1
    445    447     1
    449    459     1
    449    454     1
    449    452     1
    449    453     1
    450    459     1
    450    454     1
    450    452     1
    450    453     1
    451    459     1
    451    457     1
    452    455     1
    452    456     1
    453    455     1
    453    456     1
    455    457     1
    460    467     1
    460    468     1
    461    466     1
    461    464     1
    461    465     1
    462    466     1
    462    464     1
    462    465     1
    463    491     1
    464    469     1
    464    467     1
    464    468     1
    464    490     1
    465    469     1
    465    467     1
    465    468     1
    465    490     1
    466    471     1
    466    472     1
    466    481     1
    466    482     1
    467    470     1
    467    480     1
    467    491     1
    468    470     1
    468    480     1
    468    491     1
    469    474     1
    469    475     1
    469    484     1
    469    485     1
    470    481     1
    470    482     1
    471    476     1
    471    474     1
    471    475     1
    471    480     1
    471    491     1
    472    476     1
    472    474     1
    472    475     1
    472    480     1
    472    491     1
    473    479     1
    473    491     1
    474    477     1
    474    478     1
    475    477     1
    475    478     1
    477    479     1
    481    486     1
    481    484     1
    481    485     1
    481    491     1
    482    486     1
    482    484     1
    482    485     1
    482    491     1
    483    489     1
    483    491     1
    484    487     1
    484    488     1
    485    487     1
    485    488     1
    487    489     1
    492    499     1
    492    500     1
    493    498     1
    493    496     1
    493    497     1
    494    498     1
    494    496     1
    494    497     1
    495    523     1
    496    522     1
    496    501     1
    496    499     1
    496    500     1
    497    522     1
    497    501     1
    497    499     1
    497    500     1
    498    503     1
    498    504     1
    498    513     1
    498    514     1
    499    502     1
    499    512     1
    499    523     1
    500    502     1
    500    512     1
    500    523     1
    501    506     1
    501    507     1
    501    516     1
    501    517     1
    502    513     1
    502    514     1
    503    512     1
    503    523     1
    503    508     1
    503    506     1
    503    507     1
    504    512     1
    504    523     1
    504    508     1
    504    506     1
    504    507     1
    505    523     1
    505    511     1
    506    509     1
    506    510     1
    507    509     1
    507    510     1
    509    511     1
    513    523     1
    513    518     1
    513    516     1
    513    517     1
    514    523     1
    514    518     1
    514    516     1
    514    517     1
    515    523     1
    515    521     1
    516    519     1
    516    520     1
    517    519     1
    517    520     1
    519    521     1
    524    531     1
    524    532     1
    525    530     1
    525    528     1
    525    529     1
    526    530     1
    526    528     1
    526    529     1
    527    555     1
    528    533     1
    528    531     1
    528    532     1
    528    554     1
    529    533     1
    529    531     1
    529    532     1
    529    554     1
    530    535     1
    530    536     1
    530    545     1
    530    546     1
    531    534     1
    531    544     1
    531    555     1
    532    534     1
    532    544     1
    532    555     1
    533    538     1
    533    539     1
    533    548     1
    533    549     1
    534    545     1
    534    546     1
    535    540     1
    535    538     1
    535    539     1
    535    544     1
    535    555     1
    536    540     1
    536    538     1
    536    539     1
    536    544     1
    536    555     1
    537    543     1
    537    555     1
    538    541     1
    538    542     1
    539    541     1
    539    542     1
    541    543     1
    545    550     1
    545    548     1
    545    549     1
    545    555     1
    546    550     1
    546    548     1
    546    549     1
    546    555     1
    547    553     1
    547    555     1
    548    551     1
    548    552     1
    549    551     1
    549    552     1
    551    553     1
    556    563     1
    556    564     1
    557    562     1
    557    560     1
    557    561     1
    558    562     1
    558    560     1
    558    561     1
    559    587     1
    560    586     1
    560    565     1
    560    563     1
    560    564     1
    561    586     1
    561    565     1
    561    563     1
    561    564     1
    562    567     1
    562    568     1
    562    577     1
    562    578     1
    563    566     1
    563    576     1
    563    587     1
    564    566     1
    564    576     1
    564    587     1
    565    570     1
    565    571     1
    565    580     1
    565    581     1
    566    577     1
    566    578     1
    567    576     1
    567    587     1
    567    572     1
    567    570     1
    567    571     1
    568    576     1
    568    587     1
    568    572     1
    568    570     1
    568    571     1
    569    587     1
    569    575     1
    570    573     1
    570    574     1
    571    573     1
    571    574     1
    573    575     1
    577    587     1
    577    582     1
    577    580     1
    577    581     1
    578    587     1
    578    582     1
    578    580     1
    578    581     1
    579    587     1
    579    585     1
    580    583     1
    580    584     1
    581    583     1
    581    584     1
    583    585     1
    588    595     1
    588    596     1
    589    594     1
    589    592     1
    589    593     1
    590    594     1
    590    592     1
    590    593     1
    591    619     1
    592    597     1
    592    595     1
    592    596     1
    592    618     1
    593    597     1
    593    595     1
    593    596     1
    593    618     1
    594    599     1
    594    600     1
    594    609     1
    594    610     1
    595    598     1
    595    608     1
    595    619     1
    596    598     1
    596    608     1
    596    619     1
    597    602     1
    597    603     1
    597    612     1
    597    613     1
    598    609     1
    598    610     1
    599    604     1
    599    602     1
    599    603     1
    599    608     1
    599    619     1
    600    604     1
    600    602     1
    600    603     1
    600    608     1
    600    619     1
    601    607     1
    601    619     1
    602    605     1
    602    606     1
    603    605     1
    603    606     1
    605    607     1
    609    614     1
    609    612     1
    609    613     1
    609    619     1
    610    614     1
    610    612     1
    610    613     1
    610    619     1
    611    617     1
    611    619     1
    612    615     1
    612    616     1
    613    615     1
    613    616     1
    615    617     1
    620    627     1
    620    628     1
    621    626     1
    621    624     1
    621    625     1
    622    626     1
    622    624     1
    622    625     1
    623    651     1
    624    650     1
    624    629     1
    624    627     1
    624    628     1
    625    650     1
    625    629     1
    625    627     1
    625    628     1
    626    631     1
    626    632     1
    626    641     1
    626    642     1
    627    630     1
    627    640     1
    627    651     1
    628    630     1
    628    640     1
    628    651     1
    629    634     1
    629    635     1
    629    644     1
    629    645     1
    630    641     1
    630    642     1
    631    640     1
    631    651     1
    631    636     1
    631    634     1
    631    635     1
    632    640     1
    632    651     1
    632    636     1
    632    634     1
    632    635     1
    633    651     1
    633    639     1
    634    637     1
    634    638     1
    635    637     1
    635    638     1
    637    639     1
    641    651     1
    641    646     1
    641    644     1
    641    645     1
    642    651     1
    642    646     1
    642    644     1
    642    645     1
    643    651     1
    643    649     1
    644    647     1
    644    648     1
    645    647     1
    645    648     1
    647    649     1
    652    659     1
    652    660     1
    653    658     1
    653    656     1
    653    657     1
    654    658     1
    654    656     1
    654    657     1
    655    683     1
    656    661     1
    656    659     1
    656    660     1
    656    682     1
    657    661     1
    657    659     1
    657    660     1
    657    682     1
    658    663     1
    658    664     1
    658    673     1
    658    674     1
    659    662     1
    659    672     1
    659    683     1
    660    662     1
    660    672     1
    660    683     1
    661    666     1
    661    667     1
    661    676     1
    661    677     1
    662    673     1
    662    674     1
    663    668     1
    663    666     1
    663    667     1
    663    672     1
    663    683     1
    664    668     1
    664    666     1
    664    667     1
    664    672     1
    664    683     1
    665    671     1
    665    683     1
    666    669     1
    666    670     1
    667    669     1
    667    670     1
    669    671     1
    673    678     1
    673    676     1
    673    677     1
    673    683     1
    674    678     1
    674    676     1
    674    677     1
    674    683     1
    675    681     1
    675    683     1
    676    679     1
    676    680     1
    677    679     1
    677    680     1
    679    681     1

[ angles ]
;    ai     aj     ak funct         c0         c1         c2         c3
      1      2     14     1   114.2100488 537.225600
      1      5     17     1   114.2100488 537.225600
      1      8     11     1   114.2100488 537.225600
      2      1      5     1   109.6600471 523.836800
      2      1      8     1   109.6600471 523.836800
      2     14     26     1   111.5100476 526.347200
      5      1      8     1   109.6600471 523.836800
      5     17     20     1   111.5100476 526.347200
      8     11     23     1   111.5100476 526.347200
     11     23     88     1   107.9700462 569.024000
     14     26    118     1   107.9700462 569.024000
     17     20     58     1   107.9700462 569.024000
     20     58     49     1   112.4800480 524.673600
     23     88     79     1   112.4800480 524.673600
     26    118    109     1   112.4800480 524.673600
     30     31     43     1   114.2100488 537.225600
     30     34     46     1   114.2100488 537.225600
     30     37     40     1   114.2100488 537.225600
     31     30     34     1   109.6600471 523.836800
     31     30     37     1   109.6600471 523.836800
     31     43     55     1   111.5100476 526.347200
     34     30     37     1   109.6600471 523.836800
     34     46     52     1   111.5100476 526.347200
     37     40     49     1   111.5100476 526.347200
     40     49     58     1   107.9700462 569.024000
     43     55    178     1   107.9700462 569.024000
     46     52    148     1   107.9700462 569.024000
     52    148    139     1   112.4800480 524.673600
     55    178    169     1   112.4800480 524.673600
     60     61     73     1   114.2100488 537.225600
     60     64     76     1   114.2100488 537.225600
     60     67     70     1   114.2100488 537.225600
     61     60     64     1   109.6600471 523.836800
     61     60     67     1   109.6600471 523.836800
     61     73     85     1   111.5100476 526.347200
     64     60     67     1   109.6600471 523.836800
     64     76     82     1   111.5100476 526.347200
     67     70     79     1   111.5100476 526.347200
     70     79     88     1   107.9700462 569.024000
     73     85    238     1   107.9700462 569.024000
     76     82    208     1   107.9700462 569.024000
     82    208    199     1   112.4800480 524.673600
     85    238    229     1   112.4800480 524.673600
     90     91    103     1   114.2100488 537.225600
     90     94    106     1   114.2100488 537.225600
     90     97    100     1   114.2100488 537.225600
     91     90     94     1   109.6600471 523.836800
     91     90     97     1   109.6600471 523.836800
     91    103    115     1   111.5100476 526.347200
     94     90     97     1   109.6600471 523.836800
     94    106    112     1   111.5100476 526.347200
     97    100    109     1   111.5100476 526.347200
    100    109    118     1   107.9700462 569.024000
    103    115    298     1   107.9700462 569.024000
    106    112    268     1   107.9700462 569.024000
    112    268    259     1   112.4800480 524.673600
    115    298    289     1   112.4800480 524.673600
    120    121    133     1   114.2100488 537.225600
    120    124    136     1   114.2100488 537.225600
    120    127    130     1   114.2100488 537.225600
    121    120    124     1   109.6600471 523.836800
    121    120    127     1   109.6600471 523.836800
    121    133    145     1   111.5100476 526.347200
    124    120    127     1   109.6600471 523.836800
    124    136    142     1   111.5100476 526.347200
    127    130    139     1   111.5100476 526.347200
    130    139    148     1   107.9700462 569.024000
    133    145    362     1   107.9700462 569.024000
    136    142    330     1   107.9700462 569.024000
    142    330    300     1   112.4800480 524.673600
    145    362    332     1   112.4800480 524.673600
    150    151    163     1   114.2100488 537.225600
    150    154    166     1   114.2100488 537.225600
    150    157    160     1   114.2100488 537.225600
    151    150    154     1   109.6600471 523.836800
    151    150    157     1   109.6600471 523.836800
    151    163    175     1   111.5100476 526.347200
    154    150    157     1   109.6600471 523.836800
    154    166    172     1   111.5100476 526.347200
    157    160    169     1   111.5100476 526.347200
    160    169    178     1   107.9700462 569.024000
    163    175    426     1   107.9700462 569.024000
    166    172    394     1   107.9700462 569.024000
    172    394    364     1   112.4800480 524.673600
    175    426    396     1   112.4800480 524.673600
    180    181    193     1   114.2100488 537.225600
    180    184    196     1   114.2100488 537.225600
    180    187    190     1   114.2100488 537.225600
    181    180    184     1   109.6600471 523.836800
    181    180    187     1   109.6600471 523.836800
    181    193    205     1   111.5100476 526.347200
    184    180    187     1   109.6600471 523.836800
    184    196    202     1   111.5100476 526.347200
    187    190    199     1   111.5100476 526.347200
    190    199    208     1   107.9700462 569.024000
    193    205    490     1   107.9700462 569.024000
    196    202    458     1   107.9700462 569.024000
    202    458    428     1   112.4800480 524.673600
    205    490    460     1   112.4800480 524.673600
    210    211    223     1   114.2100488 537.225600
    210    214    226     1   114.2100488 537.225600
    210    217    220     1   114.2100488 537.225600
    211    210    214     1   109.6600471 523.836800
    211    210    217     1   109.6600471 523.836800
    211    223    235     1   111.5100476 526.347200
    214    210    217     1   109.6600471 523.836800
    214    226    232     1   111.5100476 526.347200
    217    220    229     1   111.5100476 526.347200
    220    229    238     1   107.9700462 569.024000
    223    235    554     1   107.9700462 569.024000
    226    232    522     1   107.9700462 569.024000
    232    522    492     1   112.4800480 524.673600
    235    554    524     1   112.4800480 524.673600
    240    241    253     1   114.2100488 537.225600
    240    244    256     1   114.2100488 537.225600
    240    247    250     1   114.2100488 537.225600
    241    240    244     1   109.6600471 523.836800
    241    240    247     1   109.6600471 523.836800
    241    253    265     1   111.5100476 526.347200
    244    240    247     1   109.6600471 523.836800
    244    256    262     1   111.5100476 526.347200
    247    250    259     1   111.5100476 526.347200
    250    259    268     1   107.9700462 569.024000
    253    265    618     1   107.9700462 569.024000
    256    262    586     1   107.9700462 569.024000
    262    586    556     1   112.4800480 524.673600
    265    618    588     1   112.4800480 524.673600
    270    271    283     1   114.2100488 537.225600
    270    274    286     1   114.2100488 537.225600
    270    277    280     1   114.2100488 537.225600
    271    270    274     1   109.6600471 523.836800
    271    270    277     1   109.6600471 523.836800
    271    283    295     1   111.5100476 526.347200
    274    270    277     1   109.6600471 523.836800
    274    286    292     1   111.5100476 526.347200
    277    280    289     1   111.5100476 526.347200
    280    289    298     1   107.9700462 569.024000
    283    295    682     1   107.9700462 569.024000
    286    292    650     1   107.9700462 569.024000
    292    650    620     1   112.4800480 524.673600
    295    682    652     1   112.4800480 524.673600
    300    303    306     1   111.5100476 526.347200
    303    300    330     1   107.9700462 569.024000
    303    306    309     1   114.2100488 537.225600
    306    309    310     1   109.6600471 523.836800
    306    309    320     1   109.6600471 523.836800
    309    310    313     1   114.2100488 537.225600
    309    320    323     1   114.2100488 537.225600
    310    309    320     1   109.6600471 523.836800
    310    313    316     1   111.0400475 529.694400
    313    316    317     1   123.2000528 564.003200
    313    316    318     1   112.7300484 572.371200
    317    316    318     1   122.1000523 635.131200
    320    323    326     1   111.0400475 529.694400
    323    326    327     1   123.2000528 564.003200
    323    326    328     1   112.7300484 572.371200
    327    326    328     1   122.1000523 635.131200
    332    335    338     1   111.5100476 526.347200
    335    338    341     1   114.2100488 537.225600
    335    332    362     1   107.9700462 569.024000
    338    341    342     1   109.6600471 523.836800
    338    341    352     1   109.6600471 523.836800
    341    342    345     1   114.2100488 537.225600
    341    352    355     1   114.2100488 537.225600
    342    345    348     1   111.0400475 529.694400
    342    341    352     1   109.6600471 523.836800
    345    348    349     1   123.2000528 564.003200
    345    348    350     1   112.7300484 572.371200
    349    348    350     1   122.1000523 635.131200
    352    355    358     1   111.0400475 529.694400
    355    358    359     1   123.2000528 564.003200
    355    358    360     1   112.7300484 572.371200
    359    358    360     1   122.1000523 635.131200
    364    367    370     1   111.5100476 526.347200
    367    364    394     1   107.9700462 569.024000
    367    370    373     1   114.2100488 537.225600
    370    373    374     1   109.6600471 523.836800
    370    373    384     1   109.6600471 523.836800
    373    374    377     1   114.2100488 537.225600
    373    384    387     1   114.2100488 537.225600
    374    373    384     1   109.6600471 523.836800
    374    377    380     1   111.0400475 529.694400
    377    380    381     1   123.2000528 564.003200
    377    380    382     1   112.7300484 572.371200
    381    380    382     1   122.1000523 635.131200
    384    387    390     1   111.0400475 529.694400
    387    390    391     1   123.2000528 564.003200
    387    390    392     1   112.7300484 572.371200
    391    390    392     1   122.1000523 635.131200
    396    399    402     1   111.5100476 526.347200
    399    402    405     1   114.2100488 537.225600
    399    396    426     1   107.9700462 569.024000
    402    405    406     1   109.6600471 523.836800
    402    405    416     1   109.6600471 523.836800
    405    406    409     1   114.2100488 537.225600
    405    416    419     1   114.2100488 537.225600
    406    409    412     1   111.0400475 529.694400
    406    405    416     1   109.6600471 523.836800
    409    412    413     1   123.2000528 564.003200
    409    412    414     1   112.7300484 572.371200
    413    412    414     1   122.1000523 635.131200
    416    419    422     1   111.0400475 529.694400
    419    422    423     1   123.2000528 564.003200
    419    422    424     1   112.7300484 572.371200
    423    422    424     1   122.1000523 635.131200
    428    431    434     1   111.5100476 526.347200
    431    428    458     1   107.9700462 569.024000
    431    434    437     1   114.2100488 537.225600
    434    437    438     1   109.6600471 523.836800
    434    437    448     1   109.6600471 523.836800
    437    438    441     1   114.2100488 537.225600
    437    448    451     1   114.2100488 537.225600
    438    437    448     1   109.6600471 523.836800
    438    441    444     1   111.0400475 529.694400
    441    444    445     1   123.2000528 564.003200
    441    444    446     1   112.7300484 572.371200
    445    444    446     1   122.1000523 635.131200
    448    451    454     1   111.0400475 529.694400
    451    454    455     1   123.2000528 564.003200
    451    454    456     1   112.7300484 572.371200
    455    454    456     1   122.1000523 635.131200
    460    463    466     1   111.5100476 526.347200
    463    466    469     1   114.2100488 537.225600
    463    460    490     1   107.9700462 569.024000
    466    469    470     1   109.6600471 523.836800
    466    469    480     1   109.6600471 523.836800
    469    470    473     1   114.2100488 537.225600
    469    480    483     1   114.2100488 537.225600
    470    473    476     1   111.0400475 529.694400
    470    469    480     1   109.6600471 523.836800
    473    476    477     1   123.2000528 564.003200
    473    476    478     1   112.7300484 572.371200
    477    476    478     1   122.1000523 635.131200
    480    483    486     1   111.0400475 529.694400
    483    486    487     1   123.2000528 564.003200
    483    486    488     1   112.7300484 572.371200
    487    486    488     1   122.1000523 635.131200
    492    495    498     1   111.5100476 526.347200
    495    492    522     1   107.9700462 569.024000
    495    498    501     1   114.2100488 537.225600
    498    501    502     1   109.6600471 523.836800
    498    501    512     1   109.6600471 523.836800
    501    502    505     1   114.2100488 537.225600
    501    512    515     1   114.2100488 537.225600
    502    501    512     1   109.6600471 523.836800
    502    505    508     1   111.0400475 529.694400
    505    508    509     1   123.2000528 564.003200
    505    508    510     1   112.7300484 572.371200
    509    508    510     1   122.1000523 635.131200
    512    515    518     1   111.0400475 529.694400
    515    518    519     1   123.2000528 564.003200
    515    518    520     1   112.7300484 572.371200
    519    518    520     1   122.1000523 635.131200
    524    527    530     1   111.5100476 526.347200
    527    530    533     1   114.2100488 537.225600
    527    524    554     1   107.9700462 569.024000
    530    533    534     1   109.6600471 523.836800
    530    533    544     1   109.6600471 523.836800
    533    534    537     1   114.2100488 537.225600
    533    544    547     1   114.2100488 537.225600
    534    537    540     1   111.0400475 529.694400
    534    533    544     1   109.6600471 523.836800
    537    540    541     1   123.2000528 564.003200
    537    540    542     1   112.7300484 572.371200
    541    540    542     1   122.1000523 635.131200
    544    547    550     1   111.0400475 529.694400
    547    550    551     1   123.2000528 564.003200
    547    550    552     1   112.7300484 572.371200
    551    550    552     1   122.1000523 635.131200
    556    559    562     1   111.5100476 526.347200
    559    556    586     1   107.9700462 569.024000
    559    562    565     1   114.2100488 537.225600
    562    565    566     1   109.6600471 523.836800
    562    565    576     1   109.6600471 523.836800
    565    566    569     1   114.2100488 537.225600
    565    576    579     1   114.2100488 537.225600
    566    565    576     1   109.6600471 523.836800
    566    569    572     1   111.0400475 529.694400
    569    572    573     1   123.2000528 564.003200
    569    572    574     1   112.7300484 572.371200
    573    572    574     1   122.1000523 635.131200
    576    579    582     1   111.0400475 529.694400
    579    582    583     1   123.2000528 564.003200
    579    582    584     1   112.7300484 572.371200
    583    582    584     1   122.1000523 635.131200
    588    591    594     1   111.5100476 526.347200
    591    594    597     1   114.2100488 537.225600
    591    588    618     1   107.9700462 569.024000
    594    597    598     1   109.6600471 523.836800
    594    597    608     1   109.6600471 523.836800
    597    598    601     1   114.2100488 537.225600
    597    608    611     1   114.2100488 537.225600
    598    601    604     1   111.0400475 529.694400
    598    597    608     1   109.6600471 523.836800
    601    604    605     1   123.2000528 564.003200
    601    604    606     1   112.7300484 572.371200
    605    604    606     1   122.1000523 635.131200
    608    611    614     1   111.0400475 529.694400
    611    614    615     1   123.2000528 564.003200
    611    614    616     1   112.7300484 572.371200
    615    614    616     1   122.1000523 635.131200
    620    623    626     1   111.5100476 526.347200
    623    620    650     1   107.9700462 569.024000
    623    626    629     1   114.2100488 537.225600
    626    629    630     1   109.6600471 523.836800
    626    629    640     1   109.6600471 523.836800
    629    630    633     1   114.2100488 537.225600
    629    640    643     1   114.2100488 537.225600
    630    629    640     1   109.6600471 523.836800
    630    633    636     1   111.0400475 529.694400
    633    636    637     1   123.2000528 564.003200
    633    636    638     1   112.7300484 572.371200
    637    636    638     1   122.1000523 635.131200
    640    643    646     1   111.0400475 529.694400
    643    646    647     1   123.2000528 564.003200
    643    646    648     1   112.7300484 572.371200
    647    646    648     1   122.1000523 635.131200
    652    655    658     1   111.5100476 526.347200
    655    658    661     1   114.2100488 537.225600
    655    652    682     1   107.9700462 569.024000
    658    661    662     1   109.6600471 523.836800
    658    661    672     1   109.6600471 523.836800
    661    662    665     1   114.2100488 537.225600
    661    672    675     1   114.2100488 537.225600
    662    665    668     1   111.0400475 529.694400
    662    661    672     1   109.6600471 523.836800
    665    668    669     1   123.2000528 564.003200
    665    668    670     1   112.7300484 572.371200
    669    668    670     1   122.1000523 635.131200
    672    675    678     1   111.0400475 529.694400
    675    678    679     1   123.2000528 564.003200
    675    678    680     1   112.7300484 572.371200
    679    678    680     1   122.1000523 635.131200
      1      2      3     1   108.0100461 406.684800
      1      2      4     1   108.0100461 406.684800
      1      5      6     1   108.0100461 406.684800
      1      5      7     1   108.0100461 406.684800
      1      8      9     1   108.0100461 406.684800
      1      8     10     1   108.0100461 406.684800
      2      1     29     1   110.1100470 384.091200
      2     14     15     1   109.8000471 387.438400
      2     14     16     1   109.8000471 387.438400
      3      2     14     1   110.5600475 386.601600
      3      2      4     1   109.7500473 328.025600
      4      2     14     1   110.5600475 386.601600
      5      1     29     1   110.1100470 384.091200
      5     17     18     1   109.8000471 387.438400
      5     17     19     1   109.8000471 387.438400
      6      5     17     1   110.5600475 386.601600
      6      5      7     1   109.7500473 328.025600
      7      5     17     1   110.5600475 386.601600
      8      1     29     1   110.1100470 384.091200
      8     11     12     1   109.8000471 387.438400
      8     11     13     1   109.8000471 387.438400
      9      8     11     1   110.5600475 386.601600
      9      8     10     1   109.7500473 328.025600
     10      8     11     1   110.5600475 386.601600
     11     23     24     1   109.5600471 388.275200
     11     23     25     1   109.5600471 388.275200
     12     11     23     1   109.8000471 387.438400
     12     11     13     1   107.5800459 329.699200
     13     11     23     1   109.8000471 387.438400
     14     26     27     1   109.5600471 388.275200
     14     26     28     1   109.5600471 388.275200
     15     14     26     1   109.8000471 387.438400
     15     14     16     1   107.5800459 329.699200
     16     14     26     1   109.8000471 387.438400
     17     20     21     1   109.5600471 388.275200
     17     20     22     1   109.5600471 388.275200
     18     17     20     1   109.8000471 387.438400
     18     17     19     1   107.5800459 329.699200
     19     17     20     1   109.8000471 387.438400
     21     20     58     1   109.7800468 425.094400
     21     20     22     1   108.4600466 328.025600
     22     20     58     1   109.7800468 425.094400
     24     23     88     1   109.7800468 425.094400
     24     23     25     1   108.4600466 328.025600
     25     23     88     1   109.7800468 425.094400
     27     26    118     1   109.7800468 425.094400
     27     26     28     1   108.4600466 328.025600
     28     26    118     1   109.7800468 425.094400
     30     31     32     1   108.0100461 406.684800
     30     31     33     1   108.0100461 406.684800
     30     34     35     1   108.0100461 406.684800
     30     34     36     1   108.0100461 406.684800
     30     37     38     1   108.0100461 406.684800
     30     37     39     1   108.0100461 406.684800
     31     30     59     1   110.1100470 384.091200
     31     43     44     1   109.8000471 387.438400
     31     43     45     1   109.8000471 387.438400
     32     31     43     1   110.5600475 386.601600
     32     31     33     1   109.7500473 328.025600
     33     31     43     1   110.5600475 386.601600
     34     30     59     1   110.1100470 384.091200
     34     46     47     1   109.8000471 387.438400
     34     46     48     1   109.8000471 387.438400
     35     34     46     1   110.5600475 386.601600
     35     34     36     1   109.7500473 328.025600
     36     34     46     1   110.5600475 386.601600
     37     30     59     1   110.1100470 384.091200
     37     40     41     1   109.8000471 387.438400
     37     40     42     1   109.8000471 387.438400
     38     37     40     1   110.5600475 386.601600
     38     37     39     1   109.7500473 328.025600
     39     37     40     1   110.5600475 386.601600
     40     49     50     1   109.5600471 388.275200
     40     49     51     1   109.5600471 388.275200
     41     40     49     1   109.8000471 387.438400
     41     40     42     1   107.5800459 329.699200
     42     40     49     1   109.8000471 387.438400
     43     55     56     1   109.5600471 388.275200
     43     55     57     1   109.5600471 388.275200
     44     43     55     1   109.8000471 387.438400
     44     43     45     1   107.5800459 329.699200
     45     43     55     1   109.8000471 387.438400
     46     52     53     1   109.5600471 388.275200
     46     52     54     1   109.5600471 388.275200
     47     46     52     1   109.8000471 387.438400
     47     46     48     1   107.5800459 329.699200
     48     46     52     1   109.8000471 387.438400
     50     49     58     1   109.7800468 425.094400
     50     49     51     1   108.4600466 328.025600
     51     49     58     1   109.7800468 425.094400
     53     52    148     1   109.7800468 425.094400
     53     52     54     1   108.4600466 328.025600
     54     52    148     1   109.7800468 425.094400
     56     55    178     1   109.7800468 425.094400
     56     55     57     1   108.4600466 328.025600
     57     55    178     1   109.7800468 425.094400
     60     61     62     1   108.0100461 406.684800
     60     61     63     1   108.0100461 406.684800
     60     64     65     1   108.0100461 406.684800
     60     64     66     1   108.0100461 406.684800
     60     67     68     1   108.0100461 406.684800
     60     67     69     1   108.0100461 406.684800
     61     60     89     1   110.1100470 384.091200
     61     73     74     1   109.8000471 387.438400
     61     73     75     1   109.8000471 387.438400
     62     61     73     1   110.5600475 386.601600
     62     61     63     1   109.7500473 328.025600
     63     61     73     1   110.5600475 386.601600
     64     60     89     1   110.1100470 384.091200
     64     76     77     1   109.8000471 387.438400
     64     76     78     1   109.8000471 387.438400
     65     64     76     1   110.5600475 386.601600
     65     64     66     1   109.7500473 328.025600
     66     64     76     1   110.5600475 386.601600
     67     60     89     1   110.1100470 384.091200
     67     70     71     1   109.8000471 387.438400
     67     70     72     1   109.8000471 387.438400
     68     67     70     1   110.5600475 386.601600
     68     67     69     1   109.7500473 328.025600
     69     67     70     1   110.5600475 386.601600
     70     79     80     1   109.5600471 388.275200
     70     79     81     1   109.5600471 388.275200
     71     70     79     1   109.8000471 387.438400
     71     70     72     1   107.5800459 329.699200
     72     70     79     1   109.8000471 387.438400
     73     85     86     1   109.5600471 388.275200
     73     85     87     1   109.5600471 388.275200
     74     73     85     1   109.8000471 387.438400
     74     73     75     1   107.5800459 329.699200
     75     73     85     1   109.8000471 387.438400
     76     82     83     1   109.5600471 388.275200
     76     82     84     1   109.5600471 388.275200
     77     76     82     1   109.8000471 387.438400
     77     76     78     1   107.5800459 329.699200
     78     76     82     1   109.8000471 387.438400
     80     79     88     1   109.7800468 425.094400
     80     79     81     1   108.4600466 328.025600
     81     79     88     1   109.7800468 425.094400
     83     82    208     1   109.7800468 425.094400
     83     82     84     1   108.4600466 328.025600
     84     82    208     1   109.7800468 425.094400
     86     85    238     1   109.7800468 425.094400
     86     85     87     1   108.4600466 328.025600
     87     85    238     1   109.7800468 425.094400
     90     91     92     1   108.0100461 406.684800
     90     91     93     1   108.0100461 406.684800
     90     94     95     1   108.0100461 406.684800
     90     94     96     1   108.0100461 406.684800
     90     97     98     1   108.0100461 406.684800
     90     97     99     1   108.0100461 406.684800
     91     90    119     1   110.1100470 384.091200
     91    103    104     1   109.8000471 387.438400
     91    103    105     1   109.8000471 387.438400
     92     91    103     1   110.5600475 386.601600
     92     91     93     1   109.7500473 328.025600
     93     91    103     1   110.5600475 386.601600
     94     90    119     1   110.1100470 384.091200
     94    106    107     1   109.8000471 387.438400
     94    106    108     1   109.8000471 387.438400
     95     94    106     1   110.5600475 386.601600
     95     94     96     1   109.7500473 328.025600
     96     94    106     1   110.5600475 386.601600
     97     90    119     1   110.1100470 384.091200
     97    100    101     1   109.8000471 387.438400
     97    100    102     1   109.8000471 387.438400
     98     97    100     1   110.5600475 386.601600
     98     97     99     1   109.7500473 328.025600
     99     97    100     1   110.5600475 386.601600
    100    109    110     1   109.5600471 388.275200
    100    109    111     1   109.5600471 388.275200
    101    100    109     1   109.8000471 387.438400
    101    100    102     1   107.5800459 329.699200
    102    100    109     1   109.8000471 387.438400
    103    115    116     1   109.5600471 388.275200
    103    115    117     1   109.5600471 388.275200
    104    103    115     1   109.8000471 387.438400
    104    103    105     1   107.5800459 329.699200
    105    103    115     1   109.8000471 387.438400
    106    112    113     1   109.5600471 388.275200
    106    112    114     1   109.5600471 388.275200
    107    106    112     1   109.8000471 387.438400
    107    106    108     1   107.5800459 329.699200
    108    106    112     1   109.8000471 387.438400
    110    109    118     1   109.7800468 425.094400
    110    109    111     1   108.4600466 328.025600
    111    109    118     1   109.7800468 425.094400
    113    112    268     1   109.7800468 425.094400
    113    112    114     1   108.4600466 328.025600
    114    112    268     1   109.7800468 425.094400
    116    115    298     1   109.7800468 425.094400
    116    115    117     1   108.4600466 328.025600
    117    115    298     1   109.7800468 425.094400
    120    121    122     1   108.0100461 406.684800
    120    121    123     1   108.0100461 406.684800
    120    124    125     1   108.0100461 406.684800
    120    124    126     1   108.0100461 406.684800
    120    127    128     1   108.0100461 406.684800
    120    127    129     1   108.0100461 406.684800
    121    120    149     1   110.1100470 384.091200
    121    133    134     1   109.8000471 387.438400
    121    133    135     1   109.8000471 387.438400
    122    121    133     1   110.5600475 386.601600
    122    121    123     1   109.7500473 328.025600
    123    121    133     1   110.5600475 386.601600
    124    120    149     1   110.1100470 384.091200
    124    136    137     1   109.8000471 387.438400
    124    136    138     1   109.8000471 387.438400
    125    124    136     1   110.5600475 386.601600
    125    124    126     1   109.7500473 328.025600
    126    124    136     1   110.5600475 386.601600
    127    120    149     1   110.1100470 384.091200
    127    130    131     1   109.8000471 387.438400
    127    130    132     1   109.8000471 387.438400
    128    127    130     1   110.5600475 386.601600
    128    127    129     1   109.7500473 328.025600
    129    127    130     1   110.5600475 386.601600
    130    139    140     1   109.5600471 388.275200
    130    139    141     1   109.5600471 388.275200
    131    130    139     1   109.8000471 387.438400
    131    130    132     1   107.5800459 329.699200
    132    130    139     1   109.8000471 387.438400
    133    145    146     1   109.5600471 388.275200
    133    145    147     1   109.5600471 388.275200
    134    133    145     1   109.8000471 387.438400
    134    133    135     1   107.5800459 329.699200
    135    133    145     1   109.8000471 387.438400
    136    142    143     1   109.5600471 388.275200
    136    142    144     1   109.5600471 388.275200
    137    136    142     1   109.8000471 387.438400
    137    136    138     1   107.5800459 329.699200
    138    136    142     1   109.8000471 387.438400
    140    139    148     1   109.7800468 425.094400
    140    139    141     1   108.4600466 328.025600
    141    139    148     1   109.7800468 425.094400
    143    142    330     1   109.7800468 425.094400
    143    142    144     1   108.4600466 328.025600
    144    142    330     1   109.7800468 425.094400
    146    145    362     1   109.7800468 425.094400
    146    145    147     1   108.4600466 328.025600
    147    145    362     1   109.7800468 425.094400
    150    151    152     1   108.0100461 406.684800
    150    151    153     1   108.0100461 406.684800
    150    154    155     1   108.0100461 406.684800
    150    154    156     1   108.0100461 406.684800
    150    157    158     1   108.0100461 406.684800
    150    157    159     1   108.0100461 406.684800
    151    150    179     1   110.1100470 384.091200
    151    163    164     1   109.8000471 387.438400
    151    163    165     1   109.8000471 387.438400
    152    151    163     1   110.5600475 386.601600
    152    151    153     1   109.7500473 328.025600
    153    151    163     1   110.5600475 386.601600
    154    150    179     1   110.1100470 384.091200
    154    166    167     1   109.8000471 387.438400
    154    166    168     1   109.8000471 387.438400
    155    154    166     1   110.5600475 386.601600
    155    154    156     1   109.7500473 328.025600
    156    154    166     1   110.5600475 386.601600
    157    150    179     1   110.1100470 384.091200
    157    160    161     1   109.8000471 387.438400
    157    160    162     1   109.8000471 387.438400
    158    157    160     1   110.5600475 386.601600
    158    157    159     1   109.7500473 328.025600
    159    157    160     1   110.5600475 386.601600
    160    169    170     1   109.5600471 388.275200
    160    169    171     1   109.5600471 388.275200
    161    160    169     1   109.8000471 387.438400
    161    160    162     1   107.5800459 329.699200
    162    160    169     1   109.8000471 387.438400
    163    175    176     1   109.5600471 388.275200
    163    175    177     1   109.5600471 388.275200
    164    163    175     1   109.8000471 387.438400
    164    163    165     1   107.5800459 329.699200
    165    163    175     1   109.8000471 387.438400
    166    172    173     1   109.5600471 388.275200
    166    172    174     1   109.5600471 388.275200
    167    166    172     1   109.8000471 387.438400
    167    166    168     1   107.5800459 329.699200
    168    166    172     1   109.8000471 387.438400
    170    169    178     1   109.7800468 425.094400
    170    169    171     1   108.4600466 328.025600
    171    169    178     1   109.7800468 425.094400
    173    172    394     1   109.7800468 425.094400
    173    172    174     1   108.4600466 328.025600
    174    172    394     1   109.7800468 425.094400
    176    175    426     1   109.7800468 425.094400
    176    175    177     1   108.4600466 328.025600
    177    175    426     1   109.7800468 425.094400
    180    181    182     1   108.0100461 406.684800
    180    181    183     1   108.0100461 406.684800
    180    184    185     1   108.0100461 406.684800
    180    184    186     1   108.0100461 406.684800
    180    187    188     1   108.0100461 406.684800
    180    187    189     1   108.0100461 406.684800
    181    180    209     1   110.1100470 384.091200
    181    193    194     1   109.8000471 387.438400
    181    193    195     1   109.8000471 387.438400
    182    181    193     1   110.5600475 386.601600
    182    181    183     1   109.7500473 328.025600
    183    181    193     1   110.5600475 386.601600
    184    180    209     1   110.1100470 384.091200
    184    196    197     1   109.8000471 387.438400
    184    196    198     1   109.8000471 387.438400
    185    184    196     1   110.5600475 386.601600
    185    184    186     1   109.7500473 328.025600
    186    184    196     1   110.5600475 386.601600
    187    180    209     1   110.1100470 384.091200
    187    190    191     1   109.8000471 387.438400
    187    190    192     1   109.8000471 387.438400
    188    187    190     1   110.5600475 386.601600
    188    187    189     1   109.7500473 328.025600
    189    187    190     1   110.5600475 386.601600
    190    199    200     1   109.5600471 388.275200
    190    199    201     1   109.5600471 388.275200
    191    190    199     1   109.8000471 387.438400
    191    190    192     1   107.5800459 329.699200
    192    190    199     1   109.8000471 387.438400
    193    205    206     1   109.5600471 388.275200
    193    205    207     1   109.5600471 388.275200
    194    193    205     1   109.8000471 387.438400
    194    193    195     1   107.5800459 329.699200
    195    193    205     1   109.8000471 387.438400
    196    202    203     1   109.5600471 388.275200
    196    202    204     1   109.5600471 388.275200
    197    196    202     1   109.8000471 387.438400
    197    196    198     1   107.5800459 329.699200
    198    196    202     1   109.8000471 387.438400
    200    199    208     1   109.7800468 425.094400
    200    199    201     1   108.4600466 328.025600
    201    199    208     1   109.7800468 425.094400
    203    202    458     1   109.7800468 425.094400
    203    202    204     1   108.4600466 328.025600
    204    202    458     1   109.7800468 425.094400
    206    205    490     1   109.7800468 425.094400
    206    205    207     1   108.4600466 328.025600
    207    205    490     1   109.7800468 425.094400
    210    211    212     1   108.0100461 406.684800
    210    211    213     1   108.0100461 406.684800
    210    214    215     1   108.0100461 406.684800
    210    214    216     1   108.0100461 406.684800
    210    217    218     1   108.0100461 406.684800
    210    217    219     1   108.0100461 406.684800
    211    210    239     1   110.1100470 384.091200
    211    223    224     1   109.8000471 387.438400
    211    223    225     1   109.8000471 387.438400
    212    211    223     1   110.5600475 386.601600
    212    211    213     1   109.7500473 328.025600
    213    211    223     1   110.5600475 386.601600
    214    210    239     1   110.1100470 384.091200
    214    226    227     1   109.8000471 387.438400
    214    226    228     1   109.8000471 387.438400
    215    214    226     1   110.5600475 386.601600
    215    214    216     1   109.7500473 328.025600
    216    214    226     1   110.5600475 386.601600
    217    210    239     1   110.1100470 384.091200
    217    220    221     1   109.8000471 387.438400
    217    220    222     1   109.8000471 387.438400
    218    217    220     1   110.5600475 386.601600
    218    217    219     1   109.7500473 328.025600
    219    217    220     1   110.5600475 386.601600
    220    229    230     1   109.5600471 388.275200
    220    229    231     1   109.5600471 388.275200
    221    220    229     1   109.8000471 387.438400
    221    220    222     1   107.5800459 329.699200
    222    220    229     1   109.8000471 387.438400
    223    235    236     1   109.5600471 388.275200
    223    235    237     1   109.5600471 388.275200
    224    223    235     1   109.8000471 387.438400
    224    223    225     1   107.5800459 329.699200
    225    223    235     1   109.8000471 387.438400
    226    232    233     1   109.5600471 388.275200
    226    232    234     1   109.5600471 388.275200
    227    226    232     1   109.8000471 387.438400
    227    226    228     1   107.5800459 329.699200
    228    226    232     1   109.8000471 387.438400
    230    229    238     1   109.7800468 425.094400
    230    229    231     1   108.4600466 328.025600
    231    229    238     1   109.7800468 425.094400
    233    232    522     1   109.7800468 425.094400
    233    232    234     1   108.4600466 328.025600
    234    232    522     1   109.7800468 425.094400
    236    235    554     1   109.7800468 425.094400
    236    235    237     1   108.4600466 328.025600
    237    235    554     1   109.7800468 425.094400
    240    241    242     1   108.0100461 406.684800
    240    241    243     1   108.0100461 406.684800
    240    244    245     1   108.0100461 406.684800
    240    244    246     1   108.0100461 406.684800
    240    247    248     1   108.0100461 406.684800
    240    247    249     1   108.0100461 406.684800
    241    240    269     1   110.1100470 384.091200
    241    253    254     1   109.8000471 387.438400
    241    253    255     1   109.8000471 387.438400
    242    241    253     1   110.5600475 386.601600
    242    241    243     1   109.7500473 328.025600
    243    241    253     1   110.5600475 386.601600
    244    240    269     1   110.1100470 384.091200
    244    256    257     1   109.8000471 387.438400
    244    256    258     1   109.8000471 387.438400
    245    244    256     1   110.5600475 386.601600
    245    244    246     1   109.7500473 328.025600
    246    244    256     1   110.5600475 386.601600
    247    240    269     1   110.1100470 384.091200
    247    250    251     1   109.8000471 387.438400
    247    250    252     1   109.8000471 387.438400
    248    247    250     1   110.5600475 386.601600
    248    247    249     1   109.7500473 328.025600
    249    247    250     1   110.5600475 386.601600
    250    259    260     1   109.5600471 388.275200
    250    259    261     1   109.5600471 388.275200
    251    250    259     1   109.8000471 387.438400
    251    250    252     1   107.5800459 329.699200
    252    250    259     1   109.8000471 387.438400
    253    265    266     1   109.5600471 388.275200
    253    265    267     1   109.5600471 388.275200
    254    253    265     1   109.8000471 387.438400
    254    253    255     1   107.5800459 329.699200
    255    253    265     1   109.8000471 387.438400
    256    262    263     1   109.5600471 388.275200
    256    262    264     1   109.5600471 388.275200
    257    256    262     1   109.8000471 387.438400
    257    256    258     1   107.5800459 329.699200
    258    256    262     1   109.8000471 387.438400
    260    259    268     1   109.7800468 425.094400
    260    259    261     1   108.4600466 328.025600
    261    259    268     1   109.7800468 425.094400
    263    262    586     1   109.7800468 425.094400
    263    262    264     1   108.4600466 328.025600
    264    262    586     1   109.7800468 425.094400
    266    265    618     1   109.7800468 425.094400
    266    265    267     1   108.4600466 328.025600
    267    265    618     1   109.7800468 425.094400
    270    271    272     1   108.0100461 406.684800
    270    271    273     1   108.0100461 406.684800
    270    274    275     1   108.0100461 406.684800
    270    274    276     1   108.0100461 406.684800
    270    277    278     1   108.0100461 406.684800
    270    277    279     1   108.0100461 406.684800
    271    270    299     1   110.1100470 384.091200
    271    283    284     1   109.8000471 387.438400
    271    283    285     1   109.8000471 387.438400
    272    271    283     1   110.5600475 386.601600
    272    271    273     1   109.7500473 328.025600
    273    271    283     1   110.5600475 386.601600
    274    270    299     1   110.1100470 384.091200
    274    286    287     1   109.8000471 387.438400
    274    286    288     1   109.8000471 387.438400
    275    274    286     1   110.5600475 386.601600
    275    274    276     1   109.7500473 328.025600
    276    274    286     1   110.5600475 386.601600
    277    270    299     1   110.1100470 384.091200
    277    280    281     1   109.8000471 387.438400
    277    280    282     1   109.8000471 387.438400
    278    277    280     1   110.5600475 386.601600
    278    277    279     1   109.7500473 328.025600
    279    277    280     1   110.5600475 386.601600
    280    289    290     1   109.5600471 388.275200
    280    289    291     1   109.5600471 388.275200
    281    280    289     1   109.8000471 387.438400
    281    280    282     1   107.5800459 329.699200
    282    280    289     1   109.8000471 387.438400
    283    295    296     1   109.5600471 388.275200
    283    295    297     1   109.5600471 388.275200
    284    283    295     1   109.8000471 387.438400
    284    283    285     1   107.5800459 329.699200
    285    283    295     1   109.8000471 387.438400
    286    292    293     1   109.5600471 388.275200
    286    292    294     1   109.5600471 388.275200
    287    286    292     1   109.8000471 387.438400
    287    286    288     1   107.5800459 329.699200
    288    286    292     1   109.8000471 387.438400
    290    289    298     1   109.7800468 425.094400
    290    289    291     1   108.4600466 328.025600
    291    289    298     1   109.7800468 425.094400
    293    292    650     1   109.7800468 425.094400
    293    292    294     1   108.4600466 328.025600
    294    292    650     1   109.7800468 425.094400
    296    295    682     1   109.7800468 425.094400
    296    295    297     1   108.4600466 328.025600
    297    295    682     1   109.7800468 425.094400
    300    303    304     1   109.8000471 387.438400
    300    303    305     1   109.8000471 387.438400
    301    300    303     1   109.5600471 388.275200
    301    300    330     1   109.7800468 425.094400
    301    300    302     1   108.4600466 328.025600
    302    300    303     1   109.5600471 388.275200
    302    300    330     1   109.7800468 425.094400
    303    306    307     1   110.5600475 386.601600
    303    306    308     1   110.5600475 386.601600
    304    303    306     1   109.8000471 387.438400
    304    303    305     1   107.5800459 329.699200
    305    303    306     1   109.8000471 387.438400
    306    309    331     1   110.1100470 384.091200
    307    306    309     1   108.0100461 406.684800
    307    306    308     1   109.7500473 328.025600
    308    306    309     1   108.0100461 406.684800
    309    310    311     1   108.0100461 406.684800
    309    310    312     1   108.0100461 406.684800
    309    320    321     1   108.0100461 406.684800
    309    320    322     1   108.0100461 406.684800
    310    309    331     1   110.1100470 384.091200
    310    313    314     1   109.8000471 387.438400
    310    313    315     1   109.8000471 387.438400
    311    310    313     1   110.5600475 386.601600
    311    310    312     1   109.7500473 328.025600
    312    310    313     1   110.5600475 386.601600
    314    313    316     1   108.7700466 392.459200
    314    313    315     1   107.5800459 329.699200
    315    313    316     1   108.7700466 392.459200
    316    318    319     1   106.5500460 417.563200
    320    309    331     1   110.1100470 384.091200
    320    323    324     1   109.8000471 387.438400
    320    323    325     1   109.8000471 387.438400
    321    320    323     1   110.5600475 386.601600
    321    320    322     1   109.7500473 328.025600
    322    320    323     1   110.5600475 386.601600
    324    323    326     1   108.7700466 392.459200
    324    323    325     1   107.5800459 329.699200
    325    323    326     1   108.7700466 392.459200
    326    328    329     1   106.5500460 417.563200
    332    335    336     1   109.8000471 387.438400
    332    335    337     1   109.8000471 387.438400
    333    332    335     1   109.5600471 388.275200
    333    332    362     1   109.7800468 425.094400
    333    332    334     1   108.4600466 328.025600
    334    332    335     1   109.5600471 388.275200
    334    332    362     1   109.7800468 425.094400
    335    338    339     1   110.5600475 386.601600
    335    338    340     1   110.5600475 386.601600
    336    335    338     1   109.8000471 387.438400
    336    335    337     1   107.5800459 329.699200
    337    335    338     1   109.8000471 387.438400
    338    341    363     1   110.1100470 384.091200
    339    338    341     1   108.0100461 406.684800
    339    338    340     1   109.7500473 328.025600
    340    338    341     1   108.0100461 406.684800
    341    342    343     1   108.0100461 406.684800
    341    342    344     1   108.0100461 406.684800
    341    352    353     1   108.0100461 406.684800
    341    352    354     1   108.0100461 406.684800
    342    345    346     1   109.8000471 387.438400
    342    345    347     1   109.8000471 387.438400
    342    341    363     1   110.1100470 384.091200
    343    342    345     1   110.5600475 386.601600
    343    342    344     1   109.7500473 328.025600
    344    342    345     1   110.5600475 386.601600
    346    345    348     1   108.7700466 392.459200
    346    345    347     1   107.5800459 329.699200
    347    345    348     1   108.7700466 392.459200
    348    350    351     1   106.5500460 417.563200
    352    355    356     1   109.8000471 387.438400
    352    355    357     1   109.8000471 387.438400
    352    341    363     1   110.1100470 384.091200
    353    352    355     1   110.5600475 386.601600
    353    352    354     1   109.7500473 328.025600
    354    352    355     1   110.5600475 386.601600
    356    355    358     1   108.7700466 392.459200
    356    355    357     1   107.5800459 329.699200
    357    355    358     1   108.7700466 392.459200
    358    360    361     1   106.5500460 417.563200
    364    367    368     1   109.8000471 387.438400
    364    367    369     1   109.8000471 387.438400
    365    364    367     1   109.5600471 388.275200
    365    364    394     1   109.7800468 425.094400
    365    364    366     1   108.4600466 328.025600
    366    364    367     1   109.5600471 388.275200
    366    364    394     1   109.7800468 425.094400
    367    370    371     1   110.5600475 386.601600
    367    370    372     1   110.5600475 386.601600
    368    367    370     1   109.8000471 387.438400
    368    367    369     1   107.5800459 329.699200
    369    367    370     1   109.8000471 387.438400
    370    373    395     1   110.1100470 384.091200
    371    370    373     1   108.0100461 406.684800
    371    370    372     1   109.7500473 328.025600
    372    370    373     1   108.0100461 406.684800
    373    374    375     1   108.0100461 406.684800
    373    374    376     1   108.0100461 406.684800
    373    384    385     1   108.0100461 406.684800
    373    384    386     1   108.0100461 406.684800
    374    373    395     1   110.1100470 384.091200
    374    377    378     1   109.8000471 387.438400
    374    377    379     1   109.8000471 387.438400
    375    374    377     1   110.5600475 386.601600
    375    374    376     1   109.7500473 328.025600
    376    374    377     1   110.5600475 386.601600
    378    377    380     1   108.7700466 392.459200
    378    377    379     1   107.5800459 329.699200
    379    377    380     1   108.7700466 392.459200
    380    382    383     1   106.5500460 417.563200
    384    373    395     1   110.1100470 384.091200
    384    387    388     1   109.8000471 387.438400
    384    387    389     1   109.8000471 387.438400
    385    384    387     1   110.5600475 386.601600
    385    384    386     1   109.7500473 328.025600
    386    384    387     1   110.5600475 386.601600
    388    387    390     1   108.7700466 392.459200
    388    387    389     1   107.5800459 329.699200
    389    387    390     1   108.7700466 392.459200
    390    392    393     1   106.5500460 417.563200
    396    399    400     1   109.8000471 387.438400
    396    399    401     1   109.8000471 387.438400
    397    396    399     1   109.5600471 388.275200
    397    396    426     1   109.7800468 425.094400
    397    396    398     1   108.4600466 328.025600
    398    396    399     1   109.5600471 388.275200
    398    396    426     1   109.7800468 425.094400
    399    402    403     1   110.5600475 386.601600
    399    402    404     1   110.5600475 386.601600
    400    399    402     1   109.8000471 387.438400
    400    399    401     1   107.5800459 329.699200
    401    399    402     1   109.8000471 387.438400
    402    405    427     1   110.1100470 384.091200
    403    402    405     1   108.0100461 406.684800
    403    402    404     1   109.7500473 328.025600
    404    402    405     1   108.0100461 406.684800
    405    406    407     1   108.0100461 406.684800
    405    406    408     1   108.0100461 406.684800
    405    416    417     1   108.0100461 406.684800
    405    416    418     1   108.0100461 406.684800
    406    409    410     1   109.8000471 387.438400
    406    409    411     1   109.8000471 387.438400
    406    405    427     1   110.1100470 384.091200
    407    406    409     1   110.5600475 386.601600
    407    406    408     1   109.7500473 328.025600
    408    406    409     1   110.5600475 386.601600
    410    409    412     1   108.7700466 392.459200
    410    409    411     1   107.5800459 329.699200
    411    409    412     1   108.7700466 392.459200
    412    414    415     1   106.5500460 417.563200
    416    419    420     1   109.8000471 387.438400
    416    419    421     1   109.8000471 387.438400
    416    405    427     1   110.1100470 384.091200
    417    416    419     1   110.5600475 386.601600
    417    416    418     1   109.7500473 328.025600
    418    416    419     1   110.5600475 386.601600
    420    419    422     1   108.7700466 392.459200
    420    419    421     1   107.5800459 329.699200
    421    419    422     1   108.7700466 392.459200
    422    424    425     1   106.5500460 417.563200
    428    431    432     1   109.8000471 387.438400
    428    431    433     1   109.8000471 387.438400
    429    428    431     1   109.5600471 388.275200
    429    428    458     1   109.7800468 425.094400
    429    428    430     1   108.4600466 328.025600
    430    428    431     1   109.5600471 388.275200
    430    428    458     1   109.7800468 425.094400
    431    434    435     1   110.5600475 386.601600
    431    434    436     1   110.5600475 386.601600
    432    431    434     1   109.8000471 387.438400
    432    431    433     1   107.5800459 329.699200
    433    431    434     1   109.8000471 387.438400
    434    437    459     1   110.1100470 384.091200
    435    434    437     1   108.0100461 406.684800
    435    434    436     1   109.7500473 328.025600
    436    434    437     1   108.0100461 406.684800
    437    438    439     1   108.0100461 406.684800
    437    438    440     1   108.0100461 406.684800
    437    448    449     1   108.0100461 406.684800
    437    448    450     1   108.0100461 406.684800
    438    437    459     1   110.1100470 384.091200
    438    441    442     1   109.8000471 387.438400
    438    441    443     1   109.8000471 387.438400
    439    438    441     1   110.5600475 386.601600
    439    438    440     1   109.7500473 328.025600
    440    438    441     1   110.5600475 386.601600
    442    441    444     1   108.7700466 392.459200
    442    441    443     1   107.5800459 329.699200
    443    441    444     1   108.7700466 392.459200
    444    446    447     1   106.5500460 417.563200
    448    437    459     1   110.1100470 384.091200
    448    451    452     1   109.8000471 387.438400
    448    451    453     1   109.8000471 387.438400
    449    448    451     1   110.5600475 386.601600
    449    448    450     1   109.7500473 328.025600
    450    448    451     1   110.5600475 386.601600
    452    451    454     1   108.7700466 392.459200
    452    451    453     1   107.5800459 329.699200
    453    451    454     1   108.7700466 392.459200
    454    456    457     1   106.5500460 417.563200
    460    463    464     1   109.8000471 387.438400
    460    463    465     1   109.8000471 387.438400
    461    460    463     1   109.5600471 388.275200
    461    460    490     1   109.7800468 425.094400
    461    460    462     1   108.4600466 328.025600
    462    460    463     1   109.5600471 388.275200
    462    460    490     1   109.7800468 425.094400
    463    466    467     1   110.5600475 386.601600
    463    466    468     1   110.5600475 386.601600
    464    463    466     1   109.8000471 387.438400
    464    463    465     1   107.5800459 329.699200
    465    463    466     1   109.8000471 387.438400
    466    469    491     1   110.1100470 384.091200
    467    466    469     1   108.0100461 406.684800
    467    466    468     1   109.7500473 328.025600
    468    466    469     1   108.0100461 406.684800
    469    470    471     1   108.0100461 406.684800
    469    470    472     1   108.0100461 406.684800
    469    480    481     1   108.0100461 406.684800
    469    480    482     1   108.0100461 406.684800
    470    473    474     1   109.8000471 387.438400
    470    473    475     1   109.8000471 387.438400
    470    469    491     1   110.1100470 384.091200
    471    470    473     1   110.5600475 386.601600
    471    470    472     1   109.7500473 328.025600
    472    470    473     1   110.5600475 386.601600
    474    473    476     1   108.7700466 392.459200
    474    473    475     1   107.5800459 329.699200
    475    473    476     1   108.7700466 392.459200
    476    478    479     1   106.5500460 417.563200
    480    483    484     1   109.8000471 387.438400
    480    483    485     1   109.8000471 387.438400
    480    469    491     1   110.1100470 384.091200
    481    480    483     1   110.5600475 386.601600
    481    480    482     1   109.7500473 328.025600
    482    480    483     1   110.5600475 386.601600
    484    483    486     1   108.7700466 392.459200
    484    483    485     1   107.5800459 329.699200
    485    483    486     1   108.7700466 392.459200
    486    488    489     1   106.5500460 417.563200
    492    495    496     1   109.8000471 387.438400
    492    495    497     1   109.8000471 387.438400
    493    492    495     1   109.5600471 388.275200
    493    492    522     1   109.7800468 425.094400
    493    492    494     1   108.4600466 328.025600
    494    492    495     1   109.5600471 388.275200
    494    492    522     1   109.7800468 425.094400
    495    498    499     1   110.5600475 386.601600
    495    498    500     1   110.5600475 386.601600
    496    495    498     1   109.8000471 387.438400
    496    495    497     1   107.5800459 329.699200
    497    495    498     1   109.8000471 387.438400
    498    501    523     1   110.1100470 384.091200
    499    498    501     1   108.0100461 406.684800
    499    498    500     1   109.7500473 328.025600
    500    498    501     1   108.0100461 406.684800
    501    502    503     1   108.0100461 406.684800
    501    502    504     1   108.0100461 406.684800
    501    512    513     1   108.0100461 406.684800
    501    512    514     1   108.0100461 406.684800
    502    501    523     1   110.1100470 384.091200
    502    505    506     1   109.8000471 387.438400
    502    505    507     1   109.8000471 387.438400
    503    502    505     1   110.5600475 386.601600
    503    502    504     1   109.7500473 328.025600
    504    502    505     1   110.5600475 386.601600
    506    505    508     1   108.7700466 392.459200
    506    505    507     1   107.5800459 329.699200
    507    505    508     1   108.7700466 392.459200
    508    510    511     1   106.5500460 417.563200
    512    501    523     1   110.1100470 384.091200
    512    515    516     1   109.8000471 387.438400
    512    515    517     1   109.8000471 387.438400
    513    512    515     1   110.5600475 386.601600
    513    512    514     1   109.7500473 328.025600
    514    512    515     1   110.5600475 386.601600
    516    515    518     1   108.7700466 392.459200
    516    515    517     1   107.5800459 329.699200
    517    515    518     1   108.7700466 392.459200
    518    520    521     1   106.5500460 417.563200
    524    527    528     1   109.8000471 387.438400
    524    527    529     1   109.8000471 387.438400
    525    524    527     1   109.5600471 388.275200
    525    524    554     1   109.7800468 425.094400
    525    524    526     1   108.4600466 328.025600
    526    524    527     1   109.5600471 388.275200
    526    524    554     1   109.7800468 425.094400
    527    530    531     1   110.5600475 386.601600
    527    530    532     1   110.5600475 386.601600
    528    527    530     1   109.8000471 387.438400
    528    527    529     1   107.5800459 329.699200
    529    527    530     1   109.8000471 387.438400
    530    533    555     1   110.1100470 384.091200
    531    530    533     1   108.0100461 406.684800
    531    530    532     1   109.7500473 328.025600
    532    530    533     1   108.0100461 406.684800
    533    534    535     1   108.0100461 406.684800
    533    534    536     1   108.0100461 406.684800
    533    544    545     1   108.0100461 406.684800
    533    544    546     1   108.0100461 406.684800
    534    537    538     1   109.8000471 387.438400
    534    537    539     1   109.8000471 387.438400
    534    533    555     1   110.1100470 384.091200
    535    534    537     1   110.5600475 386.601600
    535    534    536     1   109.7500473 328.025600
    536    534    537     1   110.5600475 386.601600
    538    537    540     1   108.7700466 392.459200
    538    537    539     1   107.5800459 329.699200
    539    537    540     1   108.7700466 392.459200
    540    542    543     1   106.5500460 417.563200
    544    547    548     1   109.8000471 387.438400
    544    547    549     1   109.8000471 387.438400
    544    533    555     1   110.1100470 384.091200
    545    544    547     1   110.5600475 386.601600
    545    544    546     1   109.7500473 328.025600
    546    544    547     1   110.5600475 386.601600
    548    547    550     1   108.7700466 392.459200
    548    547    549     1   107.5800459 329.699200
    549    547    550     1   108.7700466 392.459200
    550    552    553     1   106.5500460 417.563200
    556    559    560     1   109.8000471 387.438400
    556    559    561     1   109.8000471 387.438400
    557    556    559     1   109.5600471 388.275200
    557    556    586     1   109.7800468 425.094400
    557    556    558     1   108.4600466 328.025600
    558    556    559     1   109.5600471 388.275200
    558    556    586     1   109.7800468 425.094400
    559    562    563     1   110.5600475 386.601600
    559    562    564     1   110.5600475 386.601600
    560    559    562     1   109.8000471 387.438400
    560    559    561     1   107.5800459 329.699200
    561    559    562     1   109.8000471 387.438400
    562    565    587     1   110.1100470 384.091200
    563    562    565     1   108.0100461 406.684800
    563    562    564     1   109.7500473 328.025600
    564    562    565     1   108.0100461 406.684800
    565    566    567     1   108.0100461 406.684800
    565    566    568     1   108.0100461 406.684800
    565    576    577     1   108.0100461 406.684800
    565    576    578     1   108.0100461 406.684800
    566    565    587     1   110.1100470 384.091200
    566    569    570     1   109.8000471 387.438400
    566    569    571     1   109.8000471 387.438400
    567    566    569     1   110.5600475 386.601600
    567    566    568     1   109.7500473 328.025600
    568    566    569     1   110.5600475 386.601600
    570    569    572     1   108.7700466 392.459200
    570    569    571     1   107.5800459 329.699200
    571    569    572     1   108.7700466 392.459200
    572    574    575     1   106.5500460 417.563200
    576    565    587     1   110.1100470 384.091200
    576    579    580     1   109.8000471 387.438400
    576    579    581     1   109.8000471 387.438400
    577    576    579     1   110.5600475 386.601600
    577    576    578     1   109.7500473 328.025600
    578    576    579     1   110.5600475 386.601600
    580    579    582     1   108.7700466 392.459200
    580    579    581     1   107.5800459 329.699200
    581    579    582     1   108.7700466 392.459200
    582    584    585     1   106.5500460 417.563200
    588    591    592     1   109.8000471 387.438400
    588    591    593     1   109.8000471 387.438400
    589    588    591     1   109.5600471 388.275200
    589    588    618     1   109.7800468 425.094400
    589    588    590     1   108.4600466 328.025600
    590    588    591     1   109.5600471 388.275200
    590    588    618     1   109.7800468 425.094400
    591    594    595     1   110.5600475 386.601600
    591    594    596     1   110.5600475 386.601600
    592    591    594     1   109.8000471 387.438400
    592    591    593     1   107.5800459 329.699200
    593    591    594     1   109.8000471 387.438400
    594    597    619     1   110.1100470 384.091200
    595    594    597     1   108.0100461 406.684800
    595    594    596     1   109.7500473 328.025600
    596    594    597     1   108.0100461 406.684800
    597    598    599     1   108.0100461 406.684800
    597    598    600     1   108.0100461 406.684800
    597    608    609     1   108.0100461 406.684800
    597    608    610     1   108.0100461 406.684800
    598    601    602     1   109.8000471 387.438400
    598    601    603     1   109.8000471 387.438400
    598    597    619     1   110.1100470 384.091200
    599    598    601     1   110.5600475 386.601600
    599    598    600     1   109.7500473 328.025600
    600    598    601     1   110.5600475 386.601600
    602    601    604     1   108.7700466 392.459200
    602    601    603     1   107.5800459 329.699200
    603    601    604     1   108.7700466 392.459200
    604    606    607     1   106.5500460 417.563200
    608    611    612     1   109.8000471 387.438400
    608    611    613     1   109.8000471 387.438400
    608    597    619     1   110.1100470 384.091200
    609    608    611     1   110.5600475 386.601600
    609    608    610     1   109.7500473 328.025600
    610    608    611     1   110.5600475 386.601600
    612    611    614     1   108.7700466 392.459200
    612    611    613     1   107.5800459 329.699200
    613    611    614     1   108.7700466 392.459200
    614    616    617     1   106.5500460 417.563200
    620    623    624     1   109.8000471 387.438400
    620    623    625     1   109.8000471 387.438400
    621    620    623     1   109.5600471 388.275200
    621    620    650     1   109.7800468 425.094400
    621    620    622     1   108.4600466 328.025600
    622    620    623     1   109.5600471 388.275200
    622    620    650     1   109.7800468 425.094400
    623    626    627     1   110.5600475 386.601600
    623    626    628     1   110.5600475 386.601600
    624    623    626     1   109.8000471 387.438400
    624    623    625     1   107.5800459 329.699200
    625    623    626     1   109.8000471 387.438400
    626    629    651     1   110.1100470 384.091200
    627    626    629     1   108.0100461 406.684800
    627    626    628     1   109.7500473 328.025600
    628    626    629     1   108.0100461 406.684800
    629    630    631     1   108.0100461 406.684800
    629    630    632     1   108.0100461 406.684800
    629    640    641     1   108.0100461 406.684800
    629    640    642     1   108.0100461 406.684800
    630    629    651     1   110.1100470 384.091200
    630    633    634     1   109.8000471 387.438400
    630    633    635     1   109.8000471 387.438400
    631    630    633     1   110.5600475 386.601600
    631    630    632     1   109.7500473 328.025600
    632    630    633     1   110.5600475 386.601600
    634    633    636     1   108.7700466 392.459200
    634    633    635     1   107.5800459 329.699200
    635    633    636     1   108.7700466 392.459200
    636    638    639     1   106.5500460 417.563200
    640    629    651     1   110.1100470 384.091200
    640    643    644     1   109.8000471 387.438400
    640    643    645     1   109.8000471 387.438400
    641    640    643     1   110.5600475 386.601600
    641    640    642     1   109.7500473 328.025600
    642    640    643     1   110.5600475 386.601600
    644    643    646     1   108.7700466 392.459200
    644    643    645     1   107.5800459 329.699200
    645    643    646     1   108.7700466 392.459200
    646    648    649     1   106.5500460 417.563200
    652    655    656     1   109.8000471 387.438400
    652    655    657     1   109.8000471 387.438400
    653    652    655     1   109.5600471 388.275200
    653    652    682     1   109.7800468 425.094400
    653    652    654     1   108.4600466 328.025600
    654    652    655     1   109.5600471 388.275200
    654    652    682     1   109.7800468 425.094400
    655    658    659     1   110.5600475 386.601600
    655    658    660     1   110.5600475 386.601600
    656    655    658     1   109.8000471 387.438400
    656    655    657     1   107.5800459 329.699200
    657    655    658     1   109.8000471 387.438400
    658    661    683     1   110.1100470 384.091200
    659    658    661     1   108.0100461 406.684800
    659    658    660     1   109.7500473 328.025600
    660    658    661     1   108.0100461 406.684800
    661    662    663     1   108.0100461 406.684800
    661    662    664     1   108.0100461 406.684800
    661    672    673     1   108.0100461 406.684800
    661    672    674     1   108.0100461 406.684800
    662    665    666     1   109.8000471 387.438400
    662    665    667     1   109.8000471 387.438400
    662    661    683     1   110.1100470 384.091200
    663    662    665     1   110.5600475 386.601600
    663    662    664     1   109.7500473 328.025600
    664    662    665     1   110.5600475 386.601600
    666    665    668     1   108.7700466 392.459200
    666    665    667     1   107.5800459 329.699200
    667    665    668     1   108.7700466 392.459200
    668    670    671     1   106.5500460 417.563200
    672    675    676     1   109.8000471 387.438400
    672    675    677     1   109.8000471 387.438400
    672    661    683     1   110.1100470 384.091200
    673    672    675     1   110.5600475 386.601600
    673    672    674     1   109.7500473 328.025600
    674    672    675     1   110.5600475 386.601600
    676    675    678     1   108.7700466 392.459200
    676    675    677     1   107.5800459 329.699200
    677    675    678     1   108.7700466 392.459200
    678    680    681     1   106.5500460 417.563200

[ dihedrals ]
;    ai     aj     ak     al funct         c0         c1         c2         c3         c4         c5
      1      2     14     26     1  0.0000000  0.6508444  3
      1      5     17     20     1  0.0000000  0.6508444  3
      1      8     11     23     1  0.0000000  0.6508444  3
      2      1      5     17     1  0.0000000  0.6508444  3
      2      1      8     11     1  0.0000000  0.6508444  3
      2     14     26    118     1  0.0000000  0.6508444  3
      5      1      2     14     1  0.0000000  0.6508444  3
      5      1      8     11     1  0.0000000  0.6508444  3
      5     17     20     58     1  0.0000000  0.6508444  3
      8      1      2     14     1  0.0000000  0.6508444  3
      8      1      5     17     1  0.0000000  0.6508444  3
      8     11     23     88     1  0.0000000  0.6508444  3
     11     23     88     79     1  180.0000771  0.4184000  2
     11     23     88     79     1  0.0000000  1.6024720  3
     14     26    118    109     1  180.0000771  0.4184000  2
     14     26    118    109     1  0.0000000  1.6024720  3
     17     20     58     49     1  180.0000771  0.4184000  2
     17     20     58     49     1  0.0000000  1.6024720  3
     20     58     49     40     1  180.0000771  0.4184000  2
     20     58     49     40     1  0.0000000  1.6024720  3
     23     88     79     70     1  180.0000771  0.4184000  2
     23     88     79     70     1  0.0000000  1.6024720  3
     26    118    109    100     1  180.0000771  0.4184000  2
     26    118    109    100     1  0.0000000  1.6024720  3
     30     31     43     55     1  0.0000000  0.6508444  3
     30     34     46     52     1  0.0000000  0.6508444  3
     30     37     40     49     1  0.0000000  0.6508444  3
     31     30     34     46     1  0.0000000  0.6508444  3
     31     30     37     40     1  0.0000000  0.6508444  3
     31     43     55    178     1  0.0000000  0.6508444  3
     34     30     31     43     1  0.0000000  0.6508444  3
     34     30     37     40     1  0.0000000  0.6508444  3
     34     46     52    148     1  0.0000000  0.6508444  3
     37     30     31     43     1  0.0000000  0.6508444  3
     37     30     34     46     1  0.0000000  0.6508444  3
     37     40     49     58     1  0.0000000  0.6508444  3
     43     55    178    169     1  180.0000771  0.4184000  2
     43     55    178    169     1  0.0000000  1.6024720  3
     46     52    148    139     1  180.0000771  0.4184000  2
     46     52    148    139     1  0.0000000  1.6024720  3
     52    148    139    130     1  180.0000771  0.4184000  2
     52    148    139    130     1  0.0000000  1.6024720  3
     55    178    169    160     1  180.0000771  0.4184000  2
     55    178    169    160     1  0.0000000  1.6024720  3
     60     61     73     85     1  0.0000000  0.6508444  3
     60     64     76     82     1  0.0000000  0.6508444  3
     60     67     70     79     1  0.0000000  0.6508444  3
     61     60     64     76     1  0.0000000  0.6508444  3
     61     60     67     70     1  0.0000000  0.6508444  3
     61     73     85    238     1  0.0000000  0.6508444  3
     64     60     61     73     1  0.0000000  0.6508444  3
     64     60     67     70     1  0.0000000  0.6508444  3
     64     76     82    208     1  0.0000000  0.6508444  3
     67     60     61     73     1  0.0000000  0.6508444  3
     67     60     64     76     1  0.0000000  0.6508444  3
     67     70     79     88     1  0.0000000  0.6508444  3
     73     85    238    229     1  180.0000771  0.4184000  2
     73     85    238    229     1  0.0000000  1.6024720  3
     76     82    208    199     1  180.0000771  0.4184000  2
     76     82    208    199     1  0.0000000  1.6024720  3
     82    208    199    190     1  180.0000771  0.4184000  2
     82    208    199    190     1  0.0000000  1.6024720  3
     85    238    229    220     1  180.0000771  0.4184000  2
     85    238    229    220     1  0.0000000  1.6024720  3
     90     91    103    115     1  0.0000000  0.6508444  3
     90     94    106    112     1  0.0000000  0.6508444  3
     90     97    100    109     1  0.0000000  0.6508444  3
     91     90     94    106     1  0.0000000  0.6508444  3
     91     90     97    100     1  0.0000000  0.6508444  3
     91    103    115    298     1  0.0000000  0.6508444  3
     94     90     91    103     1  0.0000000  0.6508444  3
     94     90     97    100     1  0.0000000  0.6508444  3
     94    106    112    268     1  0.0000000  0.6508444  3
     97     90     91    103     1  0.0000000  0.6508444  3
     97     90     94    106     1  0.0000000  0.6508444  3
     97    100    109    118     1  0.0000000  0.6508444  3
    103    115    298    289     1  180.0000771  0.4184000  2
    103    115    298    289     1  0.0000000  1.6024720  3
    106    112    268    259     1  180.0000771  0.4184000  2
    106    112    268    259     1  0.0000000  1.6024720  3
    112    268    259    250     1  180.0000771  0.4184000  2
    112    268    259    250     1  0.0000000  1.6024720  3
    115    298    289    280     1  180.0000771  0.4184000  2
    115    298    289    280     1  0.0000000  1.6024720  3
    120    121    133    145     1  0.0000000  0.6508444  3
    120    124    136    142     1  0.0000000  0.6508444  3
    120    127    130    139     1  0.0000000  0.6508444  3
    121    120    124    136     1  0.0000000  0.6508444  3
    121    120    127    130     1  0.0000000  0.6508444  3
    121    133    145    362     1  0.0000000  0.6508444  3
    124    120    121    133     1  0.0000000  0.6508444  3
    124    120    127    130     1  0.0000000  0.6508444  3
    124    136    142    330     1  0.0000000  0.6508444  3
    127    120    121    133     1  0.0000000  0.6508444  3
    127    120    124    136     1  0.0000000  0.6508444  3
    127    130    139    148     1  0.0000000  0.6508444  3
    133    145    362    332     1  180.0000771  0.4184000  2
    133    145    362    332     1  0.0000000  1.6024720  3
    136    142    330    300     1  180.0000771  0.4184000  2
    136    142    330    300     1  0.0000000  1.6024720  3
    142    330    300    303     1  180.0000771  0.4184000  2
    142    330    300    303     1  0.0000000  1.6024720  3
    145    362    332    335     1  180.0000771  0.4184000  2
    145    362    332    335     1  0.0000000  1.6024720  3
    150    151    163    175     1  0.0000000  0.6508444  3
    150    154    166    172     1  0.0000000  0.6508444  3
    150    157    160    169     1  0.0000000  0.6508444  3
    151    150    154    166     1  0.0000000  0.6508444  3
    151    150    157    160     1  0.0000000  0.6508444  3
    151    163    175    426     1  0.0000000  0.6508444  3
    154    150    151    163     1  0.0000000  0.6508444  3
    154    150    157    160     1  0.0000000  0.6508444  3
    154    166    172    394     1  0.0000000  0.6508444  3
    157    150    151    163     1  0.0000000  0.6508444  3
    157    150    154    166     1  0.0000000  0.6508444  3
    157    160    169    178     1  0.0000000  0.6508444  3
    163    175    426    396     1  180.0000771  0.4184000  2
    163    175    426    396     1  0.0000000  1.6024720  3
    166    172    394    364     1  180.0000771  0.4184000  2
    166    172    394    364     1  0.0000000  1.6024720  3
    172    394    364    367     1  180.0000771  0.4184000  2
    172    394    364    367     1  0.0000000  1.6024720  3
    175    426    396    399     1  180.0000771  0.4184000  2
    175    426    396    399     1  0.0000000  1.6024720  3
    180    181    193    205     1  0.0000000  0.6508444  3
    180    184    196    202     1  0.0000000  0.6508444  3
    180    187    190    199     1  0.0000000  0.6508444  3
    181    180    184    196     1  0.0000000  0.6508444  3
    181    180    187    190     1  0.0000000  0.6508444  3
    181    193    205    490     1  0.0000000  0.6508444  3
    184    180    181    193     1  0.0000000  0.6508444  3
    184    180    187    190     1  0.0000000  0.6508444  3
    184    196    202    458     1  0.0000000  0.6508444  3
    187    180    181    193     1  0.0000000  0.6508444  3
    187    180    184    196     1  0.0000000  0.6508444  3
    187    190    199    208     1  0.0000000  0.6508444  3
    193    205    490    460     1  180.0000771  0.4184000  2
    193    205    490    460     1  0.0000000  1.6024720  3
    196    202    458    428     1  180.0000771  0.4184000  2
    196    202    458    428     1  0.0000000  1.6024720  3
    202    458    428    431     1  180.0000771  0.4184000  2
    202    458    428    431     1  0.0000000  1.6024720  3
    205    490    460    463     1  180.0000771  0.4184000  2
    205    490    460    463     1  0.0000000  1.6024720  3
    210    211    223    235     1  0.0000000  0.6508444  3
    210    214    226    232     1  0.0000000  0.6508444  3
    210    217    220    229     1  0.0000000  0.6508444  3
    211    210    214    226     1  0.0000000  0.6508444  3
    211    210    217    220     1  0.0000000  0.6508444  3
    211    223    235    554     1  0.0000000  0.6508444  3
    214    210    211    223     1  0.0000000  0.6508444  3
    214    210    217    220     1  0.0000000  0.6508444  3
    214    226    232    522     1  0.0000000  0.6508444  3
    217    210    211    223     1  0.0000000  0.6508444  3
    217    210    214    226     1  0.0000000  0.6508444  3
    217    220    229    238     1  0.0000000  0.6508444  3
    223    235    554    524     1  180.0000771  0.4184000  2
    223    235    554    524     1  0.0000000  1.6024720  3
    226    232    522    492     1  180.0000771  0.4184000  2
    226    232    522    492     1  0.0000000  1.6024720  3
    232    522    492    495     1  180.0000771  0.4184000  2
    232    522    492    495     1  0.0000000  1.6024720  3
    235    554    524    527     1  180.0000771  0.4184000  2
    235    554    524    527     1  0.0000000  1.6024720  3
    240    241    253    265     1  0.0000000  0.6508444  3
    240    244    256    262     1  0.0000000  0.6508444  3
    240    247    250    259     1  0.0000000  0.6508444  3
    241    240    244    256     1  0.0000000  0.6508444  3
    241    240    247    250     1  0.0000000  0.6508444  3
    241    253    265    618     1  0.0000000  0.6508444  3
    244    240    241    253     1  0.0000000  0.6508444  3
    244    240    247    250     1  0.0000000  0.6508444  3
    244    256    262    586     1  0.0000000  0.6508444  3
    247    240    241    253     1  0.0000000  0.6508444  3
    247    240    244    256     1  0.0000000  0.6508444  3
    247    250    259    268     1  0.0000000  0.6508444  3
    253    265    618    588     1  180.0000771  0.4184000  2
    253    265    618    588     1  0.0000000  1.6024720  3
    256    262    586    556     1  180.0000771  0.4184000  2
    256    262    586    556     1  0.0000000  1.6024720  3
    262    586    556    559     1  180.0000771  0.4184000  2
    262    586    556    559     1  0.0000000  1.6024720  3
    265    618    588    591     1  180.0000771  0.4184000  2
    265    618    588    591     1  0.0000000  1.6024720  3
    270    271    283    295     1  0.0000000  0.6508444  3
    270    274    286    292     1  0.0000000  0.6508444  3
    270    277    280    289     1  0.0000000  0.6508444  3
    271    270    274    286     1  0.0000000  0.6508444  3
    271    270    277    280     1  0.0000000  0.6508444  3
    271    283    295    682     1  0.0000000  0.6508444  3
    274    270    271    283     1  0.0000000  0.6508444  3
    274    270    277    280     1  0.0000000  0.6508444  3
    274    286    292    650     1  0.0000000  0.6508444  3
    277    270    271    283     1  0.0000000  0.6508444  3
    277    270    274    286     1  0.0000000  0.6508444  3
    277    280    289    298     1  0.0000000  0.6508444  3
    283    295    682    652     1  180.0000771  0.4184000  2
    283    295    682    652     1  0.0000000  1.6024720  3
    286    292    650    620     1  180.0000771  0.4184000  2
    286    292    650    620     1  0.0000000  1.6024720  3
    292    650    620    623     1  180.0000771  0.4184000  2
    292    650    620    623     1  0.0000000  1.6024720  3
    295    682    652    655     1  180.0000771  0.4184000  2
    295    682    652    655     1  0.0000000  1.6024720  3
    300    303    306    309     1  0.0000000  0.6508444  3
    303    306    309    310     1  0.0000000  0.6508444  3
    303    306    309    320     1  0.0000000  0.6508444  3
    306    303    300    330     1  0.0000000  0.6508444  3
    306    309    310    313     1  0.0000000  0.6508444  3
    306    309    320    323     1  0.0000000  0.6508444  3
    309    310    313    316     1  0.0000000  0.6508444  3
    309    320    323    326     1  0.0000000  0.6508444  3
    310    309    320    323     1  0.0000000  0.6508444  3
    310    313    316    317     1  180.0000771  0.0000000  2
    310    313    316    318     1  180.0000771  0.0000000  2
    313    310    309    320     1  0.0000000  0.6508444  3
    320    323    326    327     1  180.0000771  0.0000000  2
    320    323    326    328     1  180.0000771  0.0000000  2
    332    335    338    341     1  0.0000000  0.6508444  3
    335    338    341    342     1  0.0000000  0.6508444  3
    335    338    341    352     1  0.0000000  0.6508444  3
    338    341    342    345     1  0.0000000  0.6508444  3
    338    341    352    355     1  0.0000000  0.6508444  3
    338    335    332    362     1  0.0000000  0.6508444  3
    341    342    345    348     1  0.0000000  0.6508444  3
    341    352    355    358     1  0.0000000  0.6508444  3
    342    345    348    349     1  180.0000771  0.0000000  2
    342    345    348    350     1  180.0000771  0.0000000  2
    342    341    352    355     1  0.0000000  0.6508444  3
    345    342    341    352     1  0.0000000  0.6508444  3
    352    355    358    359     1  180.0000771  0.0000000  2
    352    355    358    360     1  180.0000771  0.0000000  2
    364    367    370    373     1  0.0000000  0.6508444  3
    367    370    373    374     1  0.0000000  0.6508444  3
    367    370    373    384     1  0.0000000  0.6508444  3
    370    367    364    394     1  0.0000000  0.6508444  3
    370    373    374    377     1  0.0000000  0.6508444  3
    370    373    384    387     1  0.0000000  0.6508444  3
    373    374    377    380     1  0.0000000  0.6508444  3
    373    384    387    390     1  0.0000000  0.6508444  3
    374    373    384    387     1  0.0000000  0.6508444  3
    374    377    380    381     1  180.0000771  0.0000000  2
    374    377    380    382     1  180.0000771  0.0000000  2
    377    374    373    384     1  0.0000000  0.6508444  3
    384    387    390    391     1  180.0000771  0.0000000  2
    384    387    390    392     1  180.0000771  0.0000000  2
    396    399    402    405     1  0.0000000  0.6508444  3
    399    402    405    406     1  0.0000000  0.6508444  3
    399    402    405    416     1  0.0000000  0.6508444  3
    402    405    406    409     1  0.0000000  0.6508444  3
    402    405    416    419     1  0.0000000  0.6508444  3
    402    399    396    426     1  0.0000000  0.6508444  3
    405    406    409    412     1  0.0000000  0.6508444  3
    405    416    419    422     1  0.0000000  0.6508444  3
    406    409    412    413     1  180.0000771  0.0000000  2
    406    409    412    414     1  180.0000771  0.0000000  2
    406    405    416    419     1  0.0000000  0.6508444  3
    409    406    405    416     1  0.0000000  0.6508444  3
    416    419    422    423     1  180.0000771  0.0000000  2
    416    419    422    424     1  180.0000771  0.0000000  2
    428    431    434    437     1  0.0000000  0.6508444  3
    431    434    437    438     1  0.0000000  0.6508444  3
    431    434    437    448     1  0.0000000  0.6508444  3
    434    431    428    458     1  0.0000000  0.6508444  3
    434    437    438    441     1  0.0000000  0.6508444  3
    434    437    448    451     1  0.0000000  0.6508444  3
    437    438    441    444     1  0.0000000  0.6508444  3
    437    448    451    454     1  0.0000000  0.6508444  3
    438    437    448    451     1  0.0000000  0.6508444  3
    438    441    444    445     1  180.0000771  0.0000000  2
    438    441    444    446     1  180.0000771  0.0000000  2
    441    438    437    448     1  0.0000000  0.6508444  3
    448    451    454    455     1  180.0000771  0.0000000  2
    448    451    454    456     1  180.0000771  0.0000000  2
    460    463    466    469     1  0.0000000  0.6508444  3
    463    466    469    470     1  0.0000000  0.6508444  3
    463    466    469    480     1  0.0000000  0.6508444  3
    466    469    470    473     1  0.0000000  0.6508444  3
    466    469    480    483     1  0.0000000  0.6508444  3
    466    463    460    490     1  0.0000000  0.6508444  3
    469    470    473    476     1  0.0000000  0.6508444  3
    469    480    483    486     1  0.0000000  0.6508444  3
    470    473    476    477     1  180.0000771  0.0000000  2
    470    473    476    478     1  180.0000771  0.0000000  2
    470    469    480    483     1  0.0000000  0.6508444  3
    473    470    469    480     1  0.0000000  0.6508444  3
    480    483    486    487     1  180.0000771  0.0000000  2
    480    483    486    488     1  180.0000771  0.0000000  2
    492    495    498    501     1  0.0000000  0.6508444  3
    495    498    501    502     1  0.0000000  0.6508444  3
    495    498    501    512     1  0.0000000  0.6508444  3
    498    495    492    522     1  0.0000000  0.6508444  3
    498    501    502    505     1  0.0000000  0.6508444  3
    498    501    512    515     1  0.0000000  0.6508444  3
    501    502    505    508     1  0.0000000  0.6508444  3
    501    512    515    518     1  0.0000000  0.6508444  3
    502    501    512    515     1  0.0000000  0.6508444  3
    502    505    508    509     1  180.0000771  0.0000000  2
    502    505    508    510     1  180.0000771  0.0000000  2
    505    502    501    512     1  0.0000000  0.6508444  3
    512    515    518    519     1  180.0000771  0.0000000  2
    512    515    518    520     1  180.0000771  0.0000000  2
    524    527    530    533     1  0.0000000  0.6508444  3
    527    530    533    534     1  0.0000000  0.6508444  3
    527    530    533    544     1  0.0000000  0.6508444  3
    530    533    534    537     1  0.0000000  0.6508444  3
    530    533    544    547     1  0.0000000  0.6508444  3
    530    527    524    554     1  0.0000000  0.6508444  3
    533    534    537    540     1  0.0000000  0.6508444  3
    533    544    547    550     1  0.0000000  0.6508444  3
    534    537    540    541     1  180.0000771  0.0000000  2
    534    537    540    542     1  180.0000771  0.0000000  2
    534    533    544    547     1  0.0000000  0.6508444  3
    537    534    533    544     1  0.0000000  0.6508444  3
    544    547    550    551     1  180.0000771  0.0000000  2
    544    547    550    552     1  180.0000771  0.0000000  2
    556    559    562    565     1  0.0000000  0.6508444  3
    559    562    565    566     1  0.0000000  0.6508444  3
    559    562    565    576     1  0.0000000  0.6508444  3
    562    559    556    586     1  0.0000000  0.6508444  3
    562    565    566    569     1  0.0000000  0.6508444  3
    562    565    576    579     1  0.0000000  0.6508444  3
    565    566    569    572     1  0.0000000  0.6508444  3
    565    576    579    582     1  0.0000000  0.6508444  3
    566    565    576    579     1  0.0000000  0.6508444  3
    566    569    572    573     1  180.0000771  0.0000000  2
    566    569    572    574     1  180.0000771  0.0000000  2
    569    566    565    576     1  0.0000000  0.6508444  3
    576    579    582    583     1  180.0000771  0.0000000  2
    576    579    582    584     1  180.0000771  0.0000000  2
    588    591    594    597     1  0.0000000  0.6508444  3
    591    594    597    598     1  0.0000000  0.6508444  3
    591    594    597    608     1  0.0000000  0.6508444  3
    594    597    598    601     1  0.0000000  0.6508444  3
    594    597    608    611     1  0.0000000  0.6508444  3
    594    591    588    618     1  0.0000000  0.6508444  3
    597    598    601    604     1  0.0000000  0.6508444  3
    597    608    611    614     1  0.0000000  0.6508444  3
    598    601    604    605     1  180.0000771  0.0000000  2
    598    601    604    606     1  180.0000771  0.0000000  2
    598    597    608    611     1  0.0000000  0.6508444  3
    601    598    597    608     1  0.0000000  0.6508444  3
    608    611    614    615     1  180.0000771  0.0000000  2
    608    611    614    616     1  180.0000771  0.0000000  2
    620    623    626    629     1  0.0000000  0.6508444  3
    623    626    629    630     1  0.0000000  0.6508444  3
    623    626    629    640     1  0.0000000  0.6508444  3
    626    623    620    650     1  0.0000000  0.6508444  3
    626    629    630    633     1  0.0000000  0.6508444  3
    626    629    640    643     1  0.0000000  0.6508444  3
    629    630    633    636     1  0.0000000  0.6508444  3
    629    640    643    646     1  0.0000000  0.6508444  3
    630    629    640    643     1  0.0000000  0.6508444  3
    630    633    636    637     1  180.0000771  0.0000000  2
    630    633    636    638     1  180.0000771  0.0000000  2
    633    630    629    640     1  0.0000000  0.6508444  3
    640    643    646    647     1  180.0000771  0.0000000  2
    640    643    646    648     1  180.0000771  0.0000000  2
    652    655    658    661     1  0.0000000  0.6508444  3
    655    658    661    662     1  0.0000000  0.6508444  3
    655    658    661    672     1  0.0000000  0.6508444  3
    658    661    662    665     1  0.0000000  0.6508444  3
    658    661    672    675     1  0.0000000  0.6508444  3
    658    655    652    682     1  0.0000000  0.6508444  3
    661    662    665    668     1  0.0000000  0.6508444  3
    661    672    675    678     1  0.0000000  0.6508444  3
    662    665    668    669     1  180.0000771  0.0000000  2
    662    665    668    670     1  180.0000771  0.0000000  2
    662    661    672    675     1  0.0000000  0.6508444  3
    665    662    661    672     1  0.0000000  0.6508444  3
    672    675    678    679     1  180.0000771  0.0000000  2
    672    675    678    680     1  180.0000771  0.0000000  2
    313    317    316    318     4  180.0000771  4.6024000  2
    323    327    326    328     4  180.0000771  4.6024000  2
    345    349    348    350     4  180.0000771  4.6024000  2
    355    359    358    360     4  180.0000771  4.6024000  2
    377    381    380    382     4  180.0000771  4.6024000  2
    387    391    390    392     4  180.0000771  4.6024000  2
    409    413    412    414     4  180.0000771  4.6024000  2
    419    423    422    424     4  180.0000771  4.6024000  2
    441    445    444    446     4  180.0000771  4.6024000  2
    451    455    454    456     4  180.0000771  4.6024000  2
    473    477    476    478     4  180.0000771  4.6024000  2
    483    487    486    488     4  180.0000771  4.6024000  2
    505    509    508    510     4  180.0000771  4.6024000  2
    515    519    518    520     4  180.0000771  4.6024000  2
    537    541    540    542     4  180.0000771  4.6024000  2
    547    551    550    552     4  180.0000771  4.6024000  2
    569    573    572    574     4  180.0000771  4.6024000  2
    579    583    582    584     4  180.0000771  4.6024000  2
    601    605    604    606     4  180.0000771  4.6024000  2
    611    615    614    616     4  180.0000771  4.6024000  2
    633    637    636    638     4  180.0000771  4.6024000  2
    643    647    646    648     4  180.0000771  4.6024000  2
    665    669    668    670     4  180.0000771  4.6024000  2
    675    679    678    680     4  180.0000771  4.6024000  2
      1      2     14     15     1  0.0000000  0.6508444  3
      1      2     14     16     1  0.0000000  0.6508444  3
      1      5     17     18     1  0.0000000  0.6508444  3
      1      5     17     19     1  0.0000000  0.6508444  3
      1      8     11     12     1  0.0000000  0.6508444  3
      1      8     11     13     1  0.0000000  0.6508444  3
      2      1      5      6     1  0.0000000  0.6508444  3
      2      1      5      7     1  0.0000000  0.6508444  3
      2      1      8      9     1  0.0000000  0.6508444  3
      2      1      8     10     1  0.0000000  0.6508444  3
      2     14     26     27     1  0.0000000  0.6508444  3
      2     14     26     28     1  0.0000000  0.6508444  3
      5      1      2      3     1  0.0000000  0.6508444  3
      8      1      2      3     1  0.0000000  0.6508444  3
     29      1      2      3     1  0.0000000  0.6508444  3
      3      2     14     26     1  0.0000000  0.6508444  3
      3      2     14     15     1  0.0000000  0.6508444  3
      3      2     14     16     1  0.0000000  0.6508444  3
      5      1      2      4     1  0.0000000  0.6508444  3
      8      1      2      4     1  0.0000000  0.6508444  3
     29      1      2      4     1  0.0000000  0.6508444  3
      4      2     14     26     1  0.0000000  0.6508444  3
      4      2     14     15     1  0.0000000  0.6508444  3
      4      2     14     16     1  0.0000000  0.6508444  3
      5      1      8      9     1  0.0000000  0.6508444  3
      5      1      8     10     1  0.0000000  0.6508444  3
      5     17     20     21     1  0.0000000  0.6508444  3
      5     17     20     22     1  0.0000000  0.6508444  3
      8      1      5      6     1  0.0000000  0.6508444  3
     29      1      5      6     1  0.0000000  0.6508444  3
      6      5     17     20     1  0.0000000  0.6508444  3
      6      5     17     18     1  0.0000000  0.6508444  3
      6      5     17     19     1  0.0000000  0.6508444  3
      8      1      5      7     1  0.0000000  0.6508444  3
     29      1      5      7     1  0.0000000  0.6508444  3
      7      5     17     20     1  0.0000000  0.6508444  3
      7      5     17     18     1  0.0000000  0.6508444  3
      7      5     17     19     1  0.0000000  0.6508444  3
      8     11     23     24     1  0.0000000  0.6508444  3
      8     11     23     25     1  0.0000000  0.6508444  3
     29      1      8      9     1  0.0000000  0.6508444  3
      9      8     11     23     1  0.0000000  0.6508444  3
      9      8     11     12     1  0.0000000  0.6508444  3
      9      8     11     13     1  0.0000000  0.6508444  3
     29      1      8     10     1  0.0000000  0.6508444  3
     10      8     11     23     1  0.0000000  0.6508444  3
     10      8     11     12     1  0.0000000  0.6508444  3
     10      8     11     13     1  0.0000000  0.6508444  3
     29      1      8     11     1  0.0000000  0.6508444  3
     12     11     23     88     1  0.0000000  1.0460000  1
     12     11     23     88     1  0.0000000  0.0000000  3
     12     11     23     24     1  0.0000000  0.6508444  3
     12     11     23     25     1  0.0000000  0.6508444  3
     13     11     23     88     1  0.0000000  1.0460000  1
     13     11     23     88     1  0.0000000  0.0000000  3
     13     11     23     24     1  0.0000000  0.6508444  3
     13     11     23     25     1  0.0000000  0.6508444  3
     29      1      2     14     1  0.0000000  0.6508444  3
     15     14     26    118     1  0.0000000  1.0460000  1
     15     14     26    118     1  0.0000000  0.0000000  3
     15     14     26     27     1  0.0000000  0.6508444  3
     15     14     26     28     1  0.0000000  0.6508444  3
     16     14     26    118     1  0.0000000  1.0460000  1
     16     14     26    118     1  0.0000000  0.0000000  3
     16     14     26     27     1  0.0000000  0.6508444  3
     16     14     26     28     1  0.0000000  0.6508444  3
     29      1      5     17     1  0.0000000  0.6508444  3
     18     17     20     58     1  0.0000000  1.0460000  1
     18     17     20     58     1  0.0000000  0.0000000  3
     18     17     20     21     1  0.0000000  0.6508444  3
     18     17     20     22     1  0.0000000  0.6508444  3
     19     17     20     58     1  0.0000000  1.0460000  1
     19     17     20     58     1  0.0000000  0.0000000  3
     19     17     20     21     1  0.0000000  0.6508444  3
     19     17     20     22     1  0.0000000  0.6508444  3
     20     58     49     50     1  0.0000000  1.6038667  3
     20     58     49     51     1  0.0000000  1.6038667  3
     21     20     58     49     1  0.0000000  1.6038667  3
     22     20     58     49     1  0.0000000  1.6038667  3
     23     88     79     80     1  0.0000000  1.6038667  3
     23     88     79     81     1  0.0000000  1.6038667  3
     24     23     88     79     1  0.0000000  1.6038667  3
     25     23     88     79     1  0.0000000  1.6038667  3
     26    118    109    110     1  0.0000000  1.6038667  3
     26    118    109    111     1  0.0000000  1.6038667  3
     27     26    118    109     1  0.0000000  1.6038667  3
     28     26    118    109     1  0.0000000  1.6038667  3
     30     31     43     44     1  0.0000000  0.6508444  3
     30     31     43     45     1  0.0000000  0.6508444  3
     30     34     46     47     1  0.0000000  0.6508444  3
     30     34     46     48     1  0.0000000  0.6508444  3
     30     37     40     41     1  0.0000000  0.6508444  3
     30     37     40     42     1  0.0000000  0.6508444  3
     31     30     34     35     1  0.0000000  0.6508444  3
     31     30     34     36     1  0.0000000  0.6508444  3
     31     30     37     38     1  0.0000000  0.6508444  3
     31     30     37     39     1  0.0000000  0.6508444  3
     31     43     55     56     1  0.0000000  0.6508444  3
     31     43     55     57     1  0.0000000  0.6508444  3
     32     31     30     34     1  0.0000000  0.6508444  3
     32     31     30     37     1  0.0000000  0.6508444  3
     32     31     30     59     1  0.0000000  0.6508444  3
     32     31     43     55     1  0.0000000  0.6508444  3
     32     31     43     44     1  0.0000000  0.6508444  3
     32     31     43     45     1  0.0000000  0.6508444  3
     33     31     30     34     1  0.0000000  0.6508444  3
     33     31     30     37     1  0.0000000  0.6508444  3
     33     31     30     59     1  0.0000000  0.6508444  3
     33     31     43     55     1  0.0000000  0.6508444  3
     33     31     43     44     1  0.0000000  0.6508444  3
     33     31     43     45     1  0.0000000  0.6508444  3
     34     30     37     38     1  0.0000000  0.6508444  3
     34     30     37     39     1  0.0000000  0.6508444  3
     34     46     52     53     1  0.0000000  0.6508444  3
     34     46     52     54     1  0.0000000  0.6508444  3
     35     34     30     37     1  0.0000000  0.6508444  3
     35     34     30     59     1  0.0000000  0.6508444  3
     35     34     46     52     1  0.0000000  0.6508444  3
     35     34     46     47     1  0.0000000  0.6508444  3
     35     34     46     48     1  0.0000000  0.6508444  3
     36     34     30     37     1  0.0000000  0.6508444  3
     36     34     30     59     1  0.0000000  0.6508444  3
     36     34     46     52     1  0.0000000  0.6508444  3
     36     34     46     47     1  0.0000000  0.6508444  3
     36     34     46     48     1  0.0000000  0.6508444  3
     37     40     49     50     1  0.0000000  0.6508444  3
     37     40     49     51     1  0.0000000  0.6508444  3
     38     37     30     59     1  0.0000000  0.6508444  3
     38     37     40     49     1  0.0000000  0.6508444  3
     38     37     40     41     1  0.0000000  0.6508444  3
     38     37     40     42     1  0.0000000  0.6508444  3
     39     37     30     59     1  0.0000000  0.6508444  3
     39     37     40     49     1  0.0000000  0.6508444  3
     39     37     40     41     1  0.0000000  0.6508444  3
     39     37     40     42     1  0.0000000  0.6508444  3
     40     37     30     59     1  0.0000000  0.6508444  3
     41     40     49     58     1  0.0000000  1.0460000  1
     41     40     49     58     1  0.0000000  0.0000000  3
     41     40     49     50     1  0.0000000  0.6508444  3
     41     40     49     51     1  0.0000000  0.6508444  3
     42     40     49     58     1  0.0000000  1.0460000  1
     42     40     49     58     1  0.0000000  0.0000000  3
     42     40     49     50     1  0.0000000  0.6508444  3
     42     40     49     51     1  0.0000000  0.6508444  3
     43     31     30     59     1  0.0000000  0.6508444  3
     44     43     55    178     1  0.0000000  1.0460000  1
     44     43     55    178     1  0.0000000  0.0000000  3
     44     43     55     56     1  0.0000000  0.6508444  3
     44     43     55     57     1  0.0000000  0.6508444  3
     45     43     55    178     1  0.0000000  1.0460000  1
     45     43     55    178     1  0.0000000  0.0000000  3
     45     43     55     56     1  0.0000000  0.6508444  3
     45     43     55     57     1  0.0000000  0.6508444  3
     46     34     30     59     1  0.0000000  0.6508444  3
     47     46     52    148     1  0.0000000  1.0460000  1
     47     46     52    148     1  0.0000000  0.0000000  3
     47     46     52     53     1  0.0000000  0.6508444  3
     47     46     52     54     1  0.0000000  0.6508444  3
     48     46     52    148     1  0.0000000  1.0460000  1
     48     46     52    148     1  0.0000000  0.0000000  3
     48     46     52     53     1  0.0000000  0.6508444  3
     48     46     52     54     1  0.0000000  0.6508444  3
     52    148    139    140     1  0.0000000  1.6038667  3
     52    148    139    141     1  0.0000000  1.6038667  3
     53     52    148    139     1  0.0000000  1.6038667  3
     54     52    148    139     1  0.0000000  1.6038667  3
     55    178    169    170     1  0.0000000  1.6038667  3
     55    178    169    171     1  0.0000000  1.6038667  3
     56     55    178    169     1  0.0000000  1.6038667  3
     57     55    178    169     1  0.0000000  1.6038667  3
     60     61     73     74     1  0.0000000  0.6508444  3
     60     61     73     75     1  0.0000000  0.6508444  3
     60     64     76     77     1  0.0000000  0.6508444  3
     60     64     76     78     1  0.0000000  0.6508444  3
     60     67     70     71     1  0.0000000  0.6508444  3
     60     67     70     72     1  0.0000000  0.6508444  3
     61     60     64     65     1  0.0000000  0.6508444  3
     61     60     64     66     1  0.0000000  0.6508444  3
     61     60     67     68     1  0.0000000  0.6508444  3
     61     60     67     69     1  0.0000000  0.6508444  3
     61     73     85     86     1  0.0000000  0.6508444  3
     61     73     85     87     1  0.0000000  0.6508444  3
     62     61     60     64     1  0.0000000  0.6508444  3
     62     61     60     67     1  0.0000000  0.6508444  3
     62     61     60     89     1  0.0000000  0.6508444  3
     62     61     73     85     1  0.0000000  0.6508444  3
     62     61     73     74     1  0.0000000  0.6508444  3
     62     61     73     75     1  0.0000000  0.6508444  3
     63     61     60     64     1  0.0000000  0.6508444  3
     63     61     60     67     1  0.0000000  0.6508444  3
     63     61     60     89     1  0.0000000  0.6508444  3
     63     61     73     85     1  0.0000000  0.6508444  3
     63     61     73     74     1  0.0000000  0.6508444  3
     63     61     73     75     1  0.0000000  0.6508444  3
     64     60     67     68     1  0.0000000  0.6508444  3
     64     60     67     69     1  0.0000000  0.6508444  3
     64     76     82     83     1  0.0000000  0.6508444  3
     64     76     82     84     1  0.0000000  0.6508444  3
     65     64     60     67     1  0.0000000  0.6508444  3
     65     64     60     89     1  0.0000000  0.6508444  3
     65     64     76     82     1  0.0000000  0.6508444  3
     65     64     76     77     1  0.0000000  0.6508444  3
     65     64     76     78     1  0.0000000  0.6508444  3
     66     64     60     67     1  0.0000000  0.6508444  3
     66     64     60     89     1  0.0000000  0.6508444  3
     66     64     76     82     1  0.0000000  0.6508444  3
     66     64     76     77     1  0.0000000  0.6508444  3
     66     64     76     78     1  0.0000000  0.6508444  3
     67     70     79     80     1  0.0000000  0.6508444  3
     67     70     79     81     1  0.0000000  0.6508444  3
     68     67     60     89     1  0.0000000  0.6508444  3
     68     67     70     79     1  0.0000000  0.6508444  3
     68     67     70     71     1  0.0000000  0.6508444  3
     68     67     70     72     1  0.0000000  0.6508444  3
     69     67     60     89     1  0.0000000  0.6508444  3
     69     67     70     79     1  0.0000000  0.6508444  3
     69     67     70     71     1  0.0000000  0.6508444  3
     69     67     70     72     1  0.0000000  0.6508444  3
     70     67     60     89     1  0.0000000  0.6508444  3
     71     70     79     88     1  0.0000000  1.0460000  1
     71     70     79     88     1  0.0000000  0.0000000  3
     71     70     79     80     1  0.0000000  0.6508444  3
     71     70     79     81     1  0.0000000  0.6508444  3
     72     70     79     88     1  0.0000000  1.0460000  1
     72     70     79     88     1  0.0000000  0.0000000  3
     72     70     79     80     1  0.0000000  0.6508444  3
     72     70     79     81     1  0.0000000  0.6508444  3
     73     61     60     89     1  0.0000000  0.6508444  3
     74     73     85    238     1  0.0000000  1.0460000  1
     74     73     85    238     1  0.0000000  0.0000000  3
     74     73     85     86     1  0.0000000  0.6508444  3
     74     73     85     87     1  0.0000000  0.6508444  3
     75     73     85    238     1  0.0000000  1.0460000  1
     75     73     85    238     1  0.0000000  0.0000000  3
     75     73     85     86     1  0.0000000  0.6508444  3
     75     73     85     87     1  0.0000000  0.6508444  3
     76     64     60     89     1  0.0000000  0.6508444  3
     77     76     82    208     1  0.0000000  1.0460000  1
     77     76     82    208     1  0.0000000  0.0000000  3
     77     76     82     83     1  0.0000000  0.6508444  3
     77     76     82     84     1  0.0000000  0.6508444  3
     78     76     82    208     1  0.0000000  1.0460000  1
     78     76     82    208     1  0.0000000  0.0000000  3
     78     76     82     83     1  0.0000000  0.6508444  3
     78     76     82     84     1  0.0000000  0.6508444  3
     82    208    199    200     1  0.0000000  1.6038667  3
     82    208    199    201     1  0.0000000  1.6038667  3
     83     82    208    199     1  0.0000000  1.6038667  3
     84     82    208    199     1  0.0000000  1.6038667  3
     85    238    229    230     1  0.0000000  1.6038667  3
     85    238    229    231     1  0.0000000  1.6038667  3
     86     85    238    229     1  0.0000000  1.6038667  3
     87     85    238    229     1  0.0000000  1.6038667  3
     90     91    103    104     1  0.0000000  0.6508444  3
     90     91    103    105     1  0.0000000  0.6508444  3
     90     94    106    107     1  0.0000000  0.6508444  3
     90     94    106    108     1  0.0000000  0.6508444  3
     90     97    100    101     1  0.0000000  0.6508444  3
     90     97    100    102     1  0.0000000  0.6508444  3
     91     90     94     95     1  0.0000000  0.6508444  3
     91     90     94     96     1  0.0000000  0.6508444  3
     91     90     97     98     1  0.0000000  0.6508444  3
     91     90     97     99     1  0.0000000  0.6508444  3
     91    103    115    116     1  0.0000000  0.6508444  3
     91    103    115    117     1  0.0000000  0.6508444  3
     92     91     90     94     1  0.0000000  0.6508444  3
     92     91     90     97     1  0.0000000  0.6508444  3
     92     91     90    119     1  0.0000000  0.6508444  3
     92     91    103    115     1  0.0000000  0.6508444  3
     92     91    103    104     1  0.0000000  0.6508444  3
     92     91    103    105     1  0.0000000  0.6508444  3
     93     91     90     94     1  0.0000000  0.6508444  3
     93     91     90     97     1  0.0000000  0.6508444  3
     93     91     90    119     1  0.0000000  0.6508444  3
     93     91    103    115     1  0.0000000  0.6508444  3
     93     91    103    104     1  0.0000000  0.6508444  3
     93     91    103    105     1  0.0000000  0.6508444  3
     94     90     97     98     1  0.0000000  0.6508444  3
     94     90     97     99     1  0.0000000  0.6508444  3
     94    106    112    113     1  0.0000000  0.6508444  3
     94    106    112    114     1  0.0000000  0.6508444  3
     95     94     90     97     1  0.0000000  0.6508444  3
     95     94     90    119     1  0.0000000  0.6508444  3
     95     94    106    112     1  0.0000000  0.6508444  3
     95     94    106    107     1  0.0000000  0.6508444  3
     95     94    106    108     1  0.0000000  0.6508444  3
     96     94     90     97     1  0.0000000  0.6508444  3
     96     94     90    119     1  0.0000000  0.6508444  3
     96     94    106    112     1  0.0000000  0.6508444  3
     96     94    106    107     1  0.0000000  0.6508444  3
     96     94    106    108     1  0.0000000  0.6508444  3
     97    100    109    110     1  0.0000000  0.6508444  3
     97    100    109    111     1  0.0000000  0.6508444  3
     98     97     90    119     1  0.0000000  0.6508444  3
     98     97    100    109     1  0.0000000  0.6508444  3
     98     97    100    101     1  0.0000000  0.6508444  3
     98     97    100    102     1  0.0000000  0.6508444  3
     99     97     90    119     1  0.0000000  0.6508444  3
     99     97    100    109     1  0.0000000  0.6508444  3
     99     97    100    101     1  0.0000000  0.6508444  3
     99     97    100    102     1  0.0000000  0.6508444  3
    100     97     90    119     1  0.0000000  0.6508444  3
    101    100    109    118     1  0.0000000  1.0460000  1
    101    100    109    118     1  0.0000000  0.0000000  3
    101    100    109    110     1  0.0000000  0.6508444  3
    101    100    109    111     1  0.0000000  0.6508444  3
    102    100    109    118     1  0.0000000  1.0460000  1
    102    100    109    118     1  0.0000000  0.0000000  3
    102    100    109    110     1  0.0000000  0.6508444  3
    102    100    109    111     1  0.0000000  0.6508444  3
    103     91     90    119     1  0.0000000  0.6508444  3
    104    103    115    298     1  0.0000000  1.0460000  1
    104    103    115    298     1  0.0000000  0.0000000  3
    104    103    115    116     1  0.0000000  0.6508444  3
    104    103    115    117     1  0.0000000  0.6508444  3
    105    103    115    298     1  0.0000000  1.0460000  1
    105    103    115    298     1  0.0000000  0.0000000  3
    105    103    115    116     1  0.0000000  0.6508444  3
    105    103    115    117     1  0.0000000  0.6508444  3
    106     94     90    119     1  0.0000000  0.6508444  3
    107    106    112    268     1  0.0000000  1.0460000  1
    107    106    112    268     1  0.0000000  0.0000000  3
    107    106    112    113     1  0.0000000  0.6508444  3
    107    106    112    114     1  0.0000000  0.6508444  3
    108    106    112    268     1  0.0000000  1.0460000  1
    108    106    112    268     1  0.0000000  0.0000000  3
    108    106    112    113     1  0.0000000  0.6508444  3
    108    106    112    114     1  0.0000000  0.6508444  3
    112    268    259    260     1  0.0000000  1.6038667  3
    112    268    259    261     1  0.0000000  1.6038667  3
    113    112    268    259     1  0.0000000  1.6038667  3
    114    112    268    259     1  0.0000000  1.6038667  3
    115    298    289    290     1  0.0000000  1.6038667  3
    115    298    289    291     1  0.0000000  1.6038667  3
    116    115    298    289     1  0.0000000  1.6038667  3
    117    115    298    289     1  0.0000000  1.6038667  3
    120    121    133    134     1  0.0000000  0.6508444  3
    120    121    133    135     1  0.0000000  0.6508444  3
    120    124    136    137     1  0.0000000  0.6508444  3
    120    124    136    138     1  0.0000000  0.6508444  3
    120    127    130    131     1  0.0000000  0.6508444  3
    120    127    130    132     1  0.0000000  0.6508444  3
    121    120    124    125     1  0.0000000  0.6508444  3
    121    120    124    126     1  0.0000000  0.6508444  3
    121    120    127    128     1  0.0000000  0.6508444  3
    121    120    127    129     1  0.0000000  0.6508444  3
    121    133    145    146     1  0.0000000  0.6508444  3
    121    133    145    147     1  0.0000000  0.6508444  3
    122    121    120    124     1  0.0000000  0.6508444  3
    122    121    120    127     1  0.0000000  0.6508444  3
    122    121    120    149     1  0.0000000  0.6508444  3
    122    121    133    145     1  0.0000000  0.6508444  3
    122    121    133    134     1  0.0000000  0.6508444  3
    122    121    133    135     1  0.0000000  0.6508444  3
    123    121    120    124     1  0.0000000  0.6508444  3
    123    121    120    127     1  0.0000000  0.6508444  3
    123    121    120    149     1  0.0000000  0.6508444  3
    123    121    133    145     1  0.0000000  0.6508444  3
    123    121    133    134     1  0.0000000  0.6508444  3
    123    121    133    135     1  0.0000000  0.6508444  3
    124    120    127    128     1  0.0000000  0.6508444  3
    124    120    127    129     1  0.0000000  0.6508444  3
    124    136    142    143     1  0.0000000  0.6508444  3
    124    136    142    144     1  0.0000000  0.6508444  3
    125    124    120    127     1  0.0000000  0.6508444  3
    125    124    120    149     1  0.0000000  0.6508444  3
    125    124    136    142     1  0.0000000  0.6508444  3
    125    124    136    137     1  0.0000000  0.6508444  3
    125    124    136    138     1  0.0000000  0.6508444  3
    126    124    120    127     1  0.0000000  0.6508444  3
    126    124    120    149     1  0.0000000  0.6508444  3
    126    124    136    142     1  0.0000000  0.6508444  3
    126    124    136    137     1  0.0000000  0.6508444  3
    126    124    136    138     1  0.0000000  0.6508444  3
    127    130    139    140     1  0.0000000  0.6508444  3
    127    130    139    141     1  0.0000000  0.6508444  3
    128    127    120    149     1  0.0000000  0.6508444  3
    128    127    130    139     1  0.0000000  0.6508444  3
    128    127    130    131     1  0.0000000  0.6508444  3
    128    127    130    132     1  0.0000000  0.6508444  3
    129    127    120    149     1  0.0000000  0.6508444  3
    129    127    130    139     1  0.0000000  0.6508444  3
    129    127    130    131     1  0.0000000  0.6508444  3
    129    127    130    132     1  0.0000000  0.6508444  3
    130    127    120    149     1  0.0000000  0.6508444  3
    131    130    139    148     1  0.0000000  1.0460000  1
    131    130    139    148     1  0.0000000  0.0000000  3
    131    130    139    140     1  0.0000000  0.6508444  3
    131    130    139    141     1  0.0000000  0.6508444  3
    132    130    139    148     1  0.0000000  1.0460000  1
    132    130    139    148     1  0.0000000  0.0000000  3
    132    130    139    140     1  0.0000000  0.6508444  3
    132    130    139    141     1  0.0000000  0.6508444  3
    133    121    120    149     1  0.0000000  0.6508444  3
    134    133    145    362     1  0.0000000  1.0460000  1
    134    133    145    362     1  0.0000000  0.0000000  3
    134    133    145    146     1  0.0000000  0.6508444  3
    134    133    145    147     1  0.0000000  0.6508444  3
    135    133    145    362     1  0.0000000  1.0460000  1
    135    133    145    362     1  0.0000000  0.0000000  3
    135    133    145    146     1  0.0000000  0.6508444  3
    135    133    145    147     1  0.0000000  0.6508444  3
    136    124    120    149     1  0.0000000  0.6508444  3
    137    136    142    330     1  0.0000000  1.0460000  1
    137    136    142    330     1  0.0000000  0.0000000  3
    137    136    142    143     1  0.0000000  0.6508444  3
    137    136    142    144     1  0.0000000  0.6508444  3
    138    136    142    330     1  0.0000000  1.0460000  1
    138    136    142    330     1  0.0000000  0.0000000  3
    138    136    142    143     1  0.0000000  0.6508444  3
    138    136    142    144     1  0.0000000  0.6508444  3
    142    330    300    301     1  0.0000000  1.6038667  3
    142    330    300    302     1  0.0000000  1.6038667  3
    143    142    330    300     1  0.0000000  1.6038667  3
    144    142    330    300     1  0.0000000  1.6038667  3
    145    362    332    333     1  0.0000000  1.6038667  3
    145    362    332    334     1  0.0000000  1.6038667  3
    146    145    362    332     1  0.0000000  1.6038667  3
    147    145    362    332     1  0.0000000  1.6038667  3
    150    151    163    164     1  0.0000000  0.6508444  3
    150    151    163    165     1  0.0000000  0.6508444  3
    150    154    166    167     1  0.0000000  0.6508444  3
    150    154    166    168     1  0.0000000  0.6508444  3
    150    157    160    161     1  0.0000000  0.6508444  3
    150    157    160    162     1  0.0000000  0.6508444  3
    151    150    154    155     1  0.0000000  0.6508444  3
    151    150    154    156     1  0.0000000  0.6508444  3
    151    150    157    158     1  0.0000000  0.6508444  3
    151    150    157    159     1  0.0000000  0.6508444  3
    151    163    175    176     1  0.0000000  0.6508444  3
    151    163    175    177     1  0.0000000  0.6508444  3
    152    151    150    154     1  0.0000000  0.6508444  3
    152    151    150    157     1  0.0000000  0.6508444  3
    152    151    150    179     1  0.0000000  0.6508444  3
    152    151    163    175     1  0.0000000  0.6508444  3
    152    151    163    164     1  0.0000000  0.6508444  3
    152    151    163    165     1  0.0000000  0.6508444  3
    153    151    150    154     1  0.0000000  0.6508444  3
    153    151    150    157     1  0.0000000  0.6508444  3
    153    151    150    179     1  0.0000000  0.6508444  3
    153    151    163    175     1  0.0000000  0.6508444  3
    153    151    163    164     1  0.0000000  0.6508444  3
    153    151    163    165     1  0.0000000  0.6508444  3
    154    150    157    158     1  0.0000000  0.6508444  3
    154    150    157    159     1  0.0000000  0.6508444  3
    154    166    172    173     1  0.0000000  0.6508444  3
    154    166    172    174     1  0.0000000  0.6508444  3
    155    154    150    157     1  0.0000000  0.6508444  3
    155    154    150    179     1  0.0000000  0.6508444  3
    155    154    166    172     1  0.0000000  0.6508444  3
    155    154    166    167     1  0.0000000  0.6508444  3
    155    154    166    168     1  0.0000000  0.6508444  3
    156    154    150    157     1  0.0000000  0.6508444  3
    156    154    150    179     1  0.0000000  0.6508444  3
    156    154    166    172     1  0.0000000  0.6508444  3
    156    154    166    167     1  0.0000000  0.6508444  3
    156    154    166    168     1  0.0000000  0.6508444  3
    157    160    169    170     1  0.0000000  0.6508444  3
    157    160    169    171     1  0.0000000  0.6508444  3
    158    157    150    179     1  0.0000000  0.6508444  3
    158    157    160    169     1  0.0000000  0.6508444  3
    158    157    160    161     1  0.0000000  0.6508444  3
    158    157    160    162     1  0.0000000  0.6508444  3
    159    157    150    179     1  0.0000000  0.6508444  3
    159    157    160    169     1  0.0000000  0.6508444  3
    159    157    160    161     1  0.0000000  0.6508444  3
    159    157    160    162     1  0.0000000  0.6508444  3
    160    157    150    179     1  0.0000000  0.6508444  3
    161    160    169    178     1  0.0000000  1.0460000  1
    161    160    169    178     1  0.0000000  0.0000000  3
    161    160    169    170     1  0.0000000  0.6508444  3
    161    160    169    171     1  0.0000000  0.6508444  3
    162    160    169    178     1  0.0000000  1.0460000  1
    162    160    169    178     1  0.0000000  0.0000000  3
    162    160    169    170     1  0.0000000  0.6508444  3
    162    160    169    171     1  0.0000000  0.6508444  3
    163    151    150    179     1  0.0000000  0.6508444  3
    164    163    175    426     1  0.0000000  1.0460000  1
    164    163    175    426     1  0.0000000  0.0000000  3
    164    163    175    176     1  0.0000000  0.6508444  3
    164    163    175    177     1  0.0000000  0.6508444  3
    165    163    175    426     1  0.0000000  1.0460000  1
    165    163    175    426     1  0.0000000  0.0000000  3
    165    163    175    176     1  0.0000000  0.6508444  3
    165    163    175    177     1  0.0000000  0.6508444  3
    166    154    150    179     1  0.0000000  0.6508444  3
    167    166    172    394     1  0.0000000  1.0460000  1
    167    166    172    394     1  0.0000000  0.0000000  3
    167    166    172    173     1  0.0000000  0.6508444  3
    167    166    172    174     1  0.0000000  0.6508444  3
    168    166    172    394     1  0.0000000  1.0460000  1
    168    166    172    394     1  0.0000000  0.0000000  3
    168    166    172    173     1  0.0000000  0.6508444  3
    168    166    172    174     1  0.0000000  0.6508444  3
    172    394    364    365     1  0.0000000  1.6038667  3
    172    394    364    366     1  0.0000000  1.6038667  3
    173    172    394    364     1  0.0000000  1.6038667  3
    174    172    394    364     1  0.0000000  1.6038667  3
    175    426    396    397     1  0.0000000  1.6038667  3
    175    426    396    398     1  0.0000000  1.6038667  3
    176    175    426    396     1  0.0000000  1.6038667  3
    177    175    426    396     1  0.0000000  1.6038667  3
    180    181    193    194     1  0.0000000  0.6508444  3
    180    181    193    195     1  0.0000000  0.6508444  3
    180    184    196    197     1  0.0000000  0.6508444  3
    180    184    196    198     1  0.0000000  0.6508444  3
    180    187    190    191     1  0.0000000  0.6508444  3
    180    187    190    192     1  0.0000000  0.6508444  3
    181    180    184    185     1  0.0000000  0.6508444  3
    181    180    184    186     1  0.0000000  0.6508444  3
    181    180    187    188     1  0.0000000  0.6508444  3
    181    180    187    189     1  0.0000000  0.6508444  3
    181    193    205    206     1  0.0000000  0.6508444  3
    181    193    205    207     1  0.0000000  0.6508444  3
    182    181    180    184     1  0.0000000  0.6508444  3
    182    181    180    187     1  0.0000000  0.6508444  3
    182    181    180    209     1  0.0000000  0.6508444  3
    182    181    193    205     1  0.0000000  0.6508444  3
    182    181    193    194     1  0.0000000  0.6508444  3
    182    181    193    195     1  0.0000000  0.6508444  3
    183    181    180    184     1  0.0000000  0.6508444  3
    183    181    180    187     1  0.0000000  0.6508444  3
    183    181    180    209     1  0.0000000  0.6508444  3
    183    181    193    205     1  0.0000000  0.6508444  3
    183    181    193    194     1  0.0000000  0.6508444  3
    183    181    193    195     1  0.0000000  0.6508444  3
    184    180    187    188     1  0.0000000  0.6508444  3
    184    180    187    189     1  0.0000000  0.6508444  3
    184    196    202    203     1  0.0000000  0.6508444  3
    184    196    202    204     1  0.0000000  0.6508444  3
    185    184    180    187     1  0.0000000  0.6508444  3
    185    184    180    209     1  0.0000000  0.6508444  3
    185    184    196    202     1  0.0000000  0.6508444  3
    185    184    196    197     1  0.0000000  0.6508444  3
    185    184    196    198     1  0.0000000  0.6508444  3
    186    184    180    187     1  0.0000000  0.6508444  3
    186    184    180    209     1  0.0000000  0.6508444  3
    186    184    196    202     1  0.0000000  0.6508444  3
    186    184    196    197     1  0.0000000  0.6508444  3
    186    184    196    198     1  0.0000000  0.6508444  3
    187    190    199    200     1  0.0000000  0.6508444  3
    187    190    199    201     1  0.0000000  0.6508444  3
    188    187    180    209     1  0.0000000  0.6508444  3
    188    187    190    199     1  0.0000000  0.6508444  3
    188    187    190    191     1  0.0000000  0.6508444  3
    188    187    190    192     1  0.0000000  0.6508444  3
    189    187    180    209     1  0.0000000  0.6508444  3
    189    187    190    199     1  0.0000000  0.6508444  3
    189    187    190    191     1  0.0000000  0.6508444  3
    189    187    190    192     1  0.0000000  0.6508444  3
    190    187    180    209     1  0.0000000  0.6508444  3
    191    190    199    208     1  0.0000000  1.0460000  1
    191    190    199    208     1  0.0000000  0.0000000  3
    191    190    199    200     1  0.0000000  0.6508444  3
    191    190    199    201     1  0.0000000  0.6508444  3
    192    190    199    208     1  0.0000000  1.0460000  1
    192    190    199    208     1  0.0000000  0.0000000  3
    192    190    199    200     1  0.0000000  0.6508444  3
    192    190    199    201     1  0.0000000  0.6508444  3
    193    181    180    209     1  0.0000000  0.6508444  3
    194    193    205    490     1  0.0000000  1.0460000  1
    194    193    205    490     1  0.0000000  0.0000000  3
    194    193    205    206     1  0.0000000  0.6508444  3
    194    193    205    207     1  0.0000000  0.6508444  3
    195    193    205    490     1  0.0000000  1.0460000  1
    195    193    205    490     1  0.0000000  0.0000000  3
    195    193    205    206     1  0.0000000  0.6508444  3
    195    193    205    207     1  0.0000000  0.6508444  3
    196    184    180    209     1  0.0000000  0.6508444  3
    197    196    202    458     1  0.0000000  1.0460000  1
    197    196    202    458     1  0.0000000  0.0000000  3
    197    196    202    203     1  0.0000000  0.6508444  3
    197    196    202    204     1  0.0000000  0.6508444  3
    198    196    202    458     1  0.0000000  1.0460000  1
    198    196    202    458     1  0.0000000  0.0000000  3
    198    196    202    203     1  0.0000000  0.6508444  3
    198    196    202    204     1  0.0000000  0.6508444  3
    202    458    428    429     1  0.0000000  1.6038667  3
    202    458    428    430     1  0.0000000  1.6038667  3
    203    202    458    428     1  0.0000000  1.6038667  3
    204    202    458    428     1  0.0000000  1.6038667  3
    205    490    460    461     1  0.0000000  1.6038667  3
    205    490    460    462     1  0.0000000  1.6038667  3
    206    205    490    460     1  0.0000000  1.6038667  3
    207    205    490    460     1  0.0000000  1.6038667  3
    210    211    223    224     1  0.0000000  0.6508444  3
    210    211    223    225     1  0.0000000  0.6508444  3
    210    214    226    227     1  0.0000000  0.6508444  3
    210    214    226    228     1  0.0000000  0.6508444  3
    210    217    220    221     1  0.0000000  0.6508444  3
    210    217    220    222     1  0.0000000  0.6508444  3
    211    210    214    215     1  0.0000000  0.6508444  3
    211    210    214    216     1  0.0000000  0.6508444  3
    211    210    217    218     1  0.0000000  0.6508444  3
    211    210    217    219     1  0.0000000  0.6508444  3
    211    223    235    236     1  0.0000000  0.6508444  3
    211    223    235    237     1  0.0000000  0.6508444  3
    212    211    210    214     1  0.0000000  0.6508444  3
    212    211    210    217     1  0.0000000  0.6508444  3
    212    211    210    239     1  0.0000000  0.6508444  3
    212    211    223    235     1  0.0000000  0.6508444  3
    212    211    223    224     1  0.0000000  0.6508444  3
    212    211    223    225     1  0.0000000  0.6508444  3
    213    211    210    214     1  0.0000000  0.6508444  3
    213    211    210    217     1  0.0000000  0.6508444  3
    213    211    210    239     1  0.0000000  0.6508444  3
    213    211    223    235     1  0.0000000  0.6508444  3
    213    211    223    224     1  0.0000000  0.6508444  3
    213    211    223    225     1  0.0000000  0.6508444  3
    214    210    217    218     1  0.0000000  0.6508444  3
    214    210    217    219     1  0.0000000  0.6508444  3
    214    226    232    233     1  0.0000000  0.6508444  3
    214    226    232    234     1  0.0000000  0.6508444  3
    215    214    210    217     1  0.0000000  0.6508444  3
    215    214    210    239     1  0.0000000  0.6508444  3
    215    214    226    232     1  0.0000000  0.6508444  3
    215    214    226    227     1  0.0000000  0.6508444  3
    215    214    226    228     1  0.0000000  0.6508444  3
    216    214    210    217     1  0.0000000  0.6508444  3
    216    214    210    239     1  0.0000000  0.6508444  3
    216    214    226    232     1  0.0000000  0.6508444  3
    216    214    226    227     1  0.0000000  0.6508444  3
    216    214    226    228     1  0.0000000  0.6508444  3
    217    220    229    230     1  0.0000000  0.6508444  3
    217    220    229    231     1  0.0000000  0.6508444  3
    218    217    210    239     1  0.0000000  0.6508444  3
    218    217    220    229     1  0.0000000  0.6508444  3
    218    217    220    221     1  0.0000000  0.6508444  3
    218    217    220    222     1  0.0000000  0.6508444  3
    219    217    210    239     1  0.0000000  0.6508444  3
    219    217    220    229     1  0.0000000  0.6508444  3
    219    217    220    221     1  0.0000000  0.6508444  3
    219    217    220    222     1  0.0000000  0.6508444  3
    220    217    210    239     1  0.0000000  0.6508444  3
    221    220    229    238     1  0.0000000  1.0460000  1
    221    220    229    238     1  0.0000000  0.0000000  3
    221    220    229    230     1  0.0000000  0.6508444  3
    221    220    229    231     1  0.0000000  0.6508444  3
    222    220    229    238     1  0.0000000  1.0460000  1
    222    220    229    238     1  0.0000000  0.0000000  3
    222    220    229    230     1  0.0000000  0.6508444  3
    222    220    229    231     1  0.0000000  0.6508444  3
    223    211    210    239     1  0.0000000  0.6508444  3
    224    223    235    554     1  0.0000000  1.0460000  1
    224    223    235    554     1  0.0000000  0.0000000  3
    224    223    235    236     1  0.0000000  0.6508444  3
    224    223    235    237     1  0.0000000  0.6508444  3
    225    223    235    554     1  0.0000000  1.0460000  1
    225    223    235    554     1  0.0000000  0.0000000  3
    225    223    235    236     1  0.0000000  0.6508444  3
    225    223    235    237     1  0.0000000  0.6508444  3
    226    214    210    239     1  0.0000000  0.6508444  3
    227    226    232    522     1  0.0000000  1.0460000  1
    227    226    232    522     1  0.0000000  0.0000000  3
    227    226    232    233     1  0.0000000  0.6508444  3
    227    226    232    234     1  0.0000000  0.6508444  3
    228    226    232    522     1  0.0000000  1.0460000  1
    228    226    232    522     1  0.0000000  0.0000000  3
    228    226    232    233     1  0.0000000  0.6508444  3
    228    226    232    234     1  0.0000000  0.6508444  3
    232    522    492    493     1  0.0000000  1.6038667  3
    232    522    492    494     1  0.0000000  1.6038667  3
    233    232    522    492     1  0.0000000  1.6038667  3
    234    232    522    492     1  0.0000000  1.6038667  3
    235    554    524    525     1  0.0000000  1.6038667  3
    235    554    524    526     1  0.0000000  1.6038667  3
    236    235    554    524     1  0.0000000  1.6038667  3
    237    235    554    524     1  0.0000000  1.6038667  3
    240    241    253    254     1  0.0000000  0.6508444  3
    240    241    253    255     1  0.0000000  0.6508444  3
    240    244    256    257     1  0.0000000  0.6508444  3
    240    244    256    258     1  0.0000000  0.6508444  3
    240    247    250    251     1  0.0000000  0.6508444  3
    240    247    250    252     1  0.0000000  0.6508444  3
    241    240    244    245     1  0.0000000  0.6508444  3
    241    240    244    246     1  0.0000000  0.6508444  3
    241    240    247    248     1  0.0000000  0.6508444  3
    241    240    247    249     1  0.0000000  0.6508444  3
    241    253    265    266     1  0.0000000  0.6508444  3
    241    253    265    267     1  0.0000000  0.6508444  3
    242    241    240    244     1  0.0000000  0.6508444  3
    242    241    240    247     1  0.0000000  0.6508444  3
    242    241    240    269     1  0.0000000  0.6508444  3
    242    241    253    265     1  0.0000000  0.6508444  3
    242    241    253    254     1  0.0000000  0.6508444  3
    242    241    253    255     1  0.0000000  0.6508444  3
    243    241    240    244     1  0.0000000  0.6508444  3
    243    241    240    247     1  0.0000000  0.6508444  3
    243    241    240    269     1  0.0000000  0.6508444  3
    243    241    253    265     1  0.0000000  0.6508444  3
    243    241    253    254     1  0.0000000  0.6508444  3
    243    241    253    255     1  0.0000000  0.6508444  3
    244    240    247    248     1  0.0000000  0.6508444  3
    244    240    247    249     1  0.0000000  0.6508444  3
    244    256    262    263     1  0.0000000  0.6508444  3
    244    256    262    264     1  0.0000000  0.6508444  3
    245    244    240    247     1  0.0000000  0.6508444  3
    245    244    240    269     1  0.0000000  0.6508444  3
    245    244    256    262     1  0.0000000  0.6508444  3
    245    244    256    257     1  0.0000000  0.6508444  3
    245    244    256    258     1  0.0000000  0.6508444  3
    246    244    240    247     1  0.0000000  0.6508444  3
    246    244    240    269     1  0.0000000  0.6508444  3
    246    244    256    262     1  0.0000000  0.6508444  3
    246    244    256    257     1  0.0000000  0.6508444  3
    246    244    256    258     1  0.0000000  0.6508444  3
    247    250    259    260     1  0.0000000  0.6508444  3
    247    250    259    261     1  0.0000000  0.6508444  3
    248    247    240    269     1  0.0000000  0.6508444  3
    248    247    250    259     1  0.0000000  0.6508444  3
    248    247    250    251     1  0.0000000  0.6508444  3
    248    247    250    252     1  0.0000000  0.6508444  3
    249    247    240    269     1  0.0000000  0.6508444  3
    249    247    250    259     1  0.0000000  0.6508444  3
    249    247    250    251     1  0.0000000  0.6508444  3
    249    247    250    252     1  0.0000000  0.6508444  3
    250    247    240    269     1  0.0000000  0.6508444  3
    251    250    259    268     1  0.0000000  1.0460000  1
    251    250    259    268     1  0.0000000  0.0000000  3
    251    250    259    260     1  0.0000000  0.6508444  3
    251    250    259    261     1  0.0000000  0.6508444  3
    252    250    259    268     1  0.0000000  1.0460000  1
    252    250    259    268     1  0.0000000  0.0000000  3
    252    250    259    260     1  0.0000000  0.6508444  3
    252    250    259    261     1  0.0000000  0.6508444  3
    253    241    240    269     1  0.0000000  0.6508444  3
    254    253    265    618     1  0.0000000  1.0460000  1
    254    253    265    618     1  0.0000000  0.0000000  3
    254    253    265    266     1  0.0000000  0.6508444  3
    254    253    265    267     1  0.0000000  0.6508444  3
    255    253    265    618     1  0.0000000  1.0460000  1
    255    253    265    618     1  0.0000000  0.0000000  3
    255    253    265    266     1  0.0000000  0.6508444  3
    255    253    265    267     1  0.0000000  0.6508444  3
    256    244    240    269     1  0.0000000  0.6508444  3
    257    256    262    586     1  0.0000000  1.0460000  1
    257    256    262    586     1  0.0000000  0.0000000  3
    257    256    262    263     1  0.0000000  0.6508444  3
    257    256    262    264     1  0.0000000  0.6508444  3
    258    256    262    586     1  0.0000000  1.0460000  1
    258    256    262    586     1  0.0000000  0.0000000  3
    258    256    262    263     1  0.0000000  0.6508444  3
    258    256    262    264     1  0.0000000  0.6508444  3
    262    586    556    557     1  0.0000000  1.6038667  3
    262    586    556    558     1  0.0000000  1.6038667  3
    263    262    586    556     1  0.0000000  1.6038667  3
    264    262    586    556     1  0.0000000  1.6038667  3
    265    618    588    589     1  0.0000000  1.6038667  3
    265    618    588    590     1  0.0000000  1.6038667  3
    266    265    618    588     1  0.0000000  1.6038667  3
    267    265    618    588     1  0.0000000  1.6038667  3
    270    271    283    284     1  0.0000000  0.6508444  3
    270    271    283    285     1  0.0000000  0.6508444  3
    270    274    286    287     1  0.0000000  0.6508444  3
    270    274    286    288     1  0.0000000  0.6508444  3
    270    277    280    281     1  0.0000000  0.6508444  3
    270    277    280    282     1  0.0000000  0.6508444  3
    271    270    274    275     1  0.0000000  0.6508444  3
    271    270    274    276     1  0.0000000  0.6508444  3
    271    270    277    278     1  0.0000000  0.6508444  3
    271    270    277    279     1  0.0000000  0.6508444  3
    271    283    295    296     1  0.0000000  0.6508444  3
    271    283    295    297     1  0.0000000  0.6508444  3
    272    271    270    274     1  0.0000000  0.6508444  3
    272    271    270    277     1  0.0000000  0.6508444  3
    272    271    270    299     1  0.0000000  0.6508444  3
    272    271    283    295     1  0.0000000  0.6508444  3
    272    271    283    284     1  0.0000000  0.6508444  3
    272    271    283    285     1  0.0000000  0.6508444  3
    273    271    270    274     1  0.0000000  0.6508444  3
    273    271    270    277     1  0.0000000  0.6508444  3
    273    271    270    299     1  0.0000000  0.6508444  3
    273    271    283    295     1  0.0000000  0.6508444  3
    273    271    283    284     1  0.0000000  0.6508444  3
    273    271    283    285     1  0.0000000  0.6508444  3
    274    270    277    278     1  0.0000000  0.6508444  3
    274    270    277    279     1  0.0000000  0.6508444  3
    274    286    292    293     1  0.0000000  0.6508444  3
    274    286    292    294     1  0.0000000  0.6508444  3
    275    274    270    277     1  0.0000000  0.6508444  3
    275    274    270    299     1  0.0000000  0.6508444  3
    275    274    286    292     1  0.0000000  0.6508444  3
    275    274    286    287     1  0.0000000  0.6508444  3
    275    274    286    288     1  0.0000000  0.6508444  3
    276    274    270    277     1  0.0000000  0.6508444  3
    276    274    270    299     1  0.0000000  0.6508444  3
    276    274    286    292     1  0.0000000  0.6508444  3
    276    274    286    287     1  0.0000000  0.6508444  3
    276    274    286    288     1  0.0000000  0.6508444  3
    277    280    289    290     1  0.0000000  0.6508444  3
    277    280    289    291     1  0.0000000  0.6508444  3
    278    277    270    299     1  0.0000000  0.6508444  3
    278    277    280    289     1  0.0000000  0.6508444  3
    278    277    280    281     1  0.0000000  0.6508444  3
    278    277    280    282     1  0.0000000  0.6508444  3
    279    277    270    299     1  0.0000000  0.6508444  3
    279    277    280    289     1  0.0000000  0.6508444  3
    279    277    280    281     1  0.0000000  0.6508444  3
    279    277    280    282     1  0.0000000  0.6508444  3
    280    277    270    299     1  0.0000000  0.6508444  3
    281    280    289    298     1  0.0000000  1.0460000  1
    281    280    289    298     1  0.0000000  0.0000000  3
    281    280    289    290     1  0.0000000  0.6508444  3
    281    280    289    291     1  0.0000000  0.6508444  3
    282    280    289    298     1  0.0000000  1.0460000  1
    282    280    289    298     1  0.0000000  0.0000000  3
    282    280    289    290     1  0.0000000  0.6508444  3
    282    280    289    291     1  0.0000000  0.6508444  3
    283    271    270    299     1  0.0000000  0.6508444  3
    284    283    295    682     1  0.0000000  1.0460000  1
    284    283    295    682     1  0.0000000  0.0000000  3
    284    283    295    296     1  0.0000000  0.6508444  3
    284    283    295    297     1  0.0000000  0.6508444  3
    285    283    295    682     1  0.0000000  1.0460000  1
    285    283    295    682     1  0.0000000  0.0000000  3
    285    283    295    296     1  0.0000000  0.6508444  3
    285    283    295    297     1  0.0000000  0.6508444  3
    286    274    270    299     1  0.0000000  0.6508444  3
    287    286    292    650     1  0.0000000  1.0460000  1
    287    286    292    650     1  0.0000000  0.0000000  3
    287    286    292    293     1  0.0000000  0.6508444  3
    287    286    292    294     1  0.0000000  0.6508444  3
    288    286    292    650     1  0.0000000  1.0460000  1
    288    286    292    650     1  0.0000000  0.0000000  3
    288    286    292    293     1  0.0000000  0.6508444  3
    288    286    292    294     1  0.0000000  0.6508444  3
    292    650    620    621     1  0.0000000  1.6038667  3
    292    650    620    622     1  0.0000000  1.6038667  3
    293    292    650    620     1  0.0000000  1.6038667  3
    294    292    650    620     1  0.0000000  1.6038667  3
    295    682    652    653     1  0.0000000  1.6038667  3
    295    682    652    654     1  0.0000000  1.6038667  3
    296    295    682    652     1  0.0000000  1.6038667  3
    297    295    682    652     1  0.0000000  1.6038667  3
    300    303    306    307     1  0.0000000  0.6508444  3
    300    303    306    308     1  0.0000000  0.6508444  3
    301    300    303    306     1  0.0000000  0.6508444  3
    301    300    303    304     1  0.0000000  0.6508444  3
    301    300    303    305     1  0.0000000  0.6508444  3
    302    300    303    306     1  0.0000000  0.6508444  3
    302    300    303    304     1  0.0000000  0.6508444  3
    302    300    303    305     1  0.0000000  0.6508444  3
    303    306    309    331     1  0.0000000  0.6508444  3
    304    303    300    330     1  0.0000000  1.0460000  1
    304    303    300    330     1  0.0000000  0.0000000  3
    304    303    306    309     1  0.0000000  0.6508444  3
    304    303    306    307     1  0.0000000  0.6508444  3
    304    303    306    308     1  0.0000000  0.6508444  3
    305    303    300    330     1  0.0000000  1.0460000  1
    305    303    300    330     1  0.0000000  0.0000000  3
    305    303    306    309     1  0.0000000  0.6508444  3
    305    303    306    307     1  0.0000000  0.6508444  3
    305    303    306    308     1  0.0000000  0.6508444  3
    306    309    310    311     1  0.0000000  0.6508444  3
    306    309    310    312     1  0.0000000  0.6508444  3
    306    309    320    321     1  0.0000000  0.6508444  3
    306    309    320    322     1  0.0000000  0.6508444  3
    307    306    309    310     1  0.0000000  0.6508444  3
    307    306    309    320     1  0.0000000  0.6508444  3
    307    306    309    331     1  0.0000000  0.6508444  3
    308    306    309    310     1  0.0000000  0.6508444  3
    308    306    309    320     1  0.0000000  0.6508444  3
    308    306    309    331     1  0.0000000  0.6508444  3
    309    310    313    314     1  0.0000000  0.6508444  3
    309    310    313    315     1  0.0000000  0.6508444  3
    309    320    323    324     1  0.0000000  0.6508444  3
    309    320    323    325     1  0.0000000  0.6508444  3
    310    309    320    321     1  0.0000000  0.6508444  3
    310    309    320    322     1  0.0000000  0.6508444  3
    311    310    309    320     1  0.0000000  0.6508444  3
    311    310    309    331     1  0.0000000  0.6508444  3
    311    310    313    316     1  0.0000000  0.6508444  3
    311    310    313    314     1  0.0000000  0.6508444  3
    311    310    313    315     1  0.0000000  0.6508444  3
    312    310    309    320     1  0.0000000  0.6508444  3
    312    310    309    331     1  0.0000000  0.6508444  3
    312    310    313    316     1  0.0000000  0.6508444  3
    312    310    313    314     1  0.0000000  0.6508444  3
    312    310    313    315     1  0.0000000  0.6508444  3
    313    310    309    331     1  0.0000000  0.6508444  3
    313    316    318    319     1  180.0000771  9.6232000  2
    314    313    316    317     1  0.0000000  3.3472000  1
    314    313    316    317     1  0.0000000  0.0000000  2
    314    313    316    317     1  180.0000771  0.3347200  3
    314    313    316    318     1  180.0000771  0.0000000  2
    315    313    316    317     1  0.0000000  3.3472000  1
    315    313    316    317     1  0.0000000  0.0000000  2
    315    313    316    317     1  180.0000771  0.3347200  3
    315    313    316    318     1  180.0000771  0.0000000  2
    317    316    318    319     1  0.0000000  7.9496000  1
    317    316    318    319     1  180.0000771  9.6232000  2
    321    320    309    331     1  0.0000000  0.6508444  3
    321    320    323    326     1  0.0000000  0.6508444  3
    321    320    323    324     1  0.0000000  0.6508444  3
    321    320    323    325     1  0.0000000  0.6508444  3
    322    320    309    331     1  0.0000000  0.6508444  3
    322    320    323    326     1  0.0000000  0.6508444  3
    322    320    323    324     1  0.0000000  0.6508444  3
    322    320    323    325     1  0.0000000  0.6508444  3
    323    320    309    331     1  0.0000000  0.6508444  3
    323    326    328    329     1  180.0000771  9.6232000  2
    324    323    326    327     1  0.0000000  3.3472000  1
    324    323    326    327     1  0.0000000  0.0000000  2
    324    323    326    327     1  180.0000771  0.3347200  3
    324    323    326    328     1  180.0000771  0.0000000  2
    325    323    326    327     1  0.0000000  3.3472000  1
    325    323    326    327     1  0.0000000  0.0000000  2
    325    323    326    327     1  180.0000771  0.3347200  3
    325    323    326    328     1  180.0000771  0.0000000  2
    327    326    328    329     1  0.0000000  7.9496000  1
    327    326    328    329     1  180.0000771  9.6232000  2
    332    335    338    339     1  0.0000000  0.6508444  3
    332    335    338    340     1  0.0000000  0.6508444  3
    333    332    335    338     1  0.0000000  0.6508444  3
    333    332    335    336     1  0.0000000  0.6508444  3
    333    332    335    337     1  0.0000000  0.6508444  3
    334    332    335    338     1  0.0000000  0.6508444  3
    334    332    335    336     1  0.0000000  0.6508444  3
    334    332    335    337     1  0.0000000  0.6508444  3
    335    338    341    363     1  0.0000000  0.6508444  3
    336    335    338    341     1  0.0000000  0.6508444  3
    336    335    338    339     1  0.0000000  0.6508444  3
    336    335    338    340     1  0.0000000  0.6508444  3
    336    335    332    362     1  0.0000000  1.0460000  1
    336    335    332    362     1  0.0000000  0.0000000  3
    337    335    338    341     1  0.0000000  0.6508444  3
    337    335    338    339     1  0.0000000  0.6508444  3
    337    335    338    340     1  0.0000000  0.6508444  3
    337    335    332    362     1  0.0000000  1.0460000  1
    337    335    332    362     1  0.0000000  0.0000000  3
    338    341    342    343     1  0.0000000  0.6508444  3
    338    341    342    344     1  0.0000000  0.6508444  3
    338    341    352    353     1  0.0000000  0.6508444  3
    338    341    352    354     1  0.0000000  0.6508444  3
    339    338    341    342     1  0.0000000  0.6508444  3
    339    338    341    352     1  0.0000000  0.6508444  3
    339    338    341    363     1  0.0000000  0.6508444  3
    340    338    341    342     1  0.0000000  0.6508444  3
    340    338    341    352     1  0.0000000  0.6508444  3
    340    338    341    363     1  0.0000000  0.6508444  3
    341    342    345    346     1  0.0000000  0.6508444  3
    341    342    345    347     1  0.0000000  0.6508444  3
    341    352    355    356     1  0.0000000  0.6508444  3
    341    352    355    357     1  0.0000000  0.6508444  3
    342    341    352    353     1  0.0000000  0.6508444  3
    342    341    352    354     1  0.0000000  0.6508444  3
    343    342    345    348     1  0.0000000  0.6508444  3
    343    342    345    346     1  0.0000000  0.6508444  3
    343    342    345    347     1  0.0000000  0.6508444  3
    343    342    341    352     1  0.0000000  0.6508444  3
    343    342    341    363     1  0.0000000  0.6508444  3
    344    342    345    348     1  0.0000000  0.6508444  3
    344    342    345    346     1  0.0000000  0.6508444  3
    344    342    345    347     1  0.0000000  0.6508444  3
    344    342    341    352     1  0.0000000  0.6508444  3
    344    342    341    363     1  0.0000000  0.6508444  3
    345    348    350    351     1  180.0000771  9.6232000  2
    345    342    341    363     1  0.0000000  0.6508444  3
    346    345    348    349     1  0.0000000  3.3472000  1
    346    345    348    349     1  0.0000000  0.0000000  2
    346    345    348    349     1  180.0000771  0.3347200  3
    346    345    348    350     1  180.0000771  0.0000000  2
    347    345    348    349     1  0.0000000  3.3472000  1
    347    345    348    349     1  0.0000000  0.0000000  2
    347    345    348    349     1  180.0000771  0.3347200  3
    347    345    348    350     1  180.0000771  0.0000000  2
    349    348    350    351     1  0.0000000  7.9496000  1
    349    348    350    351     1  180.0000771  9.6232000  2
    353    352    355    358     1  0.0000000  0.6508444  3
    353    352    355    356     1  0.0000000  0.6508444  3
    353    352    355    357     1  0.0000000  0.6508444  3
    353    352    341    363     1  0.0000000  0.6508444  3
    354    352    355    358     1  0.0000000  0.6508444  3
    354    352    355    356     1  0.0000000  0.6508444  3
    354    352    355    357     1  0.0000000  0.6508444  3
    354    352    341    363     1  0.0000000  0.6508444  3
    355    358    360    361     1  180.0000771  9.6232000  2
    355    352    341    363     1  0.0000000  0.6508444  3
    356    355    358    359     1  0.0000000  3.3472000  1
    356    355    358    359     1  0.0000000  0.0000000  2
    356    355    358    359     1  180.0000771  0.3347200  3
    356    355    358    360     1  180.0000771  0.0000000  2
    357    355    358    359     1  0.0000000  3.3472000  1
    357    355    358    359     1  0.0000000  0.0000000  2
    357    355    358    359     1  180.0000771  0.3347200  3
    357    355    358    360     1  180.0000771  0.0000000  2
    359    358    360    361     1  0.0000000  7.9496000  1
    359    358    360    361     1  180.0000771  9.6232000  2
    364    367    370    371     1  0.0000000  0.6508444  3
    364    367    370    372     1  0.0000000  0.6508444  3
    365    364    367    370     1  0.0000000  0.6508444  3
    365    364    367    368     1  0.0000000  0.6508444  3
    365    364    367    369     1  0.0000000  0.6508444  3
    366    364    367    370     1  0.0000000  0.6508444  3
    366    364    367    368     1  0.0000000  0.6508444  3
    366    364    367    369     1  0.0000000  0.6508444  3
    367    370    373    395     1  0.0000000  0.6508444  3
    368    367    364    394     1  0.0000000  1.0460000  1
    368    367    364    394     1  0.0000000  0.0000000  3
    368    367    370    373     1  0.0000000  0.6508444  3
    368    367    370    371     1  0.0000000  0.6508444  3
    368    367    370    372     1  0.0000000  0.6508444  3
    369    367    364    394     1  0.0000000  1.0460000  1
    369    367    364    394     1  0.0000000  0.0000000  3
    369    367    370    373     1  0.0000000  0.6508444  3
    369    367    370    371     1  0.0000000  0.6508444  3
    369    367    370    372     1  0.0000000  0.6508444  3
    370    373    374    375     1  0.0000000  0.6508444  3
    370    373    374    376     1  0.0000000  0.6508444  3
    370    373    384    385     1  0.0000000  0.6508444  3
    370    373    384    386     1  0.0000000  0.6508444  3
    371    370    373    374     1  0.0000000  0.6508444  3
    371    370    373    384     1  0.0000000  0.6508444  3
    371    370    373    395     1  0.0000000  0.6508444  3
    372    370    373    374     1  0.0000000  0.6508444  3
    372    370    373    384     1  0.0000000  0.6508444  3
    372    370    373    395     1  0.0000000  0.6508444  3
    373    374    377    378     1  0.0000000  0.6508444  3
    373    374    377    379     1  0.0000000  0.6508444  3
    373    384    387    388     1  0.0000000  0.6508444  3
    373    384    387    389     1  0.0000000  0.6508444  3
    374    373    384    385     1  0.0000000  0.6508444  3
    374    373    384    386     1  0.0000000  0.6508444  3
    375    374    373    384     1  0.0000000  0.6508444  3
    375    374    373    395     1  0.0000000  0.6508444  3
    375    374    377    380     1  0.0000000  0.6508444  3
    375    374    377    378     1  0.0000000  0.6508444  3
    375    374    377    379     1  0.0000000  0.6508444  3
    376    374    373    384     1  0.0000000  0.6508444  3
    376    374    373    395     1  0.0000000  0.6508444  3
    376    374    377    380     1  0.0000000  0.6508444  3
    376    374    377    378     1  0.0000000  0.6508444  3
    376    374    377    379     1  0.0000000  0.6508444  3
    377    374    373    395     1  0.0000000  0.6508444  3
    377    380    382    383     1  180.0000771  9.6232000  2
    378    377    380    381     1  0.0000000  3.3472000  1
    378    377    380    381     1  0.0000000  0.0000000  2
    378    377    380    381     1  180.0000771  0.3347200  3
    378    377    380    382     1  180.0000771  0.0000000  2
    379    377    380    381     1  0.0000000  3.3472000  1
    379    377    380    381     1  0.0000000  0.0000000  2
    379    377    380    381     1  180.0000771  0.3347200  3
    379    377    380    382     1  180.0000771  0.0000000  2
    381    380    382    383     1  0.0000000  7.9496000  1
    381    380    382    383     1  180.0000771  9.6232000  2
    385    384    373    395     1  0.0000000  0.6508444  3
    385    384    387    390     1  0.0000000  0.6508444  3
    385    384    387    388     1  0.0000000  0.6508444  3
    385    384    387    389     1  0.0000000  0.6508444  3
    386    384    373    395     1  0.0000000  0.6508444  3
    386    384    387    390     1  0.0000000  0.6508444  3
    386    384    387    388     1  0.0000000  0.6508444  3
    386    384    387    389     1  0.0000000  0.6508444  3
    387    384    373    395     1  0.0000000  0.6508444  3
    387    390    392    393     1  180.0000771  9.6232000  2
    388    387    390    391     1  0.0000000  3.3472000  1
    388    387    390    391     1  0.0000000  0.0000000  2
    388    387    390    391     1  180.0000771  0.3347200  3
    388    387    390    392     1  180.0000771  0.0000000  2
    389    387    390    391     1  0.0000000  3.3472000  1
    389    387    390    391     1  0.0000000  0.0000000  2
    389    387    390    391     1  180.0000771  0.3347200  3
    389    387    390    392     1  180.0000771  0.0000000  2
    391    390    392    393     1  0.0000000  7.9496000  1
    391    390    392    393     1  180.0000771  9.6232000  2
    396    399    402    403     1  0.0000000  0.6508444  3
    396    399    402    404     1  0.0000000  0.6508444  3
    397    396    399    402     1  0.0000000  0.6508444  3
    397    396    399    400     1  0.0000000  0.6508444  3
    397    396    399    401     1  0.0000000  0.6508444  3
    398    396    399    402     1  0.0000000  0.6508444  3
    398    396    399    400     1  0.0000000  0.6508444  3
    398    396    399    401     1  0.0000000  0.6508444  3
    399    402    405    427     1  0.0000000  0.6508444  3
    400    399    402    405     1  0.0000000  0.6508444  3
    400    399    402    403     1  0.0000000  0.6508444  3
    400    399    402    404     1  0.0000000  0.6508444  3
    400    399    396    426     1  0.0000000  1.0460000  1
    400    399    396    426     1  0.0000000  0.0000000  3
    401    399    402    405     1  0.0000000  0.6508444  3
    401    399    402    403     1  0.0000000  0.6508444  3
    401    399    402    404     1  0.0000000  0.6508444  3
    401    399    396    426     1  0.0000000  1.0460000  1
    401    399    396    426     1  0.0000000  0.0000000  3
    402    405    406    407     1  0.0000000  0.6508444  3
    402    405    406    408     1  0.0000000  0.6508444  3
    402    405    416    417     1  0.0000000  0.6508444  3
    402    405    416    418     1  0.0000000  0.6508444  3
    403    402    405    406     1  0.0000000  0.6508444  3
    403    402    405    416     1  0.0000000  0.6508444  3
    403    402    405    427     1  0.0000000  0.6508444  3
    404    402    405    406     1  0.0000000  0.6508444  3
    404    402    405    416     1  0.0000000  0.6508444  3
    404    402    405    427     1  0.0000000  0.6508444  3
    405    406    409    410     1  0.0000000  0.6508444  3
    405    406    409    411     1  0.0000000  0.6508444  3
    405    416    419    420     1  0.0000000  0.6508444  3
    405    416    419    421     1  0.0000000  0.6508444  3
    406    405    416    417     1  0.0000000  0.6508444  3
    406    405    416    418     1  0.0000000  0.6508444  3
    407    406    409    412     1  0.0000000  0.6508444  3
    407    406    409    410     1  0.0000000  0.6508444  3
    407    406    409    411     1  0.0000000  0.6508444  3
    407    406    405    416     1  0.0000000  0.6508444  3
    407    406    405    427     1  0.0000000  0.6508444  3
    408    406    409    412     1  0.0000000  0.6508444  3
    408    406    409    410     1  0.0000000  0.6508444  3
    408    406    409    411     1  0.0000000  0.6508444  3
    408    406    405    416     1  0.0000000  0.6508444  3
    408    406    405    427     1  0.0000000  0.6508444  3
    409    412    414    415     1  180.0000771  9.6232000  2
    409    406    405    427     1  0.0000000  0.6508444  3
    410    409    412    413     1  0.0000000  3.3472000  1
    410    409    412    413     1  0.0000000  0.0000000  2
    410    409    412    413     1  180.0000771  0.3347200  3
    410    409    412    414     1  180.0000771  0.0000000  2
    411    409    412    413     1  0.0000000  3.3472000  1
    411    409    412    413     1  0.0000000  0.0000000  2
    411    409    412    413     1  180.0000771  0.3347200  3
    411    409    412    414     1  180.0000771  0.0000000  2
    413    412    414    415     1  0.0000000  7.9496000  1
    413    412    414    415     1  180.0000771  9.6232000  2
    417    416    419    422     1  0.0000000  0.6508444  3
    417    416    419    420     1  0.0000000  0.6508444  3
    417    416    419    421     1  0.0000000  0.6508444  3
    417    416    405    427     1  0.0000000  0.6508444  3
    418    416    419    422     1  0.0000000  0.6508444  3
    418    416    419    420     1  0.0000000  0.6508444  3
    418    416    419    421     1  0.0000000  0.6508444  3
    418    416    405    427     1  0.0000000  0.6508444  3
    419    422    424    425     1  180.0000771  9.6232000  2
    419    416    405    427     1  0.0000000  0.6508444  3
    420    419    422    423     1  0.0000000  3.3472000  1
    420    419    422    423     1  0.0000000  0.0000000  2
    420    419    422    423     1  180.0000771  0.3347200  3
    420    419    422    424     1  180.0000771  0.0000000  2
    421    419    422    423     1  0.0000000  3.3472000  1
    421    419    422    423     1  0.0000000  0.0000000  2
    421    419    422    423     1  180.0000771  0.3347200  3
    421    419    422    424     1  180.0000771  0.0000000  2
    423    422    424    425     1  0.0000000  7.9496000  1
    423    422    424    425     1  180.0000771  9.6232000  2
    428    431    434    435     1  0.0000000  0.6508444  3
    428    431    434    436     1  0.0000000  0.6508444  3
    429    428    431    434     1  0.0000000  0.6508444  3
    429    428    431    432     1  0.0000000  0.6508444  3
    429    428    431    433     1  0.0000000  0.6508444  3
    430    428    431    434     1  0.0000000  0.6508444  3
    430    428    431    432     1  0.0000000  0.6508444  3
    430    428    431    433     1  0.0000000  0.6508444  3
    431    434    437    459     1  0.0000000  0.6508444  3
    432    431    428    458     1  0.0000000  1.0460000  1
    432    431    428    458     1  0.0000000  0.0000000  3
    432    431    434    437     1  0.0000000  0.6508444  3
    432    431    434    435     1  0.0000000  0.6508444  3
    432    431    434    436     1  0.0000000  0.6508444  3
    433    431    428    458     1  0.0000000  1.0460000  1
    433    431    428    458     1  0.0000000  0.0000000  3
    433    431    434    437     1  0.0000000  0.6508444  3
    433    431    434    435     1  0.0000000  0.6508444  3
    433    431    434    436     1  0.0000000  0.6508444  3
    434    437    438    439     1  0.0000000  0.6508444  3
    434    437    438    440     1  0.0000000  0.6508444  3
    434    437    448    449     1  0.0000000  0.6508444  3
    434    437    448    450     1  0.0000000  0.6508444  3
    435    434    437    438     1  0.0000000  0.6508444  3
    435    434    437    448     1  0.0000000  0.6508444  3
    435    434    437    459     1  0.0000000  0.6508444  3
    436    434    437    438     1  0.0000000  0.6508444  3
    436    434    437    448     1  0.0000000  0.6508444  3
    436    434    437    459     1  0.0000000  0.6508444  3
    437    438    441    442     1  0.0000000  0.6508444  3
    437    438    441    443     1  0.0000000  0.6508444  3
    437    448    451    452     1  0.0000000  0.6508444  3
    437    448    451    453     1  0.0000000  0.6508444  3
    438    437    448    449     1  0.0000000  0.6508444  3
    438    437    448    450     1  0.0000000  0.6508444  3
    439    438    437    448     1  0.0000000  0.6508444  3
    439    438    437    459     1  0.0000000  0.6508444  3
    439    438    441    444     1  0.0000000  0.6508444  3
    439    438    441    442     1  0.0000000  0.6508444  3
    439    438    441    443     1  0.0000000  0.6508444  3
    440    438    437    448     1  0.0000000  0.6508444  3
    440    438    437    459     1  0.0000000  0.6508444  3
    440    438    441    444     1  0.0000000  0.6508444  3
    440    438    441    442     1  0.0000000  0.6508444  3
    440    438    441    443     1  0.0000000  0.6508444  3
    441    438    437    459     1  0.0000000  0.6508444  3
    441    444    446    447     1  180.0000771  9.6232000  2
    442    441    444    445     1  0.0000000  3.3472000  1
    442    441    444    445     1  0.0000000  0.0000000  2
    442    441    444    445     1  180.0000771  0.3347200  3
    442    441    444    446     1  180.0000771  0.0000000  2
    443    441    444    445     1  0.0000000  3.3472000  1
    443    441    444    445     1  0.0000000  0.0000000  2
    443    441    444    445     1  180.0000771  0.3347200  3
    443    441    444    446     1  180.0000771  0.0000000  2
    445    444    446    447     1  0.0000000  7.9496000  1
    445    444    446    447     1  180.0000771  9.6232000  2
    449    448    437    459     1  0.0000000  0.6508444  3
    449    448    451    454     1  0.0000000  0.6508444  3
    449    448    451    452     1  0.0000000  0.6508444  3
    449    448    451    453     1  0.0000000  0.6508444  3
    450    448    437    459     1  0.0000000  0.6508444  3
    450    448    451    454     1  0.0000000  0.6508444  3
    450    448    451    452     1  0.0000000  0.6508444  3
    450    448    451    453     1  0.0000000  0.6508444  3
    451    448    437    459     1  0.0000000  0.6508444  3
    451    454    456    457     1  180.0000771  9.6232000  2
    452    451    454    455     1  0.0000000  3.3472000  1
    452    451    454    455     1  0.0000000  0.0000000  2
    452    451    454    455     1  180.0000771  0.3347200  3
    452    451    454    456     1  180.0000771  0.0000000  2
    453    451    454    455     1  0.0000000  3.3472000  1
    453    451    454    455     1  0.0000000  0.0000000  2
    453    451    454    455     1  180.0000771  0.3347200  3
    453    451    454    456     1  180.0000771  0.0000000  2
    455    454    456    457     1  0.0000000  7.9496000  1
    455    454    456    457     1  180.0000771  9.6232000  2
    460    463    466    467     1  0.0000000  0.6508444  3
    460    463    466    468     1  0.0000000  0.6508444  3
    461    460    463    466     1  0.0000000  0.6508444  3
    461    460    463    464     1  0.0000000  0.6508444  3
    461    460    463    465     1  0.0000000  0.6508444  3
    462    460    463    466     1  0.0000000  0.6508444  3
    462    460    463    464     1  0.0000000  0.6508444  3
    462    460    463    465     1  0.0000000  0.6508444  3
    463    466    469    491     1  0.0000000  0.6508444  3
    464    463    466    469     1  0.0000000  0.6508444  3
    464    463    466    467     1  0.0000000  0.6508444  3
    464    463    466    468     1  0.0000000  0.6508444  3
    464    463    460    490     1  0.0000000  1.0460000  1
    464    463    460    490     1  0.0000000  0.0000000  3
    465    463    466    469     1  0.0000000  0.6508444  3
    465    463    466    467     1  0.0000000  0.6508444  3
    465    463    466    468     1  0.0000000  0.6508444  3
    465    463    460    490     1  0.0000000  1.0460000  1
    465    463    460    490     1  0.0000000  0.0000000  3
    466    469    470    471     1  0.0000000  0.6508444  3
    466    469    470    472     1  0.0000000  0.6508444  3
    466    469    480    481     1  0.0000000  0.6508444  3
    466    469    480    482     1  0.0000000  0.6508444  3
    467    466    469    470     1  0.0000000  0.6508444  3
    467    466    469    480     1  0.0000000  0.6508444  3
    467    466    469    491     1  0.0000000  0.6508444  3
    468    466    469    470     1  0.0000000  0.6508444  3
    468    466    469    480     1  0.0000000  0.6508444  3
    468    466    469    491     1  0.0000000  0.6508444  3
    469    470    473    474     1  0.0000000  0.6508444  3
    469    470    473    475     1  0.0000000  0.6508444  3
    469    480    483    484     1  0.0000000  0.6508444  3
    469    480    483    485     1  0.0000000  0.6508444  3
    470    469    480    481     1  0.0000000  0.6508444  3
    470    469    480    482     1  0.0000000  0.6508444  3
    471    470    473    476     1  0.0000000  0.6508444  3
    471    470    473    474     1  0.0000000  0.6508444  3
    471    470    473    475     1  0.0000000  0.6508444  3
    471    470    469    480     1  0.0000000  0.6508444  3
    471    470    469    491     1  0.0000000  0.6508444  3
    472    470    473    476     1  0.0000000  0.6508444  3
    472    470    473    474     1  0.0000000  0.6508444  3
    472    470    473    475     1  0.0000000  0.6508444  3
    472    470    469    480     1  0.0000000  0.6508444  3
    472    470    469    491     1  0.0000000  0.6508444  3
    473    476    478    479     1  180.0000771  9.6232000  2
    473    470    469    491     1  0.0000000  0.6508444  3
    474    473    476    477     1  0.0000000  3.3472000  1
    474    473    476    477     1  0.0000000  0.0000000  2
    474    473    476    477     1  180.0000771  0.3347200  3
    474    473    476    478     1  180.0000771  0.0000000  2
    475    473    476    477     1  0.0000000  3.3472000  1
    475    473    476    477     1  0.0000000  0.0000000  2
    475    473    476    477     1  180.0000771  0.3347200  3
    475    473    476    478     1  180.0000771  0.0000000  2
    477    476    478    479     1  0.0000000  7.9496000  1
    477    476    478    479     1  180.0000771  9.6232000  2
    481    480    483    486     1  0.0000000  0.6508444  3
    481    480    483    484     1  0.0000000  0.6508444  3
    481    480    483    485     1  0.0000000  0.6508444  3
    481    480    469    491     1  0.0000000  0.6508444  3
    482    480    483    486     1  0.0000000  0.6508444  3
    482    480    483    484     1  0.0000000  0.6508444  3
    482    480    483    485     1  0.0000000  0.6508444  3
    482    480    469    491     1  0.0000000  0.6508444  3
    483    486    488    489     1  180.0000771  9.6232000  2
    483    480    469    491     1  0.0000000  0.6508444  3
    484    483    486    487     1  0.0000000  3.3472000  1
    484    483    486    487     1  0.0000000  0.0000000  2
    484    483    486    487     1  180.0000771  0.3347200  3
    484    483    486    488     1  180.0000771  0.0000000  2
    485    483    486    487     1  0.0000000  3.3472000  1
    485    483    486    487     1  0.0000000  0.0000000  2
    485    483    486    487     1  180.0000771  0.3347200  3
    485    483    486    488     1  180.0000771  0.0000000  2
    487    486    488    489     1  0.0000000  7.9496000  1
    487    486    488    489     1  180.0000771  9.6232000  2
    492    495    498    499     1  0.0000000  0.6508444  3
    492    495    498    500     1  0.0000000  0.6508444  3
    493    492    495    498     1  0.0000000  0.6508444  3
    493    492    495    496     1  0.0000000  0.6508444  3
    493    492    495    497     1  0.0000000  0.6508444  3
    494    492    495    498     1  0.0000000  0.6508444  3
    494    492    495    496     1  0.0000000  0.6508444  3
    494    492    495    497     1  0.0000000  0.6508444  3
    495    498    501    523     1  0.0000000  0.6508444  3
    496    495    492    522     1  0.0000000  1.0460000  1
    496    495    492    522     1  0.0000000  0.0000000  3
    496    495    498    501     1  0.0000000  0.6508444  3
    496    495    498    499     1  0.0000000  0.6508444  3
    496    495    498    500     1  0.0000000  0.6508444  3
    497    495    492    522     1  0.0000000  1.0460000  1
    497    495    492    522     1  0.0000000  0.0000000  3
    497    495    498    501     1  0.0000000  0.6508444  3
    497    495    498    499     1  0.0000000  0.6508444  3
    497    495    498    500     1  0.0000000  0.6508444  3
    498    501    502    503     1  0.0000000  0.6508444  3
    498    501    502    504     1  0.0000000  0.6508444  3
    498    501    512    513     1  0.0000000  0.6508444  3
    498    501    512    514     1  0.0000000  0.6508444  3
    499    498    501    502     1  0.0000000  0.6508444  3
    499    498    501    512     1  0.0000000  0.6508444  3
    499    498    501    523     1  0.0000000  0.6508444  3
    500    498    501    502     1  0.0000000  0.6508444  3
    500    498    501    512     1  0.0000000  0.6508444  3
    500    498    501    523     1  0.0000000  0.6508444  3
    501    502    505    506     1  0.0000000  0.6508444  3
    501    502    505    507     1  0.0000000  0.6508444  3
    501    512    515    516     1  0.0000000  0.6508444  3
    501    512    515    517     1  0.0000000  0.6508444  3
    502    501    512    513     1  0.0000000  0.6508444  3
    502    501    512    514     1  0.0000000  0.6508444  3
    503    502    501    512     1  0.0000000  0.6508444  3
    503    502    501    523     1  0.0000000  0.6508444  3
    503    502    505    508     1  0.0000000  0.6508444  3
    503    502    505    506     1  0.0000000  0.6508444  3
    503    502    505    507     1  0.0000000  0.6508444  3
    504    502    501    512     1  0.0000000  0.6508444  3
    504    502    501    523     1  0.0000000  0.6508444  3
    504    502    505    508     1  0.0000000  0.6508444  3
    504    502    505    506     1  0.0000000  0.6508444  3
    504    502    505    507     1  0.0000000  0.6508444  3
    505    502    501    523     1  0.0000000  0.6508444  3
    505    508    510    511     1  180.0000771  9.6232000  2
    506    505    508    509     1  0.0000000  3.3472000  1
    506    505    508    509     1  0.0000000  0.0000000  2
    506    505    508    509     1  180.0000771  0.3347200  3
    506    505    508    510     1  180.0000771  0.0000000  2
    507    505    508    509     1  0.0000000  3.3472000  1
    507    505    508    509     1  0.0000000  0.0000000  2
    507    505    508    509     1  180.0000771  0.3347200  3
    507    505    508    510     1  180.0000771  0.0000000  2
    509    508    510    511     1  0.0000000  7.9496000  1
    509    508    510    511     1  180.0000771  9.6232000  2
    513    512    501    523     1  0.0000000  0.6508444  3
    513    512    515    518     1  0.0000000  0.6508444  3
    513    512    515    516     1  0.0000000  0.6508444  3
    513    512    515    517     1  0.0000000  0.6508444  3
    514    512    501    523     1  0.0000000  0.6508444  3
    514    512    515    518     1  0.0000000  0.6508444  3
    514    512    515    516     1  0.0000000  0.6508444  3
    514    512    515    517     1  0.0000000  0.6508444  3
    515    512    501    523     1  0.0000000  0.6508444  3
    515    518    520    521     1  180.0000771  9.6232000  2
    516    515    518    519     1  0.0000000  3.3472000  1
    516    515    518    519     1  0.0000000  0.0000000  2
    516    515    518    519     1  180.0000771  0.3347200  3
    516    515    518    520     1  180.0000771  0.0000000  2
    517    515    518    519     1  0.0000000  3.3472000  1
    517    515    518    519     1  0.0000000  0.0000000  2
    517    515    518    519     1  180.0000771  0.3347200  3
    517    515    518    520     1  180.0000771  0.0000000  2
    519    518    520    521     1  0.0000000  7.9496000  1
    519    518    520    521     1  180.0000771  9.6232000  2
    524    527    530    531     1  0.0000000  0.6508444  3
    524    527    530    532     1  0.0000000  0.6508444  3
    525    524    527    530     1  0.0000000  0.6508444  3
    525    524    527    528     1  0.0000000  0.6508444  3
    525    524    527    529     1  0.0000000  0.6508444  3
    526    524    527    530     1  0.0000000  0.6508444  3
    526    524    527    528     1  0.0000000  0.6508444  3
    526    524    527    529     1  0.0000000  0.6508444  3
    527    530    533    555     1  0.0000000  0.6508444  3
    528    527    530    533     1  0.0000000  0.6508444  3
    528    527    530    531     1  0.0000000  0.6508444  3
    528    527    530    532     1  0.0000000  0.6508444  3
    528    527    524    554     1  0.0000000  1.0460000  1
    528    527    524    554     1  0.0000000  0.0000000  3
    529    527    530    533     1  0.0000000  0.6508444  3
    529    527    530    531     1  0.0000000  0.6508444  3
    529    527    530    532     1  0.0000000  0.6508444  3
    529    527    524    554     1  0.0000000  1.0460000  1
    529    527    524    554     1  0.0000000  0.0000000  3
    530    533    534    535     1  0.0000000  0.6508444  3
    530    533    534    536     1  0.0000000  0.6508444  3
    530    533    544    545     1  0.0000000  0.6508444  3
    530    533    544    546     1  0.0000000  0.6508444  3
    531    530    533    534     1  0.0000000  0.6508444  3
    531    530    533    544     1  0.0000000  0.6508444  3
    531    530    533    555     1  0.0000000  0.6508444  3
    532    530    533    534     1  0.0000000  0.6508444  3
    532    530    533    544     1  0.0000000  0.6508444  3
    532    530    533    555     1  0.0000000  0.6508444  3
    533    534    537    538     1  0.0000000  0.6508444  3
    533    534    537    539     1  0.0000000  0.6508444  3
    533    544    547    548     1  0.0000000  0.6508444  3
    533    544    547    549     1  0.0000000  0.6508444  3
    534    533    544    545     1  0.0000000  0.6508444  3
    534    533    544    546     1  0.0000000  0.6508444  3
    535    534    537    540     1  0.0000000  0.6508444  3
    535    534    537    538     1  0.0000000  0.6508444  3
    535    534    537    539     1  0.0000000  0.6508444  3
    535    534    533    544     1  0.0000000  0.6508444  3
    535    534    533    555     1  0.0000000  0.6508444  3
    536    534    537    540     1  0.0000000  0.6508444  3
    536    534    537    538     1  0.0000000  0.6508444  3
    536    534    537    539     1  0.0000000  0.6508444  3
    536    534    533    544     1  0.0000000  0.6508444  3
    536    534    533    555     1  0.0000000  0.6508444  3
    537    540    542    543     1  180.0000771  9.6232000  2
    537    534    533    555     1  0.0000000  0.6508444  3
    538    537    540    541     1  0.0000000  3.3472000  1
    538    537    540    541     1  0.0000000  0.0000000  2
    538    537    540    541     1  180.0000771  0.3347200  3
    538    537    540    542     1  180.0000771  0.0000000  2
    539    537    540    541     1  0.0000000  3.3472000  1
    539    537    540    541     1  0.0000000  0.0000000  2
    539    537    540    541     1  180.0000771  0.3347200  3
    539    537    540    542     1  180.0000771  0.0000000  2
    541    540    542    543     1  0.0000000  7.9496000  1
    541    540    542    543     1  180.0000771  9.6232000  2
    545    544    547    550     1  0.0000000  0.6508444  3
    545    544    547    548     1  0.0000000  0.6508444  3
    545    544    547    549     1  0.0000000  0.6508444  3
    545    544    533    555     1  0.0000000  0.6508444  3
    546    544    547    550     1  0.0000000  0.6508444  3
    546    544    547    548     1  0.0000000  0.6508444  3
    546    544    547    549     1  0.0000000  0.6508444  3
    546    544    533    555     1  0.0000000  0.6508444  3
    547    550    552    553     1  180.0000771  9.6232000  2
    547    544    533    555     1  0.0000000  0.6508444  3
    548    547    550    551     1  0.0000000  3.3472000  1
    548    547    550    551     1  0.0000000  0.0000000  2
    548    547    550    551     1  180.0000771  0.3347200  3
    548    547    550    552     1  180.0000771  0.0000000  2
    549    547    550    551     1  0.0000000  3.3472000  1
    549    547    550    551     1  0.0000000  0.0000000  2
    549    547    550    551     1  180.0000771  0.3347200  3
    549    547    550    552     1  180.0000771  0.0000000  2
    551    550    552    553     1  0.0000000  7.9496000  1
    551    550    552    553     1  180.0000771  9.6232000  2
    556    559    562    563     1  0.0000000  0.6508444  3
    556    559    562    564     1  0.0000000  0.6508444  3
    557    556    559    562     1  0.0000000  0.6508444  3
    557    556    559    560     1  0.0000000  0.6508444  3
    557    556    559    561     1  0.0000000  0.6508444  3
    558    556    559    562     1  0.0000000  0.6508444  3
    558    556    559    560     1  0.0000000  0.6508444  3
    558    556    559    561     1  0.0000000  0.6508444  3
    559    562    565    587     1  0.0000000  0.6508444  3
    560    559    556    586     1  0.0000000  1.0460000  1
    560    559    556    586     1  0.0000000  0.0000000  3
    560    559    562    565     1  0.0000000  0.6508444  3
    560    559    562    563     1  0.0000000  0.6508444  3
    560    559    562    564     1  0.0000000  0.6508444  3
    561    559    556    586     1  0.0000000  1.0460000  1
    561    559    556    586     1  0.0000000  0.0000000  3
    561    559    562    565     1  0.0000000  0.6508444  3
    561    559    562    563     1  0.0000000  0.6508444  3
    561    559    562    564     1  0.0000000  0.6508444  3
    562    565    566    567     1  0.0000000  0.6508444  3
    562    565    566    568     1  0.0000000  0.6508444  3
    562    565    576    577     1  0.0000000  0.6508444  3
    562    565    576    578     1  0.0000000  0.6508444  3
    563    562    565    566     1  0.0000000  0.6508444  3
    563    562    565    576     1  0.0000000  0.6508444  3
    563    562    565    587     1  0.0000000  0.6508444  3
    564    562    565    566     1  0.0000000  0.6508444  3
    564    562    565    576     1  0.0000000  0.6508444  3
    564    562    565    587     1  0.0000000  0.6508444  3
    565    566    569    570     1  0.0000000  0.6508444  3
    565    566    569    571     1  0.0000000  0.6508444  3
    565    576    579    580     1  0.0000000  0.6508444  3
    565    576    579    581     1  0.0000000  0.6508444  3
    566    565    576    577     1  0.0000000  0.6508444  3
    566    565    576    578     1  0.0000000  0.6508444  3
    567    566    565    576     1  0.0000000  0.6508444  3
    567    566    565    587     1  0.0000000  0.6508444  3
    567    566    569    572     1  0.0000000  0.6508444  3
    567    566    569    570     1  0.0000000  0.6508444  3
    567    566    569    571     1  0.0000000  0.6508444  3
    568    566    565    576     1  0.0000000  0.6508444  3
    568    566    565    587     1  0.0000000  0.6508444  3
    568    566    569    572     1  0.0000000  0.6508444  3
    568    566    569    570     1  0.0000000  0.6508444  3
    568    566    569    571     1  0.0000000  0.6508444  3
    569    566    565    587     1  0.0000000  0.6508444  3
    569    572    574    575     1  180.0000771  9.6232000  2
    570    569    572    573     1  0.0000000  3.3472000  1
    570    569    572    573     1  0.0000000  0.0000000  2
    570    569    572    573     1  180.0000771  0.3347200  3
    570    569    572    574     1  180.0000771  0.0000000  2
    571    569    572    573     1  0.0000000  3.3472000  1
    571    569    572    573     1  0.0000000  0.0000000  2
    571    569    572    573     1  180.0000771  0.3347200  3
    571    569    572    574     1  180.0000771  0.0000000  2
    573    572    574    575     1  0.0000000  7.9496000  1
    573    572    574    575     1  180.0000771  9.6232000  2
    577    576    565    587     1  0.0000000  0.6508444  3
    577    576    579    582     1  0.0000000  0.6508444  3
    577    576    579    580     1  0.0000000  0.6508444  3
    577    576    579    581     1  0.0000000  0.6508444  3
    578    576    565    587     1  0.0000000  0.6508444  3
    578    576    579    582     1  0.0000000  0.6508444  3
    578    576    579    580     1  0.0000000  0.6508444  3
    578    576    579    581     1  0.0000000  0.6508444  3
    579    576    565    587     1  0.0000000  0.6508444  3
    579    582    584    585     1  180.0000771  9.6232000  2
    580    579    582    583     1  0.0000000  3.3472000  1
    580    579    582    583     1  0.0000000  0.0000000  2
    580    579    582    583     1  180.0000771  0.3347200  3
    580    579    582    584     1  180.0000771  0.0000000  2
    581    579    582    583     1  0.0000000  3.3472000  1
    581    579    582    583     1  0.0000000  0.0000000  2
    581    579    582    583     1  180.0000771  0.3347200  3
    581    579    582    584     1  180.0000771  0.0000000  2
    583    582    584    585     1  0.0000000  7.9496000  1
    583    582    584    585     1  180.0000771  9.6232000  2
    588    591    594    595     1  0.0000000  0.6508444  3
    588    591    594    596     1  0.0000000  0.6508444  3
    589    588    591    594     1  0.0000000  0.6508444  3
    589    588    591    592     1  0.0000000  0.6508444  3
    589    588    591    593     1  0.0000000  0.6508444  3
    590    588    591    594     1  0.0000000  0.6508444  3
    590    588    591    592     1  0.0000000  0.6508444  3
    590    588    591    593     1  0.0000000  0.6508444  3
    591    594    597    619     1  0.0000000  0.6508444  3
    592    591    594    597     1  0.0000000  0.6508444  3
    592    591    594    595     1  0.0000000  0.6508444  3
    592    591    594    596     1  0.0000000  0.6508444  3
    592    591    588    618     1  0.0000000  1.0460000  1
    592    591    588    618     1  0.0000000  0.0000000  3
    593    591    594    597     1  0.0000000  0.6508444  3
    593    591    594    595     1  0.0000000  0.6508444  3
    593    591    594    596     1  0.0000000  0.6508444  3
    593    591    588    618     1  0.0000000  1.0460000  1
    593    591    588    618     1  0.0000000  0.0000000  3
    594    597    598    599     1  0.0000000  0.6508444  3
    594    597    598    600     1  0.0000000  0.6508444  3
    594    597    608    609     1  0.0000000  0.6508444  3
    594    597    608    610     1  0.0000000  0.6508444  3
    595    594    597    598     1  0.0000000  0.6508444  3
    595    594    597    608     1  0.0000000  0.6508444  3
    595    594    597    619     1  0.0000000  0.6508444  3
    596    594    597    598     1  0.0000000  0.6508444  3
    596    594    597    608     1  0.0000000  0.6508444  3
    596    594    597    619     1  0.0000000  0.6508444  3
    597    598    601    602     1  0.0000000  0.6508444  3
    597    598    601    603     1  0.0000000  0.6508444  3
    597    608    611    612     1  0.0000000  0.6508444  3
    597    608    611    613     1  0.0000000  0.6508444  3
    598    597    608    609     1  0.0000000  0.6508444  3
    598    597    608    610     1  0.0000000  0.6508444  3
    599    598    601    604     1  0.0000000  0.6508444  3
    599    598    601    602     1  0.0000000  0.6508444  3
    599    598    601    603     1  0.0000000  0.6508444  3
    599    598    597    608     1  0.0000000  0.6508444  3
    599    598    597    619     1  0.0000000  0.6508444  3
    600    598    601    604     1  0.0000000  0.6508444  3
    600    598    601    602     1  0.0000000  0.6508444  3
    600    598    601    603     1  0.0000000  0.6508444  3
    600    598    597    608     1  0.0000000  0.6508444  3
    600    598    597    619     1  0.0000000  0.6508444  3
    601    604    606    607     1  180.0000771  9.6232000  2
    601    598    597    619     1  0.0000000  0.6508444  3
    602    601    604    605     1  0.0000000  3.3472000  1
    602    601    604    605     1  0.0000000  0.0000000  2
    602    601    604    605     1  180.0000771  0.3347200  3
    602    601    604    606     1  180.0000771  0.0000000  2
    603    601    604    605     1  0.0000000  3.3472000  1
    603    601    604    605     1  0.0000000  0.0000000  2
    603    601    604    605     1  180.0000771  0.3347200  3
    603    601    604    606     1  180.0000771  0.0000000  2
    605    604    606    607     1  0.0000000  7.9496000  1
    605    604    606    607     1  180.0000771  9.6232000  2
    609    608    611    614     1  0.0000000  0.6508444  3
    609    608    611    612     1  0.0000000  0.6508444  3
    609    608    611    613     1  0.0000000  0.6508444  3
    609    608    597    619     1  0.0000000  0.6508444  3
    610    608    611    614     1  0.0000000  0.6508444  3
    610    608    611    612     1  0.0000000  0.6508444  3
    610    608    611    613     1  0.0000000  0.6508444  3
    610    608    597    619     1  0.0000000  0.6508444  3
    611    614    616    617     1  180.0000771  9.6232000  2
    611    608    597    619     1  0.0000000  0.6508444  3
    612    611    614    615     1  0.0000000  3.3472000  1
    612    611    614    615     1  0.0000000  0.0000000  2
    612    611    614    615     1  180.0000771  0.3347200  3
    612    611    614    616     1  180.0000771  0.0000000  2
    613    611    614    615     1  0.0000000  3.3472000  1
    613    611    614    615     1  0.0000000  0.0000000  2
    613    611    614    615     1  180.0000771  0.3347200  3
    613    611    614    616     1  180.0000771  0.0000000  2
    615    614    616    617     1  0.0000000  7.9496000  1
    615    614    616    617     1  180.0000771  9.6232000  2
    620    623    626    627     1  0.0000000  0.6508444  3
    620    623    626    628     1  0.0000000  0.6508444  3
    621    620    623    626     1  0.0000000  0.6508444  3
    621    620    623    624     1  0.0000000  0.6508444  3
    621    620    623    625     1  0.0000000  0.6508444  3
    622    620    623    626     1  0.0000000  0.6508444  3
    622    620    623    624     1  0.0000000  0.6508444  3
    622    620    623    625     1  0.0000000  0.6508444  3
    623    626    629    651     1  0.0000000  0.6508444  3
    624    623    620    650     1  0.0000000  1.0460000  1
    624    623    620    650     1  0.0000000  0.0000000  3
    624    623    626    629     1  0.0000000  0.6508444  3
    624    623    626    627     1  0.0000000  0.6508444  3
    624    623    626    628     1  0.0000000  0.6508444  3
    625    623    620    650     1  0.0000000  1.0460000  1
    625    623    620    650     1  0.0000000  0.0000000  3
    625    623    626    629     1  0.0000000  0.6508444  3
    625    623    626    627     1  0.0000000  0.6508444  3
    625    623    626    628     1  0.0000000  0.6508444  3
    626    629    630    631     1  0.0000000  0.6508444  3
    626    629    630    632     1  0.0000000  0.6508444  3
    626    629    640    641     1  0.0000000  0.6508444  3
    626    629    640    642     1  0.0000000  0.6508444  3
    627    626    629    630     1  0.0000000  0.6508444  3
    627    626    629    640     1  0.0000000  0.6508444  3
    627    626    629    651     1  0.0000000  0.6508444  3
    628    626    629    630     1  0.0000000  0.6508444  3
    628    626    629    640     1  0.0000000  0.6508444  3
    628    626    629    651     1  0.0000000  0.6508444  3
    629    630    633    634     1  0.0000000  0.6508444  3
    629    630    633    635     1  0.0000000  0.6508444  3
    629    640    643    644     1  0.0000000  0.6508444  3
    629    640    643    645     1  0.0000000  0.6508444  3
    630    629    640    641     1  0.0000000  0.6508444  3
    630    629    640    642     1  0.0000000  0.6508444  3
    631    630    629    640     1  0.0000000  0.6508444  3
    631    630    629    651     1  0.0000000  0.6508444  3
    631    630    633    636     1  0.0000000  0.6508444  3
    631    630    633    634     1  0.0000000  0.6508444  3
    631    630    633    635     1  0.0000000  0.6508444  3
    632    630    629    640     1  0.0000000  0.6508444  3
    632    630    629    651     1  0.0000000  0.6508444  3
    632    630    633    636     1  0.0000000  0.6508444  3
    632    630    633    634     1  0.0000000  0.6508444  3
    632    630    633    635     1  0.0000000  0.6508444  3
    633    630    629    651     1  0.0000000  0.6508444  3
    633    636    638    639     1  180.0000771  9.6232000  2
    634    633    636    637     1  0.0000000  3.3472000  1
    634    633    636    637     1  0.0000000  0.0000000  2
    634    633    636    637     1  180.0000771  0.3347200  3
    634    633    636    638     1  180.0000771  0.0000000  2
    635    633    636    637     1  0.0000000  3.3472000  1
    635    633    636    637     1  0.0000000  0.0000000  2
    635    633    636    637     1  180.0000771  0.3347200  3
    635    633    636    638     1  180.0000771  0.0000000  2
    637    636    638    639     1  0.0000000  7.9496000  1
    637    636    638    639     1  180.0000771  9.6232000  2
    641    640    629    651     1  0.0000000  0.6508444  3
    641    640    643    646     1  0.0000000  0.6508444  3
    641    640    643    644     1  0.0000000  0.6508444  3
    641    640    643    645     1  0.0000000  0.6508444  3
    642    640    629    651     1  0.0000000  0.6508444  3
    642    640    643    646     1  0.0000000  0.6508444  3
    642    640    643    644     1  0.0000000  0.6508444  3
    642    640    643    645     1  0.0000000  0.6508444  3
    643    640    629    651     1  0.0000000  0.6508444  3
    643    646    648    649     1  180.0000771  9.6232000  2
    644    643    646    647     1  0.0000000  3.3472000  1
    644    643    646    647     1  0.0000000  0.0000000  2
    644    643    646    647     1  180.0000771  0.3347200  3
    644    643    646    648     1  180.0000771  0.0000000  2
    645    643    646    647     1  0.0000000  3.3472000  1
    645    643    646    647     1  0.0000000  0.0000000  2
    645    643    646    647     1  180.0000771  0.3347200  3
    645    643    646    648     1  180.0000771  0.0000000  2
    647    646    648    649     1  0.0000000  7.9496000  1
    647    646    648    649     1  180.0000771  9.6232000  2
    652    655    658    659     1  0.0000000  0.6508444  3
    652    655    658    660     1  0.0000000  0.6508444  3
    653    652    655    658     1  0.0000000  0.6508444  3
    653    652    655    656     1  0.0000000  0.6508444  3
    653    652    655    657     1  0.0000000  0.6508444  3
    654    652    655    658     1  0.0000000  0.6508444  3
    654    652    655    656     1  0.0000000  0.6508444  3
    654    652    655    657     1  0.0000000  0.6508444  3
    655    658    661    683     1  0.0000000  0.6508444  3
    656    655    658    661     1  0.0000000  0.6508444  3
    656    655    658    659     1  0.0000000  0.6508444  3
    656    655    658    660     1  0.0000000  0.6508444  3
    656    655    652    682     1  0.0000000  1.0460000  1
    656    655    652    682     1  0.0000000  0.0000000  3
    657    655    658    661     1  0.0000000  0.6508444  3
    657    655    658    659     1  0.0000000  0.6508444  3
    657    655    658    660     1  0.0000000  0.6508444  3
    657    655    652    682     1  0.0000000  1.0460000  1
    657    655    652    682     1  0.0000000  0.0000000  3
    658    661    662    663     1  0.0000000  0.6508444  3
    658    661    662    664     1  0.0000000  0.6508444  3
    658    661    672    673     1  0.0000000  0.6508444  3
    658    661    672    674     1  0.0000000  0.6508444  3
    659    658    661    662     1  0.0000000  0.6508444  3
    659    658    661    672     1  0.0000000  0.6508444  3
    659    658    661    683     1  0.0000000  0.6508444  3
    660    658    661    662     1  0.0000000  0.6508444  3
    660    658    661    672     1  0.0000000  0.6508444  3
    660    658    661    683     1  0.0000000  0.6508444  3
    661    662    665    666     1  0.0000000  0.6508444  3
    661    662    665    667     1  0.0000000  0.6508444  3
    661    672    675    676     1  0.0000000  0.6508444  3
    661    672    675    677     1  0.0000000  0.6508444  3
    662    661    672    673     1  0.0000000  0.6508444  3
    662    661    672    674     1  0.0000000  0.6508444  3
    663    662    665    668     1  0.0000000  0.6508444  3
    663    662    665    666     1  0.0000000  0.6508444  3
    663    662    665    667     1  0.0000000  0.6508444  3
    663    662    661    672     1  0.0000000  0.6508444  3
    663    662    661    683     1  0.0000000  0.6508444  3
    664    662    665    668     1  0.0000000  0.6508444  3
    664    662    665    666     1  0.0000000  0.6508444  3
    664    662    665    667     1  0.0000000  0.6508444  3
    664    662    661    672     1  0.0000000  0.6508444  3
    664    662    661    683     1  0.0000000  0.6508444  3
    665    668    670    671     1  180.0000771  9.6232000  2
    665    662    661    683     1  0.0000000  0.6508444  3
    666    665    668    669     1  0.0000000  3.3472000  1
    666    665    668    669     1  0.0000000  0.0000000  2
    666    665    668    669     1  180.0000771  0.3347200  3
    666    665    668    670     1  180.0000771  0.0000000  2
    667    665    668    669     1  0.0000000  3.3472000  1
    667    665    668    669     1  0.0000000  0.0000000  2
    667    665    668    669     1  180.0000771  0.3347200  3
    667    665    668    670     1  180.0000771  0.0000000  2
    669    668    670    671     1  0.0000000  7.9496000  1
    669    668    670    671     1  180.0000771  9.6232000  2
    673    672    675    678     1  0.0000000  0.6508444  3
    673    672    675    676     1  0.0000000  0.6508444  3
    673    672    675    677     1  0.0000000  0.6508444  3
    673    672    661    683     1  0.0000000  0.6508444  3
    674    672    675    678     1  0.0000000  0.6508444  3
    674    672    675    676     1  0.0000000  0.6508444  3
    674    672    675    677     1  0.0000000  0.6508444  3
    674    672    661    683     1  0.0000000  0.6508444  3
    675    678    680    681     1  180.0000771  9.6232000  2
    675    672    661    683     1  0.0000000  0.6508444  3
    676    675    678    679     1  0.0000000  3.3472000  1
    676    675    678    679     1  0.0000000  0.0000000  2
    676    675    678    679     1  180.0000771  0.3347200  3
    676    675    678    680     1  180.0000771  0.0000000  2
    677    675    678    679     1  0.0000000  3.3472000  1
    677    675    678    679     1  0.0000000  0.0000000  2
    677    675    678    679     1  180.0000771  0.3347200  3
    677    675    678    680     1  180.0000771  0.0000000  2
    679    678    680    681     1  0.0000000  7.9496000  1
    679    678    680    681     1  180.0000771  9.6232000  2

;[ system ]
;; Name
;Generic title
;
;[ molecules ]
;; Compound       #mols
;system1              1
