G3.5ncore-PETIM in water
38226
    1aaa     N1    1   1.464   3.911   7.243  0.1465 -0.3241 -0.6946
    1aaa     C1    2   1.371   3.980   7.155  0.5005  0.4036  0.7085
    1aaa     H1    3   1.284   3.916   7.138  0.7860 -0.1021  1.1404
    1aaa     H2    4   1.322   4.066   7.201 -3.0938 -1.0175 -0.1124
    1aaa     C2    5   1.511   3.775   7.191 -0.7825  0.1467 -0.5046
    1aaa     H3    6   1.567   3.796   7.100  2.5127  0.4049  1.4070
    1aaa     H4    7   1.588   3.741   7.261 -1.4064  0.7126  0.4828
    1aaa     C3    8   1.581   3.994   7.294  0.9113  0.8029  0.4238
    1aaa     H5    9   1.669   3.937   7.324 -0.1821 -0.2902  1.6772
    1aaa     H6   10   1.621   4.061   7.218 -1.0587 -0.5620 -1.9263
    1aaa     C4   11   1.531   4.078   7.420  0.5880 -0.2951 -0.4742
    1aaa     H7   12   1.624   4.113   7.467  0.5442 -1.3444  0.4548
    1aaa     H8   13   1.477   4.170   7.397 -2.1224 -1.3363  1.2082
    1aaa     C5   14   1.432   4.038   7.024  0.4392 -0.1489  0.4591
    1aaa     H9   15   1.494   3.956   6.985  1.0366  0.8524 -0.7508
    1aaa    H10   16   1.352   4.047   6.950 -0.3183  0.2416  1.3019
    1aaa     C6   17   1.402   3.665   7.173  0.0977  0.6010  0.2721
    1aaa    H11   18   1.366   3.624   7.268  2.9292  0.5735  1.4229
    1aaa    H12   19   1.314   3.709   7.124 -0.7784 -2.3847 -1.1136
    1aaa     C7   20   1.450   3.554   7.067  0.2208 -0.4747 -0.6453
    1aaa    H13   21   1.488   3.600   6.975  0.0294 -3.2730 -2.2528
    1aaa    H14   22   1.537   3.507   7.114 -0.0287 -1.1270 -0.8268
    1aaa     C8   23   1.436   3.985   7.515 -0.0764  0.5771 -0.1246
    1aaa    H15   24   1.484   3.890   7.542 -1.4510 -0.9139 -2.5773
    1aaa    H16   25   1.424   4.027   7.616 -1.7636  0.2468 -0.1497
    1aaa     C9   26   1.517   4.170   7.039 -0.6277  0.5037 -0.0036
    1aaa    H17   27   1.514   4.214   7.140  0.3999  2.1568 -0.6632
    1aaa    H18   28   1.620   4.136   7.023 -1.8318 -2.2072 -3.0591
    1aaa    H19   29   1.408   3.884   7.326 -0.3425  0.2707 -0.8245
    2bbb     N1   30   1.001   3.242   7.111 -0.1229 -0.3083 -0.1024
    2bbb     C1   31   0.995   3.246   7.264 -0.4961 -0.1013 -0.0879
    2bbb     H1   32   0.904   3.295   7.298 -0.3438 -0.5360  0.9931
    2bbb     H2   33   1.073   3.308   7.308  2.1810 -2.3977 -1.2832
    2bbb     C2   34   0.875   3.193   7.050  0.5759 -0.5256 -0.2665
    2bbb     H3   35   0.853   3.105   7.110 -3.6683  0.6657  0.2196
    2bbb     H4   36   0.896   3.158   6.949  0.0846 -1.1345 -0.1643
    2bbb     C3   37   1.053   3.379   7.063 -0.1632 -1.3505 -1.0376
    2bbb     H5   38   1.122   3.402   7.144 -1.8406 -2.1410  0.7135
    2bbb     H6   39   0.971   3.450   7.076  0.2255 -1.2623  1.3767
    2bbb     C4   40   1.127   3.394   6.932 -0.1259 -0.1831 -0.0121
    2bbb     H7   41   1.058   3.425   6.853 -0.2817 -1.9752 -0.6174
    2bbb     H8   42   1.174   3.301   6.898 -0.4568 -0.1637 -0.5286
    2bbb     C5   43   0.995   3.104   7.326  0.0407 -0.6166  0.4064
    2bbb     H9   44   0.895   3.068   7.301 -0.6907  2.0043 -0.7306
    2bbb    H10   45   0.985   3.110   7.435  0.5930 -1.9843  0.5486
    2bbb     C6   46   0.755   3.280   7.043 -0.1693 -0.3647  0.2154
    2bbb    H11   47   0.760   3.363   6.971  0.2567  0.5874  1.3061
    2bbb    H12   48   0.742   3.332   7.139  1.4631 -0.0170  0.2791
    2bbb     C7   49   1.243   3.505   6.938 -0.2128  0.5143 -0.4004
    2bbb    H13   50   1.201   3.605   6.949 -0.6428  0.4530 -1.3219
    2bbb    H14   51   1.291   3.510   6.839 -0.1274 -1.1616 -0.4776
    2bbb     C8   52   0.625   3.191   7.042  1.0285 -0.4955  0.3584
    2bbb    H15   53   0.630   3.114   7.120  0.8508 -1.2243 -0.3375
    2bbb    H16   54   0.535   3.252   7.058  0.4686 -0.3061 -2.7796
    2bbb     C9   55   1.118   3.013   7.291 -0.2463 -0.2326  0.8966
    2bbb    H17   56   1.107   2.921   7.348 -0.5152 -0.4273  0.5345
    2bbb    H18   57   1.213   3.057   7.325  0.0872 -0.6012  0.4691
    2bbb     O1   58   1.336   3.465   7.042 -0.0123  0.0679 -0.7809
    2bbb    H19   59   1.072   3.170   7.093  0.2012 -0.1401  0.4710
    3bbb     N1   60   1.031   4.005   7.664  0.5409  0.3726 -0.1075
    3bbb     C1   61   0.954   4.136   7.709 -0.2801  0.0102  0.4998
    3bbb     H1   62   1.008   4.219   7.664  2.1154  0.2190  3.4249
    3bbb     H2   63   0.970   4.146   7.817  0.8414 -0.7265  0.4266
    3bbb     C2   64   0.981   3.888   7.748  0.3317 -0.3112  0.1616
    3bbb     H3   65   0.882   3.866   7.707  0.9639 -0.0771 -1.5790
    3bbb     H4   66   0.975   3.914   7.854 -0.4140  0.7599 -0.1332
    3bbb     C3   67   1.011   3.956   7.525  0.5739  0.1138 -0.2598
    3bbb     H5   68   0.902   3.951   7.516  0.4667 -2.0506  1.4198
    3bbb     H6   69   1.047   3.853   7.523  0.5487  0.0293  1.8281
    3bbb     C4   70   1.072   4.040   7.414  0.1030 -0.3343  0.2087
    3bbb     H7   71   1.012   4.132   7.412  0.5749 -0.0277 -1.2782
    3bbb     H8   72   1.067   3.986   7.319  1.0525  0.4366 -0.3020
    3bbb     C5   73   0.804   4.138   7.672 -0.7533  0.2956  0.2130
    3bbb     H9   74   0.764   4.064   7.744  0.0687  0.3855  0.7746
    3bbb    H10   75   0.793   4.099   7.570 -3.3656 -0.2290  0.6036
    3bbb     C6   76   1.051   3.753   7.748 -0.2485  0.3820  0.4600
    3bbb    H11   77   1.029   3.698   7.656 -0.9152  0.2188  0.7085
    3bbb    H12   78   1.011   3.693   7.831  2.7176  0.1958  1.8760
    3bbb     C7   79   1.222   4.076   7.449  0.7103 -0.3990 -0.1657
    3bbb    H13   80   1.220   4.135   7.542 -0.7925  1.0914 -1.0774
    3bbb    H14   81   1.253   4.145   7.369  1.3581 -0.7586 -0.2258
    3bbb     C8   82   1.204   3.752   7.765 -0.1418 -0.1907  0.3543
    3bbb    H15   83   1.249   3.655   7.742  0.7709  0.4677 -0.7116
    3bbb    H16   84   1.250   3.829   7.702  1.0642 -0.9274  0.3182
    3bbb     C9   85   0.733   4.271   7.680 -0.0095 -0.4544  0.1233
    3bbb    H17   86   0.719   4.275   7.789  0.1158 -0.0061  0.1258
    3bbb    H18   87   0.633   4.276   7.635  0.2719  0.2140 -0.4597
    3bbb     O1   88   1.309   3.959   7.463  0.1789  0.0636 -0.3529
    3bbb    H19   89   1.130   4.018   7.687  0.9615 -1.1138 -0.9459
    4bbb     N1   90   1.321   4.562   6.641 -0.6484  0.1336 -0.3393
    4bbb     C1   91   1.248   4.690   6.671 -0.4927 -0.6967 -0.6782
    4bbb     H1   92   1.208   4.733   6.578 -0.7282 -0.5610 -0.5156
    4bbb     H2   93   1.329   4.757   6.702 -0.4399 -0.7813 -0.6340
    4bbb     C2   94   1.428   4.582   6.535  0.2585  0.2179  0.4448
    4bbb     H3   95   1.521   4.605   6.587  0.8441  0.9987 -0.8966
    4bbb     H4   96   1.401   4.667   6.472  0.5799  0.6558  0.8911
    4bbb     C3   97   1.381   4.496   6.771  0.3051 -0.3419 -0.6635
    4bbb     H5   98   1.402   4.577   6.841 -1.8577 -0.2044 -0.1103
    4bbb     H6   99   1.480   4.458   6.746  0.4774 -0.6516  0.4875
    4bbb     C4  100   1.296   4.377   6.819  0.6496  0.7856 -0.1169
    4bbb     H7  101   1.298   4.300   6.742 -1.4179  1.3618 -0.8243
    4bbb     H8  102   1.188   4.398   6.820  0.2628 -0.9243 -1.3887
    4bbb     C5  103   1.134   4.687   6.771  0.3857 -0.0722 -0.4791
    4bbb     H9  104   1.165   4.657   6.872  0.7170  2.3111  0.1676
    4bbb    H10  105   1.058   4.617   6.733 -0.7313  1.8062 -1.9061
    4bbb     C6  106   1.470   4.462   6.457 -0.3330 -0.1860 -0.3752
    4bbb    H11  107   1.383   4.430   6.399  0.6125 -1.5379 -1.1038
    4bbb    H12  108   1.497   4.378   6.523  0.1895 -0.6312 -1.1336
    4bbb     C7  109   1.332   4.327   6.958 -0.2480 -0.3487  0.0046
    4bbb    H13  110   1.263   4.249   6.991 -0.1004 -1.1567 -1.5052
    4bbb    H14  111   1.326   4.408   7.031  1.1977  0.9172 -1.2029
    4bbb     C8  112   1.588   4.509   6.361  0.9679  0.1501 -0.3368
    4bbb    H15  113   1.609   4.427   6.291  1.0977  1.0581 -1.3843
    4bbb    H16  114   1.565   4.596   6.298  0.1300  0.9445  1.0333
    4bbb     C9  115   1.071   4.832   6.775  0.6824  0.1325  0.6376
    4bbb    H17  116   0.985   4.836   6.842  0.0132 -0.5809 -0.1620
    4bbb    H18  117   1.028   4.861   6.678  0.5524  2.2243  1.2656
    4bbb     O1  118   1.470   4.271   6.939 -0.1263  0.7251  0.0175
    4bbb    H19  119   1.261   4.493   6.592  0.1197 -0.5169 -0.3803
    5bbb     N1  120   0.480   2.912   6.521 -0.1517  0.4625  0.3290
    5bbb     C1  121   0.620   2.857   6.476 -0.3934  0.3319 -0.9292
    5bbb     H1  122   0.600   2.760   6.430 -0.1888 -1.3655  2.2673
    5bbb     H2  123   0.666   2.827   6.571 -3.3042  0.4669  0.6313
    5bbb     C2  124   0.389   2.794   6.548  0.0134  0.6510 -0.1263
    5bbb     H3  125   0.412   2.737   6.638 -1.2784 -0.3558 -0.4117
    5bbb     H4  126   0.409   2.724   6.467  2.3278  0.9509  0.1227
    5bbb     C3  127   0.487   3.008   6.641 -0.3948 -0.2211  0.3130
    5bbb     H5  128   0.388   3.051   6.653  0.3281  1.7483 -0.3472
    5bbb     H6  129   0.563   3.084   6.618  0.2284 -1.1532 -0.8473
    5bbb     C4  130   0.530   2.947   6.779 -0.0067 -0.2875  0.0647
    5bbb     H7  131   0.635   2.917   6.770 -0.2001 -0.5585 -1.5255
    5bbb     H8  132   0.475   2.854   6.797  0.5154 -0.8686 -1.2172
    5bbb     C5  133   0.704   2.951   6.400 -0.7396  0.2905 -0.2767
    5bbb     H9  134   0.796   2.901   6.368 -0.8988  0.4668 -1.0300
    5bbb    H10  135   0.740   3.026   6.472 -1.1626  1.9148 -1.6818
    5bbb     C6  136   0.241   2.835   6.571  0.7964  0.0003  0.0097
    5bbb    H11  137   0.202   2.891   6.485  1.5938 -0.9020 -0.9654
    5bbb    H12  138   0.227   2.889   6.666  0.3645 -1.2476  0.6765
    5bbb     C7  139   0.500   3.024   6.907 -0.1627 -0.7265  0.4826
    5bbb    H13  140   0.520   2.954   6.989  1.3885 -0.6177  0.2313
    5bbb    H14  141   0.394   3.047   6.894 -0.0910 -1.5397 -2.0714
    5bbb     C8  142   0.160   2.710   6.585 -0.4544  0.6497  0.3519
    5bbb    H15  143   0.055   2.732   6.606 -0.4199 -1.1044  2.8022
    5bbb    H16  144   0.179   2.660   6.489  3.8061  3.0609 -0.3159
    5bbb     C9  145   0.629   3.022   6.283 -0.1551 -0.6376 -0.0514
    5bbb    H17  146   0.697   3.094   6.236 -0.7496  0.5479  0.8588
    5bbb    H18  147   0.543   3.086   6.307  0.8449  1.3126 -1.3936
    5bbb     O1  148   0.595   3.129   6.912  0.3032  0.0062  0.3508
    5bbb    H19  149   0.453   2.965   6.437  0.5086 -0.4566 -0.5038
    6bbb     N1  150   1.483   2.773   6.948 -0.1802  0.1532 -0.4884
    6bbb     C1  151   1.421   2.653   6.872  0.5185  0.1718 -0.4377
    6bbb     H1  152   1.314   2.658   6.892  0.5876 -2.4329  0.8668
    6bbb     H2  153   1.458   2.561   6.916 -0.9172 -0.0482  0.3489
    6bbb     C2  154   1.631   2.786   6.920 -0.3826 -0.4663  0.1026
    6bbb     H3  155   1.656   2.892   6.916 -0.3043 -0.4504  0.8346
    6bbb     H4  156   1.656   2.740   6.824  3.3386  0.3476  0.5319
    6bbb     C3  157   1.416   2.906   6.907  0.3068  0.0656  0.4845
    6bbb     H5  158   1.412   2.920   6.799 -0.0690 -0.0734  0.4777
    6bbb     H6  159   1.484   2.985   6.940  0.7188 -0.3728  0.7105
    6bbb     C4  160   1.272   2.930   6.959 -0.3878 -0.5658 -0.7316
    6bbb     H7  161   1.199   2.852   6.933 -1.0831 -1.0486  2.3430
    6bbb     H8  162   1.242   3.025   6.914  0.3375  1.4940  2.8027
    6bbb     C5  163   1.439   2.638   6.717 -1.1222 -0.9566 -0.3811
    6bbb     H9  164   1.547   2.619   6.706 -0.3482  0.7052  3.0841
    6bbb    H10  165   1.428   2.730   6.657  0.4914 -1.3284 -1.3153
    6bbb     C6  166   1.717   2.732   7.042  0.2089 -0.2224 -0.6534
    6bbb    H11  167   1.670   2.644   7.088 -0.2772 -0.4263 -1.5143
    6bbb    H12  168   1.726   2.812   7.117  1.3470 -0.2948 -0.6903
    6bbb     C7  169   1.259   2.945   7.113 -0.1733  0.2674  0.2544
    6bbb    H13  170   1.340   3.011   7.148  2.8603 -3.0000 -0.0085
    6bbb    H14  171   1.283   2.849   7.159 -0.6221 -0.1435 -0.3646
    6bbb     C8  172   1.857   2.682   6.985  0.1413 -0.4942  0.1203
    6bbb    H15  173   1.928   2.647   7.061 -1.2577  0.8599  2.1527
    6bbb    H16  174   1.822   2.600   6.921  1.5619 -1.0677  0.0583
    6bbb     C9  175   1.359   2.531   6.657  0.3673  0.3164 -0.5055
    6bbb    H17  176   1.353   2.538   6.548 -1.0551 -1.1446 -0.5670
    6bbb    H18  177   1.256   2.518   6.694  0.9836 -1.7577  0.6594
    6bbb     O1  178   1.131   2.991   7.150  0.2731  0.3066 -0.1737
    6bbb    H19  179   1.474   2.763   7.050  0.7753  0.0674 -0.4102
    7bbb     N1  180   1.273   3.741   8.304  0.0389 -0.3200 -0.4297
    7bbb     C1  181   1.166   3.647   8.367  0.9383  0.6071 -0.9157
    7bbb     H1  182   1.073   3.647   8.311  1.7031 -1.3235 -2.2706
    7bbb     H2  183   1.130   3.696   8.458 -1.8674 -1.2179 -0.9322
    7bbb     C2  184   1.393   3.757   8.386  0.0647  0.3974 -0.0561
    7bbb     H3  185   1.462   3.828   8.341  0.6803  0.5451  1.0689
    7bbb     H4  186   1.451   3.665   8.393 -0.8151 -0.1695  0.0619
    7bbb     C3  187   1.322   3.680   8.173  0.2492 -0.1544 -0.3593
    7bbb     H5  188   1.231   3.652   8.120  0.0487  0.2628 -0.2481
    7bbb     H6  189   1.383   3.591   8.186  1.1773  0.7382  1.7784
    7bbb     C4  190   1.388   3.780   8.082 -0.3432 -0.7189  0.1883
    7bbb     H7  191   1.496   3.770   8.101 -0.3721 -1.7674 -0.1171
    7bbb     H8  192   1.352   3.882   8.097 -3.0021 -1.4443 -0.7265
    7bbb     C5  193   1.214   3.501   8.400  0.5371 -0.5937  0.0846
    7bbb     H9  194   1.287   3.523   8.478 -0.2617 -0.9011  0.9443
    7bbb    H10  195   1.249   3.450   8.310  1.0027 -0.1887  0.0332
    7bbb     C6  196   1.357   3.810   8.529 -1.2023 -0.3640  0.7876
    7bbb    H11  197   1.353   3.728   8.602  1.7663 -1.5714 -0.2476
    7bbb    H12  198   1.256   3.853   8.533 -0.2940  2.0753 -0.5820
    7bbb     C7  199   1.370   3.750   7.930  0.6080  0.0702 -0.1013
    7bbb    H13  200   1.400   3.646   7.915 -0.3561 -0.1170 -0.8554
    7bbb    H14  201   1.436   3.812   7.867 -0.1636  0.2903 -0.7048
    7bbb     C8  202   1.455   3.922   8.577 -0.0666 -0.1501  0.2111
    7bbb    H15  203   1.431   4.016   8.526 -0.7093  0.2378  1.1986
    7bbb    H16  204   1.435   3.939   8.683  0.7535  0.4090  0.2802
    7bbb     C9  205   1.101   3.414   8.457 -0.1579  0.3329  0.4063
    7bbb    H17  206   1.132   3.310   8.443  1.0843  0.4603  1.9592
    7bbb    H18  207   1.006   3.431   8.406  0.0827  0.1683 -0.0986
    7bbb     O1  208   1.231   3.765   7.899 -0.5586  0.2093  0.3867
    7bbb    H19  209   1.231   3.831   8.279 -0.5570  0.3742  2.6324
    8bbb     N1  210   0.680   4.553   8.071  0.1997  0.1879 -0.2314
    8bbb     C1  211   0.761   4.666   8.130 -0.5749  0.2736 -0.6219
    8bbb     H1  212   0.689   4.708   8.201 -1.3458  0.0858 -1.2796
    8bbb     H2  213   0.779   4.747   8.060 -0.6807  0.0292 -0.9326
    8bbb     C2  214   0.532   4.552   8.115  0.5573  0.1829  0.1627
    8bbb     H3  215   0.520   4.510   8.215 -0.6291 -1.5355 -0.6603
    8bbb     H4  216   0.478   4.491   8.043  0.8399  1.2395 -0.9881
    8bbb     C3  217   0.687   4.559   7.917 -0.2394  0.5021  0.2675
    8bbb     H5  218   0.657   4.660   7.888  1.5171  0.6404 -1.2596
    8bbb     H6  219   0.609   4.495   7.874  0.8006 -0.6258 -0.0115
    8bbb     C4  220   0.815   4.528   7.840  0.4621 -0.0250 -0.2331
    8bbb     H7  221   0.860   4.432   7.870  1.0051  0.1491 -0.4809
    8bbb     H8  222   0.887   4.609   7.852  0.2401 -0.0529  1.4958
    8bbb     C5  223   0.889   4.631   8.215 -0.0895  0.0196  0.1075
    8bbb     H9  224   0.967   4.591   8.150 -0.8356  1.1997 -1.5889
    8bbb    H10  225   0.876   4.548   8.285 -1.8541 -0.3662 -0.6462
    8bbb     C6  226   0.457   4.687   8.104 -0.7314 -0.6277  0.1140
    8bbb    H11  227   0.476   4.731   8.005  0.3275  0.5512  0.8112
    8bbb    H12  228   0.483   4.763   8.179 -1.4683 -0.8929  0.6444
    8bbb     C7  229   0.776   4.512   7.688  0.5846 -0.2515 -0.0706
    8bbb    H13  230   0.835   4.586   7.633 -0.0426  0.9822  0.8839
    8bbb    H14  231   0.669   4.523   7.671  0.6915  1.7958  0.3742
    8bbb     C8  232   0.309   4.674   8.112 -0.0711 -0.1465  0.5496
    8bbb    H15  233   0.270   4.613   8.195 -0.2994 -0.1608  0.4325
    8bbb    H16  234   0.262   4.772   8.126 -0.7462 -0.1007 -1.7096
    8bbb     C9  235   0.959   4.755   8.288  0.3156  0.8778  0.5951
    8bbb    H17  236   0.886   4.793   8.360 -0.8531  0.9077 -0.5588
    8bbb    H18  237   0.968   4.837   8.215  0.7354 -0.4187 -0.8826
    8bbb     O1  238   0.825   4.380   7.646 -0.0257  0.0227 -0.2967
    8bbb    H19  239   0.719   4.462   8.099 -1.4632 -0.6701 -0.5634
    9bbb     N1  240   2.178   4.483   6.504 -0.5246 -0.0597  0.6884
    9bbb     C1  241   2.212   4.338   6.557 -0.2464 -0.5226  0.2102
    9bbb     H1  242   2.243   4.280   6.471  1.0338  0.7188 -0.1957
    9bbb     H2  243   2.125   4.288   6.602 -0.0496  0.5440  1.8885
    9bbb     C2  244   2.291   4.529   6.403  0.3287  0.5471 -0.5753
    9bbb     H3  245   2.256   4.510   6.302  0.8245  0.8767 -0.8134
    9bbb     H4  246   2.390   4.482   6.412  0.1173  0.2378  0.2687
    9bbb     C3  247   2.048   4.469   6.427  0.1376  0.6647 -0.3121
    9bbb     H5  248   1.993   4.391   6.480 -0.3174  0.7849 -0.6032
    9bbb     H6  249   2.071   4.426   6.329  0.6754 -2.3666  1.0009
    9bbb     C4  250   1.954   4.590   6.415 -0.0817 -0.6236  0.0728
    9bbb     H7  251   2.014   4.664   6.360 -0.2545  1.5122  2.5534
    9bbb     H8  252   1.938   4.632   6.514  0.7088 -3.4976  1.5260
    9bbb     C5  253   2.313   4.334   6.677  0.1080 -0.3114  0.3032
    9bbb     H9  254   2.281   4.411   6.750 -1.1261 -0.6288  0.1058
    9bbb    H10  255   2.417   4.356   6.651  0.4331 -1.2426  0.7879
    9bbb     C6  256   2.311   4.675   6.416 -0.5363 -0.0798  0.7089
    9bbb    H11  257   2.211   4.719   6.406 -0.0694  0.6058 -1.9063
    9bbb    H12  258   2.368   4.707   6.327 -0.1240 -1.2160  0.5435
    9bbb     C7  259   1.822   4.549   6.337 -0.3533  0.2616  0.0988
    9bbb    H13  260   1.838   4.451   6.290 -0.2928  0.6390 -0.6867
    9bbb    H14  261   1.803   4.626   6.261 -0.6110 -0.0887 -0.1966
    9bbb     C8  262   2.365   4.722   6.554  0.1946 -0.8012  0.8286
    9bbb    H15  263   2.458   4.669   6.579  0.0810 -0.2582  2.5251
    9bbb    H16  264   2.394   4.827   6.543 -1.2422 -0.4341  0.4252
    9bbb     C9  265   2.307   4.210   6.760 -0.2956  0.7745 -0.8276
    9bbb    H17  266   2.233   4.235   6.837  0.9416 -1.2709  1.1792
    9bbb    H18  267   2.401   4.180   6.810 -1.1021 -2.6666 -1.1199
    9bbb     O1  268   1.710   4.541   6.430  0.7150  0.4571 -0.3184
    9bbb    H19  269   2.171   4.552   6.580 -0.5076 -0.8608  1.4268
   10bbb     N1  270   1.232   5.216   6.873  0.3853  0.2096 -0.6622
   10bbb     C1  271   1.096   5.276   6.864 -0.8469  0.6325 -0.7241
   10bbb     H1  272   1.093   5.340   6.776  1.3775  3.0535  0.8385
   10bbb     H2  273   1.086   5.340   6.951  0.2559  1.3572 -1.1115
   10bbb     C2  274   1.341   5.319   6.854  0.5825 -0.1742  0.0223
   10bbb     H3  275   1.332   5.380   6.944 -0.7698 -0.8214  0.3575
   10bbb     H4  276   1.307   5.376   6.767  1.3939  1.8766  0.9811
   10bbb     C3  277   1.240   5.168   7.018 -0.0463 -0.1416  0.6676
   10bbb     H5  278   1.140   5.173   7.062 -1.1893  2.9163 -1.9044
   10bbb     H6  279   1.289   5.249   7.072 -0.7364 -0.0508  1.1669
   10bbb     C4  280   1.297   5.021   7.024  0.3198  0.2361  0.6320
   10bbb     H7  281   1.313   4.996   7.129  1.1997 -0.6331  0.3060
   10bbb     H8  282   1.390   5.012   6.966  0.0231  0.0113  0.1812
   10bbb     C5  283   0.976   5.181   6.853 -0.4333 -0.0193  0.6519
   10bbb     H9  284   0.974   5.135   6.952  0.6932  2.4710  1.9382
   10bbb    H10  285   0.980   5.103   6.777  0.2421  0.1843  0.4723
   10bbb     C6  286   1.488   5.274   6.829  0.1604  0.0340 -0.0683
   10bbb    H11  287   1.509   5.193   6.758 -1.3497 -1.6003  1.2924
   10bbb    H12  288   1.533   5.231   6.919  1.2351  1.9840  0.3894
   10bbb     C7  289   1.201   4.907   6.972  0.5167  0.1018  0.5952
   10bbb    H13  290   1.106   4.920   7.026  0.0312 -0.9490  0.0193
   10bbb    H14  291   1.238   4.808   7.000 -0.3806 -0.5216 -0.3566
   10bbb     C8  292   1.582   5.397   6.815 -0.4719 -0.1260  0.8872
   10bbb    H15  293   1.685   5.362   6.825 -0.0639  0.3111 -1.3224
   10bbb    H16  294   1.582   5.431   6.711 -0.6371 -2.6830 -0.0184
   10bbb     C9  295   0.842   5.256   6.840 -0.2007  0.3716  0.0019
   10bbb    H17  296   0.825   5.329   6.920 -2.1642  1.6347 -1.4604
   10bbb    H18  297   0.761   5.184   6.849 -1.2501  1.7117  1.9503
   10bbb     O1  298   1.179   4.916   6.823  0.4404 -0.8629 -0.3620
   10bbb    H19  299   1.244   5.140   6.804 -1.7055  2.0583 -3.2936
   11ccc     C1  300   0.237   2.487   6.660  0.1428 -0.1186 -0.5396
   11ccc     H1  301   0.145   2.441   6.620 -0.1027  0.8430 -1.1244
   11ccc     H2  302   0.304   2.484   6.574 -0.8238 -0.7596 -1.2951
   11ccc     C2  303   0.288   2.414   6.785 -0.5132 -0.0757  1.0000
   11ccc     H3  304   0.379   2.471   6.810  0.3911  0.4083 -2.7593
   11ccc     H4  305   0.309   2.307   6.773 -0.2603  0.0832 -0.0680
   11ccc     C3  306   0.189   2.430   6.908 -0.5322  0.2024 -0.1729
   11ccc     H5  307   0.090   2.386   6.900 -0.3112  0.0335 -2.5418
   11ccc     H6  308   0.178   2.537   6.928  0.7167  0.4619 -0.7665
   11ccc     N1  309   0.261   2.375   7.033 -0.0786 -0.0485 -0.3423
   11ccc     C4  310   0.191   2.414   7.158 -0.1695  0.2618 -0.0766
   11ccc     H7  311   0.252   2.368   7.236 -0.3478 -1.4049 -0.8716
   11ccc     H8  312   0.092   2.369   7.146 -0.6836  0.6312  2.3186
   11ccc     C5  313   0.180   2.565   7.182 -0.0103  1.0086 -0.1653
   11ccc     H9  314   0.275   2.614   7.156 -0.0665  0.8821 -0.6123
   11ccc    H10  315   0.103   2.604   7.114 -1.4961 -0.3090  0.7027
   11ccc     C6  316   0.130   2.587   7.322 -0.7537  0.7100 -0.2391
   11ccc     O1  317   0.164   2.529   7.425  0.3967 -0.2429  0.7906
   11ccc     O2  318   0.069   2.702   7.332  0.0364 -0.2242  0.0285
   11ccc    H11  319   0.060   2.716   7.428 -1.1759  1.0669 -0.2326
   11ccc     C7  320   0.255   2.221   7.025 -0.1851 -0.0505 -1.5573
   11ccc    H12  321   0.153   2.184   7.022 -0.2161  0.0022 -1.2063
   11ccc    H13  322   0.291   2.185   6.928  1.9476  0.6603 -1.0923
   11ccc     C8  323   0.320   2.153   7.153  0.0684  0.1961  0.9614
   11ccc    H14  324   0.422   2.193   7.166  0.2222  0.9946 -1.8248
   11ccc    H15  325   0.259   2.159   7.243  0.4315  0.1693  1.2131
   11ccc     C9  326   0.337   2.006   7.134  0.4427 -0.4660  0.6432
   11ccc     O3  327   0.290   1.950   7.032  0.1129 -0.3747 -0.3002
   11ccc     O4  328   0.369   1.936   7.240 -0.1039 -0.1534 -1.1872
   11ccc    H16  329   0.382   1.848   7.200  0.9447 -0.8298  0.5442
   11ccc     O5  330   0.212   2.625   6.691  0.2270  0.0894  0.4537
   11ccc    H17  331   0.358   2.407   7.045 -0.4980  0.4426  2.2133
   12ccc     C1  332   0.672   2.867   6.094  0.1894 -0.5213 -0.2157
   12ccc     H1  333   0.721   2.952   6.046  1.9643 -0.5334  1.4565
   12ccc     H2  334   0.756   2.814   6.141  1.2110  1.7483  0.6461
   12ccc     C2  335   0.591   2.773   5.998  0.7198  0.0900  0.2119
   12ccc     H3  336   0.494   2.821   5.977  1.0385  1.0286  0.8118
   12ccc     H4  337   0.568   2.680   6.051  2.1783 -0.8287 -0.6908
   12ccc     C3  338   0.672   2.739   5.861 -0.1079  0.0596  0.6411
   12ccc     H5  339   0.772   2.700   5.881 -1.0180 -2.2824  0.9041
   12ccc     H6  340   0.686   2.831   5.803  2.5527 -0.4362  0.3343
   12ccc     N1  341   0.605   2.637   5.770 -0.0675  0.4466  0.2268
   12ccc     C4  342   0.471   2.683   5.716 -0.2131 -0.3060  0.4004
   12ccc     H7  343   0.478   2.688   5.607  2.1538  3.7836  0.5108
   12ccc     H8  344   0.459   2.784   5.755 -0.3054  1.1264 -2.9949
   12ccc     C5  345   0.352   2.588   5.747 -0.8754 -0.2932 -0.3492
   12ccc     H9  346   0.367   2.481   5.728 -1.5275 -0.3276 -0.6899
   12ccc    H10  347   0.323   2.599   5.852 -1.2780 -0.8583 -0.3975
   12ccc     C6  348   0.238   2.636   5.664  0.6237  0.1015 -0.9720
   12ccc     O1  349   0.244   2.701   5.562 -0.5320 -0.0272  0.0247
   12ccc     O2  350   0.116   2.598   5.711 -0.1988 -0.1783 -0.0908
   12ccc    H11  351   0.124   2.567   5.803 -0.9023  3.2814  1.2628
   12ccc     C7  352   0.698   2.614   5.651  0.1756  0.1230 -0.2669
   12ccc    H12  353   0.634   2.589   5.567 -0.7646 -0.2164  0.5344
   12ccc    H13  354   0.751   2.707   5.629 -0.2329 -0.0052 -1.9362
   12ccc     C8  355   0.787   2.486   5.682  0.2508 -1.1812  0.1339
   12ccc    H14  356   0.846   2.503   5.774 -1.9728  0.6662  1.3139
   12ccc    H15  357   0.720   2.400   5.693 -0.2517 -0.5646  2.7626
   12ccc     C9  358   0.882   2.476   5.563  0.5333 -0.4328  0.2794
   12ccc     O3  359   0.907   2.579   5.500 -0.2496  0.1607  0.1879
   12ccc     O4  360   0.903   2.359   5.516  0.1480 -0.5646  0.7432
   12ccc    H16  361   0.957   2.384   5.439 -1.2665  0.0062 -0.1012
   12ccc     O5  362   0.579   2.928   6.191 -0.1636  0.6469 -0.7380
   12ccc    H17  363   0.606   2.545   5.817  2.3493 -1.5327 -3.1947
   13ccc     C1  364   2.039   2.713   6.845  0.3737  0.4939  0.2005
   13ccc     H1  365   2.117   2.687   6.917  0.4528  4.6404  1.8887
   13ccc     H2  366   2.014   2.623   6.788 -2.8327  1.8514 -0.7804
   13ccc     C2  367   2.108   2.818   6.750  0.0695 -0.2291 -0.5371
   13ccc     H3  368   2.204   2.780   6.714  0.7671  0.6548  0.3245
   13ccc     H4  369   2.130   2.907   6.811 -1.6447 -0.3455  0.2939
   13ccc     C3  370   2.011   2.863   6.636 -0.2898  0.0551 -0.4799
   13ccc     H5  371   1.914   2.898   6.671 -0.4621  0.4113 -1.2926
   13ccc     H6  372   1.983   2.774   6.579  0.9558 -1.2752  0.8881
   13ccc     N1  373   2.056   2.962   6.538  0.0915 -0.1679  0.3156
   13ccc     C4  374   1.968   2.944   6.409  0.3141  0.2745 -0.0796
   13ccc     H7  375   1.957   3.042   6.363  0.5031 -0.1015 -0.9421
   13ccc     H8  376   1.870   2.911   6.441 -0.1880  2.2209  0.5424
   13ccc     C5  377   2.031   2.839   6.317  0.2867 -0.0188 -0.7971
   13ccc     H9  378   2.120   2.889   6.278 -0.7906  3.2179  0.5611
   13ccc    H10  379   2.070   2.760   6.382 -0.9408  0.8233  1.0624
   13ccc     C6  380   1.930   2.767   6.230  0.6900 -0.5321  0.4850
   13ccc     O1  381   1.853   2.829   6.159  0.1118  0.0007 -0.2137
   13ccc     O2  382   1.906   2.642   6.261  0.0317 -0.4612 -0.2293
   13ccc    H11  383   1.836   2.623   6.197 -1.3015 -0.5717  1.2092
   13ccc     C7  384   2.045   3.107   6.582  0.1515  0.0706 -0.0661
   13ccc    H12  385   1.943   3.140   6.561 -0.2099 -1.2546 -0.4663
   13ccc    H13  386   2.056   3.106   6.690 -0.0920  1.1684 -0.0153
   13ccc     C8  387   2.152   3.197   6.518 -0.2862  0.7184  0.0436
   13ccc    H14  388   2.250   3.149   6.510 -1.4221 -2.1216  1.6280
   13ccc    H15  389   2.132   3.226   6.415  0.9434  0.2431 -0.3387
   13ccc     C9  390   2.160   3.323   6.605  0.2667  0.1051 -0.1527
   13ccc     O3  391   2.134   3.432   6.559  0.4579  0.2479  0.4945
   13ccc     O4  392   2.233   3.317   6.718 -0.3507 -0.1887 -0.5828
   13ccc    H16  393   2.185   3.396   6.751 -0.2674  0.7388 -2.5137
   13ccc     O5  394   1.919   2.781   6.897  0.9525  0.2764  0.2030
   13ccc    H17  395   2.154   2.942   6.514  0.5345 -0.5879  2.3364
   14ccc     C1  396   1.366   2.287   6.654  0.1626  0.5203 -0.3079
   14ccc     H1  397   1.285   2.274   6.726  0.2169 -0.9190 -0.4865
   14ccc     H2  398   1.316   2.298   6.556 -2.5332  0.5613  0.9766
   14ccc     C2  399   1.453   2.162   6.660 -0.5081  0.0985  0.1731
   14ccc     H3  400   1.397   2.067   6.664  1.1614 -1.1368 -2.5886
   14ccc     H4  401   1.504   2.162   6.757  0.5670  0.0342 -0.3782
   14ccc     C3  402   1.546   2.141   6.542 -0.6649 -0.1518  0.3741
   14ccc     H5  403   1.503   2.186   6.452 -0.7308 -0.6922  0.1293
   14ccc     H6  404   1.541   2.032   6.537 -1.4252 -0.4057  4.0592
   14ccc     N1  405   1.696   2.174   6.560 -0.2654 -0.7147  0.1141
   14ccc     C4  406   1.724   2.325   6.588 -0.4418 -0.7376 -0.2086
   14ccc     H7  407   1.830   2.334   6.613 -0.5752  0.9043 -0.1260
   14ccc     H8  408   1.663   2.358   6.673 -0.7165  0.1714 -0.7416
   14ccc     C5  409   1.707   2.421   6.469 -0.4981 -0.2525  0.4818
   14ccc     H9  410   1.776   2.387   6.391 -0.0855  0.8482  0.3373
   14ccc    H10  411   1.600   2.423   6.443 -0.0534 -0.4920 -1.5078
   14ccc     C6  412   1.748   2.570   6.504  0.4514 -0.0256 -0.4776
   14ccc     O1  413   1.812   2.589   6.608  0.8519 -0.1836  0.5547
   14ccc     O2  414   1.664   2.662   6.456 -0.2642 -0.1204  0.1248
   14ccc    H11  415   1.606   2.625   6.387 -1.4790  0.3286  0.8741
   14ccc     C7  416   1.763   2.099   6.677 -0.0589 -0.0994 -0.3765
   14ccc    H12  417   1.717   2.123   6.773 -1.2452 -0.1230 -0.9088
   14ccc    H13  418   1.735   1.995   6.658 -1.3726  0.2609 -0.5571
   14ccc     C8  419   1.913   2.104   6.675  0.3543 -0.5937  0.2198
   14ccc    H14  420   1.938   2.105   6.568  0.0871  2.2863  0.1007
   14ccc    H15  421   1.949   2.196   6.723 -0.8216 -0.1625  0.3185
   14ccc     C9  422   1.980   1.987   6.742  0.0012  0.2004 -0.1606
   14ccc     O3  423   1.930   1.882   6.769 -0.1035  0.2582  0.1123
   14ccc     O4  424   2.114   1.982   6.712  0.1370 -0.1021  0.0802
   14ccc    H16  425   2.142   1.890   6.726  2.6402  0.2538 -1.8967
   14ccc     O5  426   1.434   2.409   6.687 -0.3624 -0.0972  0.2210
   14ccc    H17  427   1.743   2.144   6.473 -0.5069 -0.4179 -0.1208
   15ccc     C1  428   1.678   3.952   8.639 -0.6230 -0.0465 -0.3972
   15ccc     H1  429   1.676   4.057   8.608  1.4824 -0.3590 -1.7964
   15ccc     H2  430   1.647   3.958   8.744  0.2258  1.8622 -0.2158
   15ccc     C2  431   1.819   3.898   8.633  0.5167  0.1030 -0.4314
   15ccc     H3  432   1.808   3.792   8.656  2.8724 -0.3988 -1.2946
   15ccc     H4  433   1.887   3.958   8.694  0.0979  1.6848 -1.4439
   15ccc     C3  434   1.869   3.879   8.489 -0.2870 -0.4721  0.5619
   15ccc     H5  435   1.808   3.808   8.434  0.5500 -1.3581  0.7544
   15ccc     H6  436   1.966   3.831   8.480  0.5900  1.3717 -0.2766
   15ccc     N1  437   1.876   4.006   8.400  0.2675 -0.2175  0.7006
   15ccc     C4  438   1.997   4.008   8.305  0.6905 -0.7231 -0.7480
   15ccc     H7  439   1.965   3.973   8.207 -3.0211 -1.9208  0.7250
   15ccc     H8  440   2.061   3.929   8.347 -1.2471 -2.8797 -1.6514
   15ccc     C5  441   2.068   4.149   8.315  0.5804 -0.6219  0.6785
   15ccc     H9  442   2.004   4.217   8.256 -0.4853 -0.3847  2.0482
   15ccc    H10  443   2.067   4.186   8.419 -1.0326 -1.8077  1.1161
   15ccc     C6  444   2.211   4.151   8.261  0.0402 -0.0079 -0.0212
   15ccc     O1  445   2.254   4.093   8.160 -0.3198 -0.8261  0.5850
   15ccc     O2  446   2.299   4.222   8.329  0.4313  0.6282 -0.9680
   15ccc    H11  447   2.388   4.195   8.302  0.8394 -1.1668  1.7970
   15ccc     C7  448   1.746   4.017   8.323  0.6701 -0.1752  0.1632
   15ccc    H12  449   1.733   3.931   8.257  0.4912 -1.5126  1.8710
   15ccc    H13  450   1.666   4.007   8.397  1.3628 -1.1433  0.8150
   15ccc     C8  451   1.728   4.147   8.236 -0.1886 -0.1460 -1.4239
   15ccc    H14  452   1.753   4.231   8.303 -2.5389 -0.7282  0.3534
   15ccc    H15  453   1.795   4.163   8.152  1.0024  0.8737 -0.3186
   15ccc     C9  454   1.584   4.165   8.203  0.2112 -0.2153  0.6988
   15ccc     O3  455   1.500   4.084   8.224 -0.3684  0.3247 -0.1655
   15ccc     O4  456   1.540   4.291   8.163 -0.1386  0.5863 -0.4971
   15ccc    H16  457   1.610   4.356   8.183 -0.5268  0.4539  1.5595
   15ccc     O5  458   1.592   3.877   8.550 -0.5993  0.2806  0.0887
   15ccc    H17  459   1.875   4.084   8.468  1.2152  0.7698 -0.3770
   16ccc     C1  460   0.966   3.405   8.655  0.5680 -0.4029  0.2129
   16ccc     H1  461   0.889   3.435   8.583  0.5229 -3.0240 -0.9219
   16ccc     H2  462   0.963   3.296   8.667  1.2217 -0.5279 -0.6633
   16ccc     C2  463   0.942   3.477   8.790  0.3831  0.3016 -0.0934
   16ccc     H3  464   0.840   3.454   8.822  1.0840 -1.4011  1.1010
   16ccc     H4  465   0.954   3.586   8.786 -0.5700  0.3778 -1.3397
   16ccc     C3  466   1.027   3.410   8.895 -0.2044  0.2387  0.1758
   16ccc     H5  467   1.129   3.410   8.856 -1.0429  1.5573 -2.2205
   16ccc     H6  468   0.987   3.309   8.898 -0.7328  0.2601 -2.7814
   16ccc     N1  469   1.037   3.468   9.035 -0.6496 -0.1114  0.5637
   16ccc     C4  470   1.060   3.356   9.132  0.2166  0.2205  0.4132
   16ccc     H7  471   1.102   3.402   9.221  1.1424 -0.6235  0.4176
   16ccc     H8  472   1.124   3.275   9.098  0.0760 -0.3939  1.5727
   16ccc     C5  473   0.926   3.292   9.168 -0.4394  0.1967 -0.7762
   16ccc     H9  474   0.854   3.371   9.193 -0.7678 -0.3350 -0.0063
   16ccc    H10  475   0.882   3.249   9.077 -1.2325 -2.3897  0.7382
   16ccc     C6  476   0.938   3.183   9.276  0.0113 -0.1469  0.6522
   16ccc     O1  477   1.048   3.161   9.332 -0.8900 -0.1267 -0.5037
   16ccc     O2  478   0.855   3.081   9.259  0.6651 -0.2786  0.0967
   16ccc    H11  479   0.777   3.132   9.232  0.0913  0.9549  3.5548
   16ccc     C7  480   1.144   3.580   9.049  0.5897  0.9783 -0.8818
   16ccc    H12  481   1.139   3.597   9.157  0.3165 -0.2380 -0.6794
   16ccc    H13  482   1.243   3.540   9.028  0.9396  1.6874 -0.6067
   16ccc     C8  483   1.124   3.706   8.968 -0.2164 -0.4513 -0.1409
   16ccc    H14  484   1.142   3.695   8.860  1.9560  0.1557  0.1067
   16ccc    H15  485   1.022   3.744   8.983 -0.4405 -1.2245  0.3512
   16ccc     C9  486   1.224   3.816   9.008 -0.0857  0.4272 -0.2399
   16ccc     O3  487   1.207   3.878   9.114 -0.2386 -0.3046  0.5051
   16ccc     O4  488   1.308   3.860   8.913 -0.1526 -0.2203 -0.3743
   16ccc    H16  489   1.351   3.940   8.947 -1.1693  1.1484 -2.1349
   16ccc     O5  490   1.094   3.437   8.594 -0.5142  0.1806 -0.5893
   16ccc    H17  491   0.945   3.514   9.042 -1.6704 -1.3509 -2.5992
   17ccc     C1  492   0.123   4.595   7.958 -0.5187 -0.3526 -0.3617
   17ccc     H1  493   0.069   4.533   8.031  1.3585 -3.3846 -1.3447
   17ccc     H2  494   0.070   4.689   7.976 -1.6434 -1.0882  0.3083
   17ccc     C2  495   0.106   4.548   7.809  0.2058  0.1261  0.0699
   17ccc     H3  496   0.168   4.616   7.749  2.5425 -1.6751  0.2990
   17ccc     H4  497   0.004   4.541   7.771  0.9635  0.8658 -2.2797
   17ccc     C3  498   0.171   4.410   7.789 -0.1455 -0.5123  0.1614
   17ccc     H5  499   0.276   4.415   7.820  0.0851  0.1069 -0.6749
   17ccc     H6  500   0.170   4.398   7.680  1.0048 -0.8978  0.1777
   17ccc     N1  501   0.111   4.295   7.853  0.0803  0.1385  0.2300
   17ccc     C4  502  -0.030   4.266   7.797 -0.9275  0.1215 -0.2290
   17ccc     H7  503  -0.034   4.254   7.689 -3.1069  3.4272 -0.6237
   17ccc     H8  504  -0.089   4.355   7.817  1.6528  1.6529  1.1313
   17ccc     C5  505  -0.112   4.149   7.860 -0.3691 -0.7069  0.1049
   17ccc     H9  506  -0.067   4.051   7.842 -0.4443 -0.7578  0.1893
   17ccc    H10  507  -0.105   4.158   7.970  0.8220 -0.9726  0.0609
   17ccc     C6  508  -0.256   4.142   7.817  0.1428  0.1466 -0.1260
   17ccc     O1  509  -0.316   4.221   7.749 -0.2580 -0.6751 -0.1053
   17ccc     O2  510  -0.309   4.023   7.838  0.0921  0.0476 -0.2629
   17ccc    H11  511  -0.399   4.035   7.804  1.0104  1.6707 -2.4313
   17ccc     C7  512   0.205   4.186   7.808 -0.5005 -0.0116  0.1071
   17ccc    H12  513   0.145   4.094   7.813 -2.0109  0.7779 -1.8802
   17ccc    H13  514   0.220   4.189   7.700 -0.1520  0.9386  0.1735
   17ccc     C8  515   0.341   4.179   7.882 -0.1415 -0.5812  0.1110
   17ccc    H14  516   0.388   4.275   7.907 -1.2090 -0.3194  1.2815
   17ccc    H15  517   0.313   4.135   7.979  1.2101 -1.1429  0.2632
   17ccc     C9  518   0.439   4.098   7.806 -0.8288 -0.3917 -0.1815
   17ccc     O3  519   0.455   4.121   7.689  0.0203  0.5441  0.4579
   17ccc     O4  520   0.549   4.073   7.874 -0.0559  0.2933  0.1774
   17ccc    H16  521   0.537   4.078   7.971  1.2197  1.1630  0.3257
   17ccc     O5  522   0.264   4.608   7.992 -0.4922 -0.3195 -0.5442
   17ccc    H17  523   0.113   4.296   7.956  1.0318 -2.7374  0.3357
   18ccc     C1  524   1.116   4.751   8.475  0.9584  0.4528 -0.2426
   18ccc     H1  525   1.107   4.860   8.473 -1.3308  0.3056 -1.2916
   18ccc     H2  526   1.056   4.708   8.556 -0.7525  2.8574 -0.1410
   18ccc     C2  527   1.258   4.696   8.492  0.6436  0.3077  0.3905
   18ccc     H3  528   1.325   4.734   8.414 -0.5184  1.1005 -0.2556
   18ccc     H4  529   1.254   4.586   8.488  2.1162  0.2483  0.2078
   18ccc     C3  530   1.312   4.732   8.631 -0.0061  0.1649  0.1459
   18ccc     H5  531   1.243   4.696   8.707  0.7766  0.6769  1.1103
   18ccc     H6  532   1.317   4.841   8.638  0.5305  0.4475 -3.0345
   18ccc     N1  533   1.459   4.691   8.653 -0.7791  0.1322 -0.0355
   18ccc     C4  534   1.515   4.727   8.791  0.5207  0.1795 -0.2719
   18ccc     H7  535   1.487   4.652   8.865  0.3909 -0.7777 -1.2679
   18ccc     H8  536   1.456   4.815   8.817 -0.4678 -0.2184 -1.0928
   18ccc     C5  537   1.663   4.747   8.800 -0.2570  0.4701  0.7861
   18ccc     H9  538   1.727   4.662   8.774 -1.4223 -0.8186  1.9760
   18ccc    H10  539   1.693   4.825   8.728 -1.9191  0.9374  0.5444
   18ccc     C6  540   1.707   4.801   8.934 -0.0832 -0.2885 -0.9727
   18ccc     O1  541   1.715   4.726   9.027  0.0532 -0.0789 -0.2367
   18ccc     O2  542   1.679   4.931   8.945 -0.8062 -0.3271 -0.5246
   18ccc    H11  543   1.700   4.969   8.858  1.7062 -0.0261  0.1386
   18ccc     C7  544   1.486   4.545   8.626 -0.0396  0.6672  0.4850
   18ccc    H12  545   1.443   4.523   8.528  0.0514  0.0721  0.5789
   18ccc    H13  546   1.594   4.529   8.624 -0.0126  0.8124  0.7243
   18ccc     C8  547   1.422   4.453   8.726  0.2109  0.8491 -0.3529
   18ccc    H14  548   1.480   4.459   8.820 -0.1399  0.5162 -0.1140
   18ccc    H15  549   1.317   4.481   8.741  0.2057  0.5380  0.2234
   18ccc     C9  550   1.429   4.309   8.688 -0.4506 -1.0182  0.1655
   18ccc     O3  551   1.513   4.274   8.605 -0.1179  0.0653 -0.0322
   18ccc     O4  552   1.352   4.214   8.748  0.0114 -0.2803  0.2446
   18ccc    H16  553   1.303   4.269   8.812  0.7342  0.6140  0.0477
   18ccc     O5  554   1.082   4.709   8.342  0.0177  0.3107 -0.2402
   18ccc    H17  555   1.521   4.738   8.585  0.5341  0.6714  1.4644
   19ccc     C1  556   2.240   4.828   6.736 -0.0297 -0.3950 -0.2462
   19ccc     H1  557   2.327   4.863   6.793 -0.5885  0.0350  0.3574
   19ccc     H2  558   2.217   4.904   6.660  0.4340 -1.9784 -2.0317
   19ccc     C2  559   2.126   4.793   6.835  0.0760  0.4015 -0.2531
   19ccc     H3  560   2.057   4.721   6.789 -0.8420  0.1678  1.4092
   19ccc     H4  561   2.070   4.885   6.855  1.9638  1.6222 -0.3254
   19ccc     C3  562   2.192   4.725   6.951 -0.1413  0.2954  0.4356
   19ccc     H5  563   2.254   4.795   7.008 -0.5022 -0.5680  1.9471
   19ccc     H6  564   2.243   4.640   6.906 -1.6690 -0.6016  0.3170
   19ccc     N1  565   2.087   4.667   7.057 -0.0526  0.4150 -0.8324
   19ccc     C4  566   1.979   4.580   6.999  0.6047 -0.1030  0.2859
   19ccc     H7  567   1.937   4.639   6.917  1.3683 -1.1943 -0.9264
   19ccc     H8  568   1.896   4.579   7.070 -1.0574 -0.6439 -1.5897
   19ccc     C5  569   2.008   4.433   6.965 -0.5259 -0.2497 -0.1296
   19ccc     H9  570   2.115   4.413   6.977 -0.5949 -0.1292  0.7556
   19ccc    H10  571   1.951   4.378   7.040 -0.4104  0.7421  0.7097
   19ccc     C6  572   1.970   4.399   6.823  0.0581 -0.2606  0.0092
   19ccc     O1  573   1.991   4.482   6.732  0.0248  0.3235 -0.6421
   19ccc     O2  574   1.982   4.272   6.794  0.2856  0.5634  0.4829
   19ccc    H11  575   1.964   4.221   6.875  2.3542 -0.1506  0.5659
   19ccc     C7  576   2.154   4.593   7.169 -0.4597  0.2281  0.1000
   19ccc    H12  577   2.190   4.493   7.144 -0.3544  0.0675  0.8742
   19ccc    H13  578   2.250   4.644   7.180 -0.8219  0.7884  0.7276
   19ccc     C8  579   2.072   4.582   7.300  0.7205 -0.3886  0.6399
   19ccc    H14  580   2.127   4.640   7.376 -0.7705 -0.1825  1.6115
   19ccc    H15  581   1.970   4.620   7.290  0.1662 -1.9158  0.2457
   19ccc     C9  582   2.064   4.442   7.360 -0.8907  0.2425  0.0017
   19ccc     O3  583   2.104   4.339   7.308  0.5142 -0.4093  0.0973
   19ccc     O4  584   2.036   4.442   7.498 -0.0200 -0.1792  0.0672
   19ccc    H16  585   2.049   4.350   7.526 -0.6670 -0.6341 -1.0989
   19ccc     O5  586   2.265   4.705   6.661  0.4676  0.1128 -0.2644
   19ccc    H17  587   2.050   4.756   7.092  0.5243  0.1778  0.4802
   20ccc     C1  588   2.234   3.982   6.750  0.4462  0.3654  0.3716
   20ccc     H1  589   2.317   3.944   6.810  2.1204  2.0728 -0.7314
   20ccc     H2  590   2.152   3.996   6.821 -0.3932 -1.0092 -0.2701
   20ccc     C2  591   2.193   3.875   6.649 -0.2768 -0.1615  0.3923
   20ccc     H3  592   2.182   3.779   6.700  0.3674  0.1713  1.1833
   20ccc     H4  593   2.274   3.875   6.575  0.2984  2.2314  0.9415
   20ccc     C3  594   2.073   3.917   6.561 -0.7944 -0.5819  0.2634
   20ccc     H5  595   2.106   3.998   6.496  1.4802 -0.6373  1.2480
   20ccc     H6  596   2.000   3.957   6.631 -2.2919 -1.5588 -0.6808
   20ccc     N1  597   2.016   3.801   6.476  0.1108 -0.2594  0.1788
   20ccc     C4  598   2.123   3.725   6.394  0.9241 -0.3362 -0.1158
   20ccc     H7  599   2.061   3.649   6.345 -0.1978  0.0199  0.7026
   20ccc     H8  600   2.196   3.673   6.455  2.1989  0.1095 -1.2076
   20ccc     C5  601   2.200   3.805   6.289  0.0681 -0.0191  0.0513
   20ccc     H9  602   2.128   3.860   6.227 -0.4636  2.1080  2.3994
   20ccc    H10  603   2.271   3.874   6.335  1.4413  0.0461 -1.9967
   20ccc     C6  604   2.284   3.711   6.199  0.6412 -0.5192  0.2502
   20ccc     O1  605   2.281   3.593   6.214 -0.0256  0.3741 -0.6769
   20ccc     O2  606   2.357   3.778   6.107  0.1002  0.2653  0.1783
   20ccc    H11  607   2.334   3.871   6.125 -0.5936  0.1796 -0.2249
   20ccc     C7  608   1.945   3.693   6.563  0.7238 -1.0857 -0.4442
   20ccc    H12  609   1.922   3.599   6.512 -2.5976 -1.0264  0.6979
   20ccc    H13  610   2.010   3.667   6.647  0.9252  0.4032 -0.1089
   20ccc     C8  611   1.817   3.751   6.629 -1.0717  0.2389 -0.1986
   20ccc    H14  612   1.839   3.817   6.714 -2.0154  0.4883 -0.1391
   20ccc    H15  613   1.743   3.795   6.561 -1.8160 -1.8225 -0.8197
   20ccc     C9  614   1.745   3.632   6.684  0.1758  0.3444  0.6127
   20ccc     O3  615   1.801   3.536   6.735 -0.3780  0.4606 -0.1041
   20ccc     O4  616   1.608   3.647   6.688  0.0960 -0.0886  0.5091
   20ccc    H16  617   1.581   3.736   6.657  2.8864  1.1049  1.1710
   20ccc     O5  618   2.264   4.098   6.677 -0.2186 -0.3203  0.2097
   20ccc    H17  619   1.949   3.845   6.412 -0.1839 -2.2058 -0.9270
   21ccc     C1  620   1.595   5.498   7.038  0.1155 -0.4188 -0.0745
   21ccc     H1  621   1.565   5.407   7.092  2.3209 -0.9523  0.3751
   21ccc     H2  622   1.705   5.499   7.038  0.1158 -0.2297 -0.5285
   21ccc     C2  623   1.534   5.623   7.104  0.2505  0.3090  0.5311
   21ccc     H3  624   1.573   5.628   7.206 -2.0283 -1.3042  1.5794
   21ccc     H4  625   1.427   5.609   7.122  0.7983 -2.8945  2.1455
   21ccc     C3  626   1.560   5.755   7.018  0.0026 -0.3214 -0.7370
   21ccc     H5  627   1.490   5.748   6.934 -1.6496 -0.1644  0.5646
   21ccc     H6  628   1.664   5.749   6.986  0.3451  0.1640  0.2389
   21ccc     N1  629   1.530   5.879   7.101 -0.3567 -0.4647  0.2467
   21ccc     C4  630   1.645   5.920   7.195  0.2892 -0.1159 -1.0632
   21ccc     H7  631   1.741   5.933   7.146  0.5960  0.8322 -0.2403
   21ccc     H8  632   1.650   5.852   7.280 -0.4853 -0.1025 -1.0014
   21ccc     C5  633   1.617   6.041   7.276  0.3044 -0.4457 -0.0289
   21ccc     H9  634   1.647   6.134   7.225  1.4764 -0.5660  0.4013
   21ccc    H10  635   1.510   6.051   7.299  0.8578 -0.2113  2.8536
   21ccc     C6  636   1.695   6.048   7.408  0.4728 -0.1097 -1.2980
   21ccc     O1  637   1.637   6.025   7.517  0.9810  0.1721 -0.1199
   21ccc     O2  638   1.824   6.070   7.398  0.3678 -0.4919 -0.8550
   21ccc    H11  639   1.858   6.060   7.489  0.7862  0.3930 -0.9035
   21ccc     C7  640   1.497   5.991   6.998  0.0591  0.1481 -0.7817
   21ccc    H12  641   1.403   5.966   6.949 -0.7343  2.1724 -0.3992
   21ccc    H13  642   1.469   6.078   7.058  1.4745 -0.4153  0.7619
   21ccc     C8  643   1.607   6.037   6.905 -0.5811  0.0768  0.2534
   21ccc    H14  644   1.700   6.006   6.954  0.3222  2.5582  0.2662
   21ccc    H15  645   1.593   5.982   6.811 -1.1701  2.0114 -0.8442
   21ccc     C9  646   1.623   6.181   6.871 -0.6947 -0.1657 -0.2957
   21ccc     O3  647   1.548   6.231   6.786 -0.0992 -0.3285 -0.4210
   21ccc     O4  648   1.749   6.223   6.884 -0.3267  0.0980 -0.3925
   21ccc    H16  649   1.736   6.318   6.867  2.1722  0.4400 -0.8484
   21ccc     O5  650   1.547   5.500   6.908 -0.1458 -0.4149  0.2794
   21ccc    H17  651   1.440   5.860   7.146 -0.7018  0.5542  0.0142
   22ccc     C1  652   0.704   5.371   6.676  0.5371 -0.6269 -0.0704
   22ccc     H1  653   0.642   5.283   6.694 -1.5319  0.6782 -0.5491
   22ccc     H2  654   0.670   5.454   6.739  0.8620 -0.3990 -0.1910
   22ccc     C2  655   0.698   5.416   6.520  0.2908 -0.0206 -0.2786
   22ccc     H3  656   0.723   5.522   6.517  3.7559 -0.7212 -1.5484
   22ccc     H4  657   0.598   5.396   6.479  0.6657  1.0230 -1.7569
   22ccc     C3  658   0.805   5.342   6.442  0.1098 -0.4484  0.2924
   22ccc     H5  659   0.773   5.241   6.416 -1.7198  0.2888 -0.4792
   22ccc     H6  660   0.898   5.335   6.498 -0.0310  2.2853  1.0067
   22ccc     N1  661   0.838   5.409   6.310  0.1433  0.2960  0.2179
   22ccc     C4  662   0.982   5.393   6.250 -0.2297  0.5869 -0.3843
   22ccc     H7  663   0.989   5.435   6.150  1.0102  2.6347  0.4936
   22ccc     H8  664   1.002   5.286   6.238  0.4438  0.6878 -0.2222
   22ccc     C5  665   1.093   5.466   6.325  0.4437  0.2047 -0.0508
   22ccc     H9  666   1.086   5.574   6.304 -2.3708 -0.0223 -0.6804
   22ccc    H10  667   1.061   5.457   6.429  1.2906 -2.2216  0.0497
   22ccc     C6  668   1.236   5.410   6.299  0.0831  0.0756  0.0708
   22ccc     O1  669   1.284   5.370   6.196  0.2315  0.4834 -0.1010
   22ccc     O2  670   1.280   5.347   6.407 -0.4821 -0.0395  0.1560
   22ccc    H11  671   1.353   5.295   6.368 -1.3875 -1.5866  0.4580
   22ccc     C7  672   0.739   5.368   6.202  1.1246 -0.9783  0.2441
   22ccc    H12  673   0.642   5.399   6.242  2.5776  1.3067  2.2532
   22ccc    H13  674   0.749   5.425   6.110 -0.5872 -0.4437  0.3551
   22ccc     C8  675   0.741   5.224   6.156 -0.0311  0.3844 -0.5189
   22ccc    H14  676   0.823   5.209   6.084  1.4523  4.1858  0.1394
   22ccc    H15  677   0.768   5.149   6.231  0.3071 -0.8133 -1.7846
   22ccc     C9  678   0.609   5.167   6.109 -0.4833 -0.4636  0.2867
   22ccc     O3  679   0.498   5.193   6.152 -0.1295 -0.2190  1.0711
   22ccc     O4  680   0.627   5.072   6.018 -0.0748  0.6702 -0.0925
   22ccc    H16  681   0.544   5.021   6.016 -2.5052  4.0560  2.2885
   22ccc     O5  682   0.836   5.333   6.717  0.2134  0.1415 -0.0843
   22ccc    H17  683   0.822   5.511   6.310 -0.9256  0.1469 -0.2502
   23SOL     OW  684   5.343   5.610   4.590  0.0967  0.2877 -0.0092
   23SOL    HW1  685   5.400   5.682   4.616  1.3774 -1.5347  2.6921
   23SOL    HW2  686   5.332   5.558   4.669 -2.7617 -1.2164 -1.2391
   24SOL     OW  687   6.433   3.585   0.192 -0.0860  0.8985  0.2642
   24SOL    HW1  688   6.445   3.566   0.099  0.1385  0.5062  0.3693
   24SOL    HW2  689   6.405   3.502   0.231 -0.5387  1.1482  0.4881
   25SOL     OW  690   3.569   0.619   0.323 -0.1654  0.2669  0.2792
   25SOL    HW1  691   3.622   0.640   0.246  0.8181  2.1468  1.3855
   25SOL    HW2  692   3.479   0.636   0.296  0.3184  2.7830  0.0572
   26SOL     OW  693   4.408   4.052   1.694 -0.2540 -0.0791  0.1624
   26SOL    HW1  694   4.314   4.070   1.694 -0.0593  2.5237 -4.4085
   26SOL    HW2  695   4.415   3.965   1.654 -0.7067 -0.2008  0.3351
   27SOL     OW  696   6.874   3.019   3.665 -0.1403  0.1269  0.4373
   27SOL    HW1  697   6.937   2.961   3.622 -0.3492  1.9739 -2.6932
   27SOL    HW2  698   6.874   2.991   3.756  3.9172 -1.0514  0.2601
   28SOL     OW  699   3.401   0.814   6.586 -0.9332 -0.1990  0.0911
   28SOL    HW1  700   3.314   0.851   6.603  0.0213  1.6793  1.1733
   28SOL    HW2  701   3.421   0.763   6.665 -0.8902 -0.3413 -0.0105
   29SOL     OW  702   6.411   4.972   2.264  0.0446  0.1632  0.3170
   29SOL    HW1  703   6.390   4.992   2.355 -0.4070  0.6863  0.1036
   29SOL    HW2  704   6.506   4.982   2.259  0.3532 -1.8262  1.1896
   30SOL     OW  705   0.450   1.369   0.314 -0.7112 -0.7644  0.0771
   30SOL    HW1  706   0.448   1.452   0.361  0.7797 -1.3356  1.2534
   30SOL    HW2  707   0.437   1.392   0.222 -1.2371  0.6499  0.4848
   31SOL     OW  708   1.637   7.063   4.499 -0.2431 -0.0530 -0.1831
   31SOL    HW1  709   1.574   7.122   4.458 -3.9217 -2.1664  1.8492
   31SOL    HW2  710   1.617   6.977   4.460  0.1290 -1.0741  1.7828
   32SOL     OW  711   1.590   4.757   6.829 -0.0640  0.1289 -0.3327
   32SOL    HW1  712   1.610   4.838   6.876 -0.2702  1.1380 -1.8997
   32SOL    HW2  713   1.628   4.769   6.743  1.7042 -2.3429 -0.0093
   33SOL     OW  714   6.254   6.436   1.168 -0.3247  0.0429 -0.6313
   33SOL    HW1  715   6.168   6.425   1.209 -0.8235  2.9686 -0.6607
   33SOL    HW2  716   6.242   6.510   1.109  2.5926  1.6235  0.5864
   34SOL     OW  717   4.972   0.337   1.856  0.1034  0.3066 -0.2846
   34SOL    HW1  718   4.962   0.247   1.823 -1.5746  0.3790 -0.0728
   34SOL    HW2  719   5.038   0.376   1.799  0.0600 -0.7323 -1.0886
   35SOL     OW  720   6.539   3.804   0.107  0.3055  0.0835  0.2041
   35SOL    HW1  721   6.561   3.785   0.016  0.3982  2.6902 -0.4169
   35SOL    HW2  722   6.493   3.726   0.138 -0.9274 -0.3908 -2.5073
   36SOL     OW  723   6.652   6.407   3.317 -0.3521 -0.4109 -0.2509
   36SOL    HW1  724   6.735   6.380   3.277 -0.8129 -1.3729 -0.5863
   36SOL    HW2  725   6.614   6.326   3.350 -0.6412  0.1832  0.9149
   37SOL     OW  726   5.687   6.735   3.352  0.0994  0.0565 -0.2229
   37SOL    HW1  727   5.706   6.828   3.341 -4.4163  1.3951  0.9967
   37SOL    HW2  728   5.614   6.717   3.292 -0.7625 -1.9924  1.2767
   38SOL     OW  729   5.245   3.073   5.048 -0.0223 -0.0067  0.0961
   38SOL    HW1  730   5.321   3.021   5.023  0.7902  0.0044  2.3211
   38SOL    HW2  731   5.177   3.009   5.070  0.3044 -0.1056  0.8511
   39SOL     OW  732   3.399   2.995   2.411 -0.6510 -0.4943 -0.1590
   39SOL    HW1  733   3.338   3.016   2.340 -1.4066 -1.5072  0.1564
   39SOL    HW2  734   3.439   2.912   2.385  1.9972  1.0254 -1.2196
   40SOL     OW  735   5.934   2.649   7.184 -0.2899  0.6734 -0.5835
   40SOL    HW1  736   5.879   2.602   7.247 -1.5226  1.7975 -0.7718
   40SOL    HW2  737   5.948   2.586   7.114  0.1639 -0.2202  0.2763
   41SOL     OW  738   3.908   1.153   2.079 -0.2189 -0.2615  1.1027
   41SOL    HW1  739   3.992   1.109   2.066 -0.0233  0.2222  0.7255
   41SOL    HW2  740   3.902   1.215   2.007  0.0424  1.1626  2.2626
   42SOL     OW  741   5.054   3.314   5.374 -0.2544  0.0104 -0.0455
   42SOL    HW1  742   5.095   3.228   5.381  0.6965  0.4835  0.4949
   42SOL    HW2  743   5.066   3.339   5.283  0.3447 -0.0243  0.0180
   43SOL     OW  744   3.680   5.938   6.935  0.0033 -0.3853  0.4082
   43SOL    HW1  745   3.635   6.009   6.889  1.2609 -0.4970 -1.0766
   43SOL    HW2  746   3.609   5.882   6.967 -1.0715  2.0254  2.5572
   44SOL     OW  747   4.067   5.358   1.299 -0.5911 -0.0193  0.0737
   44SOL    HW1  748   4.152   5.372   1.342  0.3613 -0.0789 -1.6898
   44SOL    HW2  749   4.031   5.281   1.343  0.7717 -0.6576  0.1326
   45SOL     OW  750   2.335   4.460   2.426  0.5749 -0.3509 -0.0400
   45SOL    HW1  751   2.324   4.444   2.332  0.1851 -1.2776  0.1487
   45SOL    HW2  752   2.252   4.500   2.453  0.9538  0.5698 -0.2159
   46SOL     OW  753   5.162   6.689   0.411  0.0918  0.0815  0.0239
   46SOL    HW1  754   5.233   6.724   0.358 -0.7287 -0.2428 -1.3401
   46SOL    HW2  755   5.160   6.744   0.489  2.3400 -0.3959  0.4788
   47SOL     OW  756   1.459   7.150   7.125 -0.1081  0.1267  0.4867
   47SOL    HW1  757   1.425   7.183   7.208  1.7743  1.9539  0.6035
   47SOL    HW2  758   1.539   7.103   7.148 -0.8540 -1.4898 -0.0796
   48SOL     OW  759   1.777   4.526   3.554 -0.1544  0.2286  0.2925
   48SOL    HW1  760   1.737   4.538   3.469 -0.0965  1.2398  0.4011
   48SOL    HW2  761   1.759   4.434   3.576 -1.5571  0.3929 -0.0804
   49SOL     OW  762   4.277   3.354   5.078  0.4937  0.1479 -0.6801
   49SOL    HW1  763   4.234   3.271   5.096  1.0326  0.1561  0.7769
   49SOL    HW2  764   4.364   3.345   5.115  0.4828  1.4306 -0.2893
   50SOL     OW  765   5.501   3.482   3.913 -0.5659 -0.5339  0.1248
   50SOL    HW1  766   5.534   3.451   3.829 -0.3502 -2.1904  0.7945
   50SOL    HW2  767   5.409   3.503   3.897 -0.6845 -1.4037 -0.3948
   51SOL     OW  768   5.183   5.168   2.527  0.0346 -0.2334  0.2346
   51SOL    HW1  769   5.152   5.257   2.545  0.8527  0.9522 -3.3979
   51SOL    HW2  770   5.179   5.124   2.612 -1.9692  2.7391  1.8825
   52SOL     OW  771   4.738   0.622   6.243  0.1376 -0.2645  0.7288
   52SOL    HW1  772   4.758   0.690   6.307  1.0897 -0.9940  1.2310
   52SOL    HW2  773   4.704   0.670   6.168 -0.1569  0.6840  1.4380
   53SOL     OW  774   4.659   5.881   1.806 -0.3220 -0.4846 -0.6500
   53SOL    HW1  775   4.747   5.858   1.778 -0.7283 -1.1332 -1.4357
   53SOL    HW2  776   4.644   5.829   1.885 -0.6908 -1.8529 -1.5850
   54SOL     OW  777   1.857   6.502   3.603  0.6860  0.3852 -0.1270
   54SOL    HW1  778   1.831   6.448   3.528 -0.4016 -1.5857  1.5620
   54SOL    HW2  779   1.950   6.482   3.616  0.4110 -0.8000  0.1928
   55SOL     OW  780   1.817   6.233   2.666 -0.6496  0.9310 -0.0283
   55SOL    HW1  781   1.901   6.199   2.698 -1.1342  0.5320  0.8484
   55SOL    HW2  782   1.825   6.328   2.674  0.2698  1.0032 -1.3791
   56SOL     OW  783   5.490   6.332   6.334 -0.5884  0.0394 -0.0039
   56SOL    HW1  784   5.489   6.236   6.331 -0.8094 -0.0326  1.4872
   56SOL    HW2  785   5.404   6.357   6.300 -1.4762 -0.4209  1.7874
   57SOL     OW  786   2.484   5.634   7.014  0.2578 -0.0630  0.4728
   57SOL    HW1  787   2.447   5.647   7.101 -3.5451 -2.5825 -0.5528
   57SOL    HW2  788   2.530   5.550   7.020  0.1678 -0.1402  0.1121
   58SOL     OW  789   6.323   4.479   5.930  0.1868  1.1823  0.1102
   58SOL    HW1  790   6.263   4.493   5.857 -0.2304 -0.7649  0.0068
   58SOL    HW2  791   6.401   4.441   5.890 -0.0457  0.1032  0.6415
   59SOL     OW  792   1.216   6.231   2.550 -0.0750  0.2812 -0.0192
   59SOL    HW1  793   1.178   6.239   2.462 -0.8011 -0.3995  0.2227
   59SOL    HW2  794   1.149   6.267   2.608  0.6952  1.3905  0.2114
   60SOL     OW  795   1.079   0.771   0.849  0.2548 -0.4456 -0.3977
   60SOL    HW1  796   0.990   0.736   0.853  0.1437 -0.0183  1.4503
   60SOL    HW2  797   1.131   0.711   0.903 -0.0274  2.2963  3.2666
   61SOL     OW  798   4.448   3.280   4.715  0.0186  0.6977  0.2762
   61SOL    HW1  799   4.468   3.357   4.768  0.9767 -0.1433  1.1652
   61SOL    HW2  800   4.492   3.208   4.759 -1.2346 -0.4522 -0.2901
   62SOL     OW  801   2.297   1.901   3.572 -0.1439 -0.0819  0.0558
   62SOL    HW1  802   2.229   1.945   3.624  0.3432  1.7364 -0.7364
   62SOL    HW2  803   2.334   1.835   3.630 -2.5463 -1.1135  0.5229
   63SOL     OW  804   2.338   3.692   1.568  0.3589  0.2435  0.3796
   63SOL    HW1  805   2.408   3.722   1.511 -0.0013  2.6049  1.0610
   63SOL    HW2  806   2.382   3.642   1.637  0.8099 -2.5466 -1.7642
   64SOL     OW  807   6.110   5.281   1.499 -0.2768 -0.1441  0.2781
   64SOL    HW1  808   6.054   5.222   1.448  1.4149 -0.6005 -1.1620
   64SOL    HW2  809   6.143   5.227   1.571 -0.5739 -0.2744  0.3183
   65SOL     OW  810   1.253   0.493   4.330  0.0806 -0.1423 -0.1634
   65SOL    HW1  811   1.239   0.442   4.409  1.9244 -2.0441 -0.9563
   65SOL    HW2  812   1.211   0.578   4.347 -2.0066 -1.4615  1.7036
   66SOL     OW  813   6.658   6.146   0.060  0.0503  0.0321 -0.0892
   66SOL    HW1  814   6.717   6.074   0.040  0.6635  0.4129  0.3205
   66SOL    HW2  815   6.611   6.116   0.138 -0.2949 -0.2647 -0.4066
   67SOL     OW  816   1.703   0.219   4.827 -0.1494 -0.2834  0.1094
   67SOL    HW1  817   1.730   0.300   4.872  0.2559 -0.6508  0.5337
   67SOL    HW2  818   1.782   0.189   4.783 -0.7597  0.5845 -1.6901
   68SOL     OW  819   6.455   6.562   1.765  0.0048  0.2366  0.6225
   68SOL    HW1  820   6.490   6.589   1.680 -0.2061  1.5751  0.9440
   68SOL    HW2  821   6.498   6.620   1.828 -0.1755 -0.4468  1.3902
   69SOL     OW  822   0.765   4.770   3.284 -0.6453  0.2353  0.0747
   69SOL    HW1  823   0.825   4.833   3.323 -1.0713  0.1267  0.9380
   69SOL    HW2  824   0.814   4.687   3.285  0.6457  0.8288 -2.7864
   70SOL     OW  825   1.164   3.485   6.107  0.1812 -0.1212  0.3732
   70SOL    HW1  826   1.115   3.409   6.139  0.6687 -0.6383 -0.0830
   70SOL    HW2  827   1.255   3.457   6.106  0.8057  1.5150  3.1657
   71SOL     OW  828   5.863   5.866   5.863  0.5608 -0.2381  0.2238
   71SOL    HW1  829   5.856   5.939   5.925 -1.0536 -0.0448 -0.1539
   71SOL    HW2  830   5.784   5.872   5.810 -0.4226 -3.2439  1.2097
   72SOL     OW  831   6.473   3.574   6.169  0.3509  0.4057  0.3988
   72SOL    HW1  832   6.401   3.601   6.111  0.8531 -0.9251 -0.9327
   72SOL    HW2  833   6.548   3.626   6.140  0.9396 -1.1880 -1.1443
   73SOL     OW  834   2.761   3.163   6.011  0.3977  0.0853  0.0314
   73SOL    HW1  835   2.838   3.123   5.971  1.9694  0.4746  2.4736
   73SOL    HW2  836   2.728   3.224   5.945  2.4136  0.2021 -0.9330
   74SOL     OW  837   3.161   0.870   6.682  0.0325  0.1573 -0.5731
   74SOL    HW1  838   3.172   0.962   6.709  3.4706 -0.3249  0.2267
   74SOL    HW2  839   3.145   0.823   6.763  1.6857 -0.2734 -0.4533
   75SOL     OW  840   5.170   2.960   7.191 -0.3232 -0.1875  0.4539
   75SOL    HW1  841   5.172   2.955   7.095 -1.4619 -1.2528  0.4551
   75SOL    HW2  842   5.095   3.016   7.210  1.2071  1.8943  0.7409
   76SOL     OW  843   5.445   4.953   4.777 -0.5512  0.1164 -0.2102
   76SOL    HW1  844   5.361   4.919   4.809 -1.6995  0.4583 -2.5810
   76SOL    HW2  845   5.424   5.041   4.744  0.9208  0.5069 -0.1697
   77SOL     OW  846   2.251   2.202   4.368  0.3256 -0.0911  0.1757
   77SOL    HW1  847   2.242   2.251   4.286 -2.0828  1.3267  1.1780
   77SOL    HW2  848   2.310   2.256   4.421  0.1753  0.1216  0.1311
   78SOL     OW  849   4.152   1.645   7.146  0.1688 -0.0223 -0.3529
   78SOL    HW1  850   4.157   1.723   7.202 -0.6666 -1.0315  1.1880
   78SOL    HW2  851   4.231   1.595   7.168  0.2291 -0.0504 -0.6399
   79SOL     OW  852   5.078   3.784   5.544 -0.2238 -0.5256 -0.1579
   79SOL    HW1  853   5.039   3.757   5.627 -1.0195  1.1229  0.0456
   79SOL    HW2  854   5.030   3.733   5.478 -1.5283  0.1695  0.2214
   80SOL     OW  855   4.663   0.502   7.070  0.3181 -0.2536  0.1913
   80SOL    HW1  856   4.598   0.550   7.122  0.9903 -1.0385  1.8124
   80SOL    HW2  857   4.638   0.410   7.080  0.2786 -0.4120 -1.1772
   81SOL     OW  858   3.323   4.401   6.922 -0.3612  0.1531 -0.3856
   81SOL    HW1  859   3.340   4.391   7.015  0.3859  0.8630 -0.4397
   81SOL    HW2  860   3.250   4.341   6.904 -0.0098 -0.5518  0.4942
   82SOL     OW  861   2.236   6.254   2.672 -0.0668  0.5000 -0.2975
   82SOL    HW1  862   2.315   6.309   2.680 -0.6947  1.3452  0.2896
   82SOL    HW2  863   2.230   6.236   2.578  0.0983  1.5565 -0.5333
   83SOL     OW  864   6.624   5.772   5.184  0.1924  0.0532  0.4888
   83SOL    HW1  865   6.625   5.798   5.092  1.9008 -2.1198 -0.2028
   83SOL    HW2  866   6.626   5.855   5.233  1.1069  1.2512 -1.4520
   84SOL     OW  867   4.082   2.643   7.200  0.8051  0.9727 -0.1391
   84SOL    HW1  868   4.153   2.584   7.176 -1.6365 -1.6800 -1.3282
   84SOL    HW2  869   4.044   2.605   7.280 -1.2021  0.4744 -1.2632
   85SOL     OW  870   4.130   4.609   2.447  0.3077  0.8068 -0.3954
   85SOL    HW1  871   4.100   4.692   2.412 -0.5105  0.9102  0.5075
   85SOL    HW2  872   4.183   4.570   2.377 -0.2937  1.5346 -1.2630
   86SOL     OW  873   0.261   1.624   6.027 -0.0753 -0.0339 -0.2320
   86SOL    HW1  874   0.282   1.553   6.088 -1.6458 -0.9142 -0.6776
   86SOL    HW2  875   0.223   1.692   6.083 -0.5281 -0.4050 -0.0842
   87SOL     OW  876   2.424   6.490   2.710 -0.3041  0.3616 -0.5319
   87SOL    HW1  877   2.465   6.569   2.744  0.6292 -0.1403 -0.4827
   87SOL    HW2  878   2.486   6.456   2.646  0.6432 -1.8594  1.4325
   88SOL     OW  879   2.966   0.896   0.241  0.3451  0.4798  0.0682
   88SOL    HW1  880   2.874   0.877   0.221  0.2407  0.3421  0.6635
   88SOL    HW2  881   3.012   0.879   0.159 -0.0897  0.0252 -0.0885
   89SOL     OW  882   0.688   4.673   6.889 -0.8276  0.2955  0.3334
   89SOL    HW1  883   0.701   4.710   6.802  0.5935 -0.9360 -0.0324
   89SOL    HW2  884   0.697   4.578   6.876 -0.2792  0.1077  1.8655
   90SOL     OW  885   1.192   3.225   5.300  0.1393 -0.0188  0.9657
   90SOL    HW1  886   1.215   3.133   5.314  1.6563 -0.0152 -0.9664
   90SOL    HW2  887   1.231   3.271   5.374  1.1497 -0.7407  0.9049
   91SOL     OW  888   2.203   5.235   0.766 -0.0412 -0.0414  0.1799
   91SOL    HW1  889   2.174   5.144   0.761  0.0661 -0.1522  1.4214
   91SOL    HW2  890   2.273   5.241   0.701 -1.3221 -0.3307 -1.2932
   92SOL     OW  891   5.198   2.590   3.597  0.0363 -0.2374 -0.3345
   92SOL    HW1  892   5.157   2.620   3.678  1.6447 -0.2385  0.5138
   92SOL    HW2  893   5.153   2.640   3.528 -1.5620 -0.4638  0.5012
   93SOL     OW  894   6.841   4.548   0.465  0.1064 -0.3195 -0.1429
   93SOL    HW1  895   6.804   4.461   0.447  0.8295 -0.3298 -1.7689
   93SOL    HW2  896   6.770   4.597   0.505 -1.1679 -0.8550 -1.6354
   94SOL     OW  897   6.594   1.100   3.807 -0.2512 -0.4275 -0.3536
   94SOL    HW1  898   6.589   1.117   3.713  1.0829 -0.4761 -0.4522
   94SOL    HW2  899   6.629   1.181   3.844 -0.4380 -0.5325  0.0631
   95SOL     OW  900   4.350   6.132   0.882 -0.3124  0.4988  0.0390
   95SOL    HW1  901   4.343   6.039   0.863 -0.2531  0.5247 -0.1108
   95SOL    HW2  902   4.300   6.144   0.963 -2.5138  0.7423 -1.2532
   96SOL     OW  903   0.349   6.026   3.098 -0.0305  0.2796 -0.1415
   96SOL    HW1  904   0.286   6.096   3.115  0.1988 -0.0359  2.4841
   96SOL    HW2  905   0.297   5.955   3.061 -0.4233  1.4807 -1.9832
   97SOL     OW  906   5.393   6.075   3.720 -0.1971 -0.0048 -0.5478
   97SOL    HW1  907   5.373   6.164   3.747 -0.3720  0.4362 -2.0468
   97SOL    HW2  908   5.459   6.085   3.651  0.3378 -1.0845 -0.2207
   98SOL     OW  909   0.992   5.592   0.927 -0.3663  0.2773 -0.0025
   98SOL    HW1  910   0.997   5.577   1.021  1.1808  1.4647  0.1504
   98SOL    HW2  911   1.078   5.628   0.904 -1.3793  1.9428 -1.4800
   99SOL     OW  912   1.979   3.844   6.945  0.2362 -0.1312  0.0755
   99SOL    HW1  913   2.065   3.804   6.962  0.4367 -0.1442 -0.9031
   99SOL    HW2  914   1.916   3.777   6.972  0.4979  0.1437  1.4669
  100SOL     OW  915   0.487   6.529   1.814 -0.2046 -0.3927 -0.2463
  100SOL    HW1  916   0.523   6.467   1.750  2.3735  1.3684 -0.6363
  100SOL    HW2  917   0.454   6.601   1.760 -1.1305 -0.3952  0.3004
  101SOL     OW  918   0.468   6.543   0.024 -0.5732  0.5820  0.0546
  101SOL    HW1  919   0.375   6.563   0.035 -1.0007 -0.6573 -1.0496
  101SOL    HW2  920   0.470   6.457  -0.019  1.0874  0.4852  0.2371
  102SOL     OW  921   5.482   6.802   6.615 -0.4679  0.4329  0.0472
  102SOL    HW1  922   5.390   6.827   6.605  0.0369  2.5249  0.1303
  102SOL    HW2  923   5.488   6.717   6.570 -1.8941  1.4698 -2.3656
  103SOL     OW  924   6.679   3.331   2.984  0.4069 -0.0894  0.3031
  103SOL    HW1  925   6.639   3.245   2.972 -0.2823 -0.0676  2.0866
  103SOL    HW2  926   6.773   3.316   2.972  0.2655 -1.0351  0.3119
  104SOL     OW  927   3.286   6.121   3.653  0.3885 -0.1437 -0.7500
  104SOL    HW1  928   3.367   6.134   3.603  0.3912  1.7043 -0.3277
  104SOL    HW2  929   3.313   6.072   3.730  1.2064  0.8137 -0.4057
  105SOL     OW  930   1.977   3.106   1.508  0.1974 -0.1794 -0.7487
  105SOL    HW1  931   1.951   3.159   1.583  1.1591 -1.2423  0.3865
  105SOL    HW2  932   1.895   3.076   1.470 -0.3038  0.5964 -0.3013
  106SOL     OW  933   7.129   1.199   2.744 -0.2319  0.0726  0.0304
  106SOL    HW1  934   7.094   1.130   2.801  0.9251 -0.6333 -0.0734
  106SOL    HW2  935   7.105   1.280   2.787  1.1909 -0.4429  1.9482
  107SOL     OW  936   0.352   1.195   2.534 -0.6827 -0.5927  0.2035
  107SOL    HW1  937   0.337   1.241   2.452 -2.5588 -1.1290  0.2019
  107SOL    HW2  938   0.380   1.107   2.508 -1.5791 -0.8604  0.1076
  108SOL     OW  939   2.249   0.244   5.676  0.3549  0.0633  0.2874
  108SOL    HW1  940   2.180   0.202   5.625 -0.0314  2.5028 -1.4008
  108SOL    HW2  941   2.209   0.265   5.760 -1.0303  1.4918 -0.6855
  109SOL     OW  942   2.585   4.093   0.431 -0.4004 -0.3328 -0.3284
  109SOL    HW1  943   2.496   4.088   0.397 -0.6498 -1.8942  0.4565
  109SOL    HW2  944   2.574   4.125   0.521 -0.2303 -0.9600 -0.0782
  110SOL     OW  945   0.700   5.662   0.978  0.0513  0.5605  0.2071
  110SOL    HW1  946   0.705   5.742   1.030 -0.5497  3.2517 -3.4597
  110SOL    HW2  947   0.780   5.662   0.926 -1.3978  0.6451 -2.1733
  111SOL     OW  948   3.473   4.931   5.248 -0.0519 -0.0011 -0.2204
  111SOL    HW1  949   3.446   4.967   5.163  1.1905  1.6584  0.0248
  111SOL    HW2  950   3.496   4.840   5.229 -2.1391 -0.3927 -1.1370
  112SOL     OW  951   4.582   1.049   1.143  0.0100 -0.1758  0.7894
  112SOL    HW1  952   4.655   1.068   1.085 -0.1933  0.8608  0.8455
  112SOL    HW2  953   4.524   1.125   1.134 -0.8108 -0.7493  1.1249
  113SOL     OW  954   5.542   2.285   5.667  0.0203 -0.7410  0.4508
  113SOL    HW1  955   5.609   2.280   5.736  0.5971 -1.1039 -0.1176
  113SOL    HW2  956   5.582   2.239   5.593 -1.1005 -1.4815  0.2898
  114SOL     OW  957   2.683   0.791   3.633  0.4794 -0.2542 -0.2650
  114SOL    HW1  958   2.711   0.756   3.548  0.7929  1.3211 -0.8623
  114SOL    HW2  959   2.716   0.729   3.697 -0.1592 -1.7290 -1.3136
  115SOL     OW  960   4.831   2.138   5.133  0.3528  0.4526  0.0455
  115SOL    HW1  961   4.779   2.193   5.191  0.5689 -0.0625  0.7383
  115SOL    HW2  962   4.921   2.169   5.145  0.0751  2.7017 -2.6278
  116SOL     OW  963   0.563   6.131   2.708  0.7105 -0.3634  0.1851
  116SOL    HW1  964   0.560   6.054   2.764 -0.2086  0.2554  1.0293
  116SOL    HW2  965   0.600   6.200   2.764 -1.6497  0.6659  0.6057
  117SOL     OW  966   4.766   6.212   0.807 -0.0928 -0.3083 -0.3312
  117SOL    HW1  967   4.816   6.191   0.728 -1.3968 -2.8019 -0.5785
  117SOL    HW2  968   4.829   6.199   0.878  0.5941  0.1794 -0.8306
  118SOL     OW  969   7.063   5.015   5.173 -0.1099 -0.5008 -0.6704
  118SOL    HW1  970   6.987   5.058   5.135 -0.0538 -0.6648 -0.9676
  118SOL    HW2  971   7.028   4.936   5.214 -0.4186  0.4799  1.0387
  119SOL     OW  972   5.823   0.941   5.556 -0.0101 -0.2409 -0.5686
  119SOL    HW1  973   5.874   0.908   5.630 -0.5796  0.7055  0.2818
  119SOL    HW2  974   5.804   1.032   5.580 -1.4692 -0.3641 -1.1924
  120SOL     OW  975   2.172   0.045   4.255  0.0805 -0.3958 -0.2399
  120SOL    HW1  976   2.116   0.116   4.222 -1.1650 -0.6058  1.3365
  120SOL    HW2  977   2.197  -0.003   4.176 -0.5519  0.7132 -1.1556
  121SOL     OW  978   4.129   5.247   6.641 -0.0956  0.2266  0.0652
  121SOL    HW1  979   4.052   5.240   6.584  0.7369  1.8046 -1.3255
  121SOL    HW2  980   4.136   5.340   6.660  0.5080 -0.1023  1.6007
  122SOL     OW  981   4.840   4.636   1.726  0.3169  0.0949 -0.0682
  122SOL    HW1  982   4.921   4.677   1.755  0.2510 -0.6044  1.1432
  122SOL    HW2  983   4.854   4.542   1.738 -0.6660 -0.0398  0.1401
  123SOL     OW  984   3.269   1.847   6.995 -0.0065 -0.2420 -0.0929
  123SOL    HW1  985   3.241   1.938   7.009 -1.5735 -0.9335  1.4759
  123SOL    HW2  986   3.303   1.819   7.080 -1.3496 -1.7262 -0.0218
  124SOL     OW  987   5.389   1.381   1.091  0.0209 -0.6024 -0.2424
  124SOL    HW1  988   5.353   1.459   1.048  0.8342 -0.3562 -0.5001
  124SOL    HW2  989   5.348   1.381   1.178 -0.4670 -0.2424 -0.4658
  125SOL     OW  990   5.347   5.992   3.224  0.0925 -0.0017  0.6371
  125SOL    HW1  991   5.294   5.985   3.303 -0.5967  2.2934  0.4371
  125SOL    HW2  992   5.423   5.937   3.241 -0.9826 -1.1159  2.0751
  126SOL     OW  993   6.214   6.539   1.526  0.2142  0.9507  0.4228
  126SOL    HW1  994   6.288   6.479   1.533  0.0795  0.8298  0.8114
  126SOL    HW2  995   6.237   6.596   1.453 -0.0986 -0.1931 -0.6035
  127SOL     OW  996   3.619   2.685   1.140 -0.0577 -0.6006  0.1871
  127SOL    HW1  997   3.540   2.645   1.102 -1.6730  2.7617 -0.3924
  127SOL    HW2  998   3.676   2.701   1.065 -0.6319  0.5653 -0.0332
  128SOL     OW  999   1.629   5.182   4.669  0.2355 -0.0723 -0.0675
  128SOL    HW1 1000   1.691   5.120   4.708  1.0074  1.2456  0.8571
  128SOL    HW2 1001   1.663   5.197   4.581 -0.1582 -1.2098 -0.4350
  129SOL     OW 1002   4.799   4.445   2.048 -0.0057 -0.1546  0.2865
  129SOL    HW1 1003   4.770   4.389   1.975  0.5210 -0.4039  0.2634
  129SOL    HW2 1004   4.822   4.383   2.117 -0.9937  0.0966  0.8588
  130SOL     OW 1005   5.283   5.544   0.324 -0.2243  0.2671  0.2824
  130SOL    HW1 1006   5.336   5.559   0.246  1.0803 -0.1208  1.0693
  130SOL    HW2 1007   5.259   5.632   0.354  0.3486  0.4675  0.1656
  131SOL     OW 1008   2.764   3.326   7.026  0.0474  0.4227 -0.3527
  131SOL    HW1 1009   2.839   3.269   7.043 -0.4083 -0.0480  0.1309
  131SOL    HW2 1010   2.787   3.371   6.945 -0.1271 -1.4456 -1.5149
  132SOL     OW 1011   4.368   3.463   2.407  0.0158 -0.5968 -0.1962
  132SOL    HW1 1012   4.387   3.540   2.353 -1.4654  0.3028  0.4845
  132SOL    HW2 1013   4.453   3.429   2.433  0.7622  2.1723  1.3651
  133SOL     OW 1014   4.508   4.692   2.114 -0.1875 -0.2681  0.2672
  133SOL    HW1 1015   4.463   4.764   2.071  0.8244  0.0166 -0.3597
  133SOL    HW2 1016   4.597   4.695   2.079  0.6057 -0.2149  2.1894
  134SOL     OW 1017   2.248   3.758   3.127 -0.3040 -0.6288  0.3228
  134SOL    HW1 1018   2.161   3.733   3.158  0.2440 -0.2130  2.2986
  134SOL    HW2 1019   2.282   3.816   3.194  1.4454 -0.6394 -0.5049
  135SOL     OW 1020   3.414   4.815   4.036 -0.6371 -0.3243 -0.4649
  135SOL    HW1 1021   3.378   4.727   4.046  1.3050 -1.4756 -2.6546
  135SOL    HW2 1022   3.482   4.821   4.103 -0.6682 -0.5663 -0.4113
  136SOL     OW 1023   3.326   5.280   1.624 -0.1295 -0.2078 -0.1698
  136SOL    HW1 1024   3.315   5.275   1.529 -0.8223  1.2720 -0.1956
  136SOL    HW2 1025   3.299   5.369   1.647  0.9847 -0.1952  1.2904
  137SOL     OW 1026   1.653   2.039   1.566 -0.3157 -0.0348 -0.0911
  137SOL    HW1 1027   1.584   1.975   1.548 -1.5887  1.0821  0.6518
  137SOL    HW2 1028   1.662   2.089   1.485 -0.1580 -0.3748 -0.2850
  138SOL     OW 1029   6.783   5.535   2.305 -0.6030 -0.1447  0.1335
  138SOL    HW1 1030   6.866   5.575   2.330 -1.0501  0.2488  1.0332
  138SOL    HW2 1031   6.805   5.444   2.286 -0.0877 -0.2294  1.1033
  139SOL     OW 1032   7.124   3.537   6.115 -0.0209 -0.3057  0.3800
  139SOL    HW1 1033   7.195   3.578   6.165  1.7426 -0.6881 -1.6632
  139SOL    HW2 1034   7.098   3.605   6.053 -0.3767 -0.6860  0.1159
  140SOL     OW 1035   1.516   5.841   5.713 -0.0631 -0.1441  0.4542
  140SOL    HW1 1036   1.552   5.762   5.673  1.5791  1.1599 -0.7708
  140SOL    HW2 1037   1.593   5.890   5.743 -1.0935  0.5114  2.1749
  141SOL     OW 1038   6.590   3.760   7.084 -0.1892 -0.5416  0.1920
  141SOL    HW1 1039   6.664   3.724   7.036  0.2831 -0.3298  0.7564
  141SOL    HW2 1040   6.550   3.683   7.127 -1.8159 -1.0729 -2.0713
  142SOL     OW 1041   5.065   2.530   4.942  0.3219  0.1898  0.0945
  142SOL    HW1 1042   5.050   2.596   4.874  0.1771  1.0712  0.9481
  142SOL    HW2 1043   4.978   2.512   4.977  0.5691  1.2581  1.3803
  143SOL     OW 1044   3.731   6.124   1.157  0.8413  0.1554  0.2917
  143SOL    HW1 1045   3.667   6.053   1.163  0.5594  0.4914  1.5094
  143SOL    HW2 1046   3.789   6.098   1.085 -0.7663 -0.0564 -1.0094
  144SOL     OW 1047   1.081   1.088   4.819 -0.3203 -0.3713 -0.5612
  144SOL    HW1 1048   1.039   1.127   4.895 -2.4654 -1.6866 -0.9829
  144SOL    HW2 1049   1.145   1.026   4.856  0.1904  0.5443  0.1210
  145SOL     OW 1050   0.143   5.042   2.408  0.2034 -0.0094 -0.1747
  145SOL    HW1 1051   0.175   5.075   2.492 -1.1241 -1.8275  1.1268
  145SOL    HW2 1052   0.190   4.959   2.395 -1.4478 -1.0160  0.0789
  146SOL     OW 1053   6.759   2.517   1.185 -0.4001  0.5878  0.4292
  146SOL    HW1 1054   6.781   2.601   1.225 -1.0614  0.6061  0.7802
  146SOL    HW2 1055   6.837   2.463   1.198 -0.4363  0.7417  1.3587
  147SOL     OW 1056   2.350   0.172   6.725  0.1771  0.3677  0.0018
  147SOL    HW1 1057   2.298   0.251   6.712 -2.5182 -1.5807 -2.3622
  147SOL    HW2 1058   2.407   0.168   6.649 -0.6930 -0.5964 -0.6256
  148SOL     OW 1059   4.080   2.271   1.518 -0.6615 -0.0471  0.0573
  148SOL    HW1 1060   4.103   2.324   1.594  1.9987 -2.2754  0.9552
  148SOL    HW2 1061   4.056   2.186   1.554  0.4627 -1.1013 -1.5161
  149SOL     OW 1062   5.864   1.348   2.749 -0.6105 -0.0623  0.4825
  149SOL    HW1 1063   5.933   1.414   2.751 -1.2953  0.6626  1.2536
  149SOL    HW2 1064   5.907   1.268   2.719  0.2261  0.7449 -0.5194
  150SOL     OW 1065   5.636   1.925   0.388  0.4137  0.4408  0.2557
  150SOL    HW1 1066   5.606   1.881   0.308 -1.4112  0.8487  0.6722
  150SOL    HW2 1067   5.667   2.010   0.358  0.7797  0.1691 -0.1475
  151SOL     OW 1068   3.754   5.437   4.890  0.1491  0.0162 -0.1799
  151SOL    HW1 1069   3.811   5.373   4.933 -1.3934 -1.0145  0.3942
  151SOL    HW2 1070   3.674   5.389   4.870 -0.8835  1.6445 -0.1433
  152SOL     OW 1071   7.000   0.364   3.173  0.0471 -0.0693 -0.1995
  152SOL    HW1 1072   6.987   0.308   3.097  0.5477 -0.6252  0.1169
  152SOL    HW2 1073   7.066   0.428   3.146 -0.5529  0.3998 -0.5730
  153SOL     OW 1074   2.642   2.055   7.012  0.0404  0.3781 -0.0487
  153SOL    HW1 1075   2.670   1.968   6.982  0.4516  0.7304 -0.7110
  153SOL    HW2 1076   2.547   2.049   7.017  0.0578 -0.0743 -0.2092
  154SOL     OW 1077   4.847   3.059   3.243 -0.0406 -0.0726 -0.4367
  154SOL    HW1 1078   4.932   3.100   3.229 -0.9175  1.2718 -2.1086
  154SOL    HW2 1079   4.817   3.094   3.327 -0.4314  2.2020 -1.4679
  155SOL     OW 1080   0.048   4.877   5.099  0.1356 -0.3682 -0.2026
  155SOL    HW1 1081   0.012   4.835   5.020  0.8835 -0.6613 -0.3923
  155SOL    HW2 1082  -0.025   4.929   5.133  0.5240  1.9621 -2.5905
  156SOL     OW 1083   4.865   5.110   1.737 -0.6960 -0.2155 -0.2376
  156SOL    HW1 1084   4.818   5.045   1.789 -2.3455 -0.4611 -1.9256
  156SOL    HW2 1085   4.954   5.075   1.730 -1.0812 -1.3775  0.3769
  157SOL     OW 1086   2.469   4.974   1.953 -0.1985  0.2411  0.0649
  157SOL    HW1 1087   2.554   4.989   1.913 -0.6597 -0.2461 -1.1554
  157SOL    HW2 1088   2.460   5.043   2.019  0.8403  0.6995 -0.2598
  158SOL     OW 1089   3.621   2.815   4.952  0.3798  0.4483  0.0352
  158SOL    HW1 1090   3.547   2.754   4.945  0.6555  0.0730  0.3546
  158SOL    HW2 1091   3.608   2.858   5.036 -0.7756  2.1166 -0.9288
  159SOL     OW 1092   0.740   2.829   0.762  0.5434 -0.0529 -0.2478
  159SOL    HW1 1093   0.695   2.835   0.678  2.3036 -0.8133 -1.2933
  159SOL    HW2 1094   0.823   2.874   0.748 -0.4666  2.8781  2.1505
  160SOL     OW 1095   1.661   6.619   5.389 -0.4660  0.1506  0.4595
  160SOL    HW1 1096   1.581   6.617   5.336 -0.3615 -0.6414  0.3243
  160SOL    HW2 1097   1.731   6.629   5.325 -0.3360 -0.8442  0.4363
  161SOL     OW 1098   1.129   2.225   2.268 -0.4176  0.1923  0.1042
  161SOL    HW1 1099   1.103   2.176   2.190  2.1876  0.9525 -1.3516
  161SOL    HW2 1100   1.128   2.160   2.338  2.3477 -1.9566 -1.6360
  162SOL     OW 1101   0.633   1.091   6.009 -0.2186 -0.0343  0.0313
  162SOL    HW1 1102   0.569   1.103   6.079  0.0055  0.4278  0.1659
  162SOL    HW2 1103   0.607   1.154   5.941 -0.2855 -0.3000 -0.1914
  163SOL     OW 1104   2.144   6.001   2.574  0.2584 -0.5424  0.3770
  163SOL    HW1 1105   2.124   6.056   2.650  0.2807  1.6933 -1.1313
  163SOL    HW2 1106   2.236   5.977   2.586  0.5401  0.5953  0.6033
  164SOL     OW 1107   6.683   7.171   5.362  0.2483  0.2317  0.2380
  164SOL    HW1 1108   6.704   7.238   5.298 -0.8970  0.5343  0.1602
  164SOL    HW2 1109   6.709   7.209   5.446 -0.3884  0.7660  0.1929
  165SOL     OW 1110   5.649   7.199   0.679  0.9742 -0.2488 -0.2364
  165SOL    HW1 1111   5.695   7.250   0.613 -0.6594  1.6569 -0.0172
  165SOL    HW2 1112   5.578   7.156   0.631  0.7218 -0.1107  0.0053
  166SOL     OW 1113   0.029   1.397   3.965  0.8919 -0.5476 -0.1803
  166SOL    HW1 1114   0.013   1.414   4.058  1.4741  0.8465 -0.3143
  166SOL    HW2 1115   0.085   1.319   3.964  1.4085 -0.2023  0.6757
  167SOL     OW 1116   0.561   5.198   0.959  0.8897 -0.3795 -0.3615
  167SOL    HW1 1117   0.646   5.241   0.961  0.3400  0.7856  1.6894
  167SOL    HW2 1118   0.498   5.269   0.971 -0.2235 -1.4276  0.2846
  168SOL     OW 1119   3.927   7.232   6.277 -0.1509  0.2422  0.6018
  168SOL    HW1 1120   3.858   7.296   6.259  0.5609  0.9357  0.2872
  168SOL    HW2 1121   4.007   7.284   6.288  0.4127 -0.5768  0.5283
  169SOL     OW 1122   6.336   3.579   6.417 -0.0434  0.4361 -0.1791
  169SOL    HW1 1123   6.277   3.649   6.389  0.3038  0.5200 -0.7150
  169SOL    HW2 1124   6.405   3.577   6.350  0.2303 -0.0696  0.1093
  170SOL     OW 1125   4.407   1.975   6.699 -0.1130  0.0234  0.1488
  170SOL    HW1 1126   4.476   1.925   6.741 -0.3151 -0.6549 -0.3106
  170SOL    HW2 1127   4.407   2.060   6.744  2.6813  1.0014 -1.4939
  171SOL     OW 1128   3.986   6.971   2.623  0.2032 -0.6442  0.1473
  171SOL    HW1 1129   4.069   6.924   2.627  1.4065  1.2389 -0.9066
  171SOL    HW2 1130   3.966   6.977   2.530 -1.8279 -2.1251  0.4132
  172SOL     OW 1131   6.912   5.750   6.462 -0.3131  0.2055 -0.4497
  172SOL    HW1 1132   6.838   5.791   6.417  0.0345  3.0973  1.3305
  172SOL    HW2 1133   6.976   5.733   6.393 -1.3118  0.7882 -1.5557
  173SOL     OW 1134   4.399   0.868   5.020 -0.1532 -0.1549 -0.2551
  173SOL    HW1 1135   4.397   0.840   5.112  0.8191  0.8659  0.0940
  173SOL    HW2 1136   4.443   0.797   4.974  0.3692 -0.1753  0.2630
  174SOL     OW 1137   0.016   3.785   3.077  0.3707  0.8982 -0.1467
  174SOL    HW1 1138  -0.077   3.807   3.067  0.3457  0.9457  0.1837
  174SOL    HW2 1139   0.059   3.828   3.002  0.1187  0.8171 -0.3382
  175SOL     OW 1140   6.198   3.001   2.149 -0.6930 -0.3149 -0.2235
  175SOL    HW1 1141   6.281   2.958   2.130 -0.5898  0.4784 -1.6785
  175SOL    HW2 1142   6.215   3.094   2.136 -1.3186  0.0475  1.3801
  176SOL     OW 1143   5.492   6.847   1.008  0.7534 -0.4532  0.5775
  176SOL    HW1 1144   5.418   6.821   0.953  1.5853  1.5128 -1.6365
  176SOL    HW2 1145   5.490   6.942   1.008  1.4770 -0.3578  3.1263
  177SOL     OW 1146   4.905   7.077   5.629 -0.1462 -0.5614 -0.1644
  177SOL    HW1 1147   4.977   7.039   5.679 -0.3959 -1.3699 -0.4056
  177SOL    HW2 1148   4.946   7.147   5.579  0.2511 -0.2420  0.5856
  178SOL     OW 1149   0.064   5.003   0.465 -0.4431  0.3759  0.0425
  178SOL    HW1 1150   0.037   5.001   0.557 -2.0880  1.7008 -0.3661
  178SOL    HW2 1151   0.080   5.095   0.447  1.8099 -0.0695 -0.5254
  179SOL     OW 1152   0.740   7.041   4.869  0.5935 -0.3895 -0.5011
  179SOL    HW1 1153   0.774   7.114   4.818  0.4462 -0.8326 -1.2441
  179SOL    HW2 1154   0.663   7.077   4.914 -0.1323 -0.3636 -1.7170
  180SOL     OW 1155   2.504   3.312   0.517  0.2661 -0.3714  0.0683
  180SOL    HW1 1156   2.571   3.347   0.457 -0.4045  0.5908 -0.1427
  180SOL    HW2 1157   2.483   3.386   0.574 -0.3482 -0.7820  0.3762
  181SOL     OW 1158   1.088   2.413   5.332 -0.7502  0.4640 -0.3020
  181SOL    HW1 1159   1.109   2.386   5.243 -0.9343 -4.2774  0.7916
  181SOL    HW2 1160   1.172   2.435   5.372  0.0324 -1.7331 -0.5784
  182SOL     OW 1161   3.088   6.254   7.203  0.3975 -0.1414  0.1363
  182SOL    HW1 1162   3.158   6.223   7.261  0.6892 -0.6647 -0.4828
  182SOL    HW2 1163   3.097   6.201   7.124  0.1953  0.7778 -0.5167
  183SOL     OW 1164   1.486   6.675   3.078 -0.4269 -0.7020  0.8923
  183SOL    HW1 1165   1.543   6.700   3.151  1.9677  1.2459 -1.4060
  183SOL    HW2 1166   1.499   6.581   3.068 -1.0558 -1.0763  3.0832
  184SOL     OW 1167   5.687   6.792   2.300  0.4074  0.0673  0.6705
  184SOL    HW1 1168   5.635   6.868   2.324  1.1723  1.0875 -0.7690
  184SOL    HW2 1169   5.633   6.744   2.237  0.7977  0.6068 -0.0855
  185SOL     OW 1170   0.492   1.380   7.058  0.0035 -0.8141  0.1443
  185SOL    HW1 1171   0.499   1.288   7.085  1.7361 -0.9838 -0.7839
  185SOL    HW2 1172   0.560   1.425   7.108  0.0126 -0.2653 -0.3541
  186SOL     OW 1173   6.648   0.392   5.210 -0.1664 -0.7023  0.1497
  186SOL    HW1 1174   6.560   0.426   5.228  0.1781 -0.3868  1.2640
  186SOL    HW2 1175   6.697   0.467   5.179 -0.8419 -1.2965 -2.6550
  187SOL     OW 1176   5.386   1.912   4.405  0.0429 -0.1740  0.0342
  187SOL    HW1 1177   5.360   2.003   4.393 -0.8604 -0.4007  0.1679
  187SOL    HW2 1178   5.367   1.894   4.497 -0.3375 -0.6588 -0.1356
  188SOL     OW 1179   6.472   5.821   1.112  0.2941  0.1668  0.4734
  188SOL    HW1 1180   6.468   5.841   1.018 -0.9690 -0.9018  0.2665
  188SOL    HW2 1181   6.540   5.878   1.146  3.3686 -1.8961 -1.7186
  189SOL     OW 1182   2.991   5.632   4.532 -0.2507 -0.3298  0.0867
  189SOL    HW1 1183   2.972   5.724   4.510  1.5526 -0.2863 -1.4832
  189SOL    HW2 1184   3.078   5.635   4.572  0.1021 -1.4255 -0.5680
  190SOL     OW 1185   2.564   1.433   4.443 -0.5151 -0.0831 -0.2017
  190SOL    HW1 1186   2.480   1.442   4.488  0.2989  3.4886  0.9566
  190SOL    HW2 1187   2.617   1.380   4.502 -1.2863 -0.5201  0.1148
  191SOL     OW 1188   5.012   6.707   4.270 -0.1824  0.0450 -0.4250
  191SOL    HW1 1189   4.955   6.775   4.306  0.0718 -0.7642  1.6808
  191SOL    HW2 1190   5.051   6.665   4.347  3.9715  1.0749 -1.7119
  192SOL     OW 1191   6.090   5.581   4.673  0.1898 -0.3498  0.1074
  192SOL    HW1 1192   6.178   5.566   4.708 -0.2573 -0.5704  1.1774
  192SOL    HW2 1193   6.050   5.494   4.670 -0.0780 -0.2191 -0.1314
  193SOL     OW 1194   2.211   5.142   1.331 -0.1879  0.1091 -0.2619
  193SOL    HW1 1195   2.216   5.212   1.265  1.1984 -1.0306 -1.4480
  193SOL    HW2 1196   2.299   5.137   1.368 -0.6987  0.0604  0.9952
  194SOL     OW 1197   5.805   4.979   0.330  0.4560  0.0341 -0.1080
  194SOL    HW1 1198   5.744   5.039   0.289  1.5667  0.4806 -1.1740
  194SOL    HW2 1199   5.841   4.927   0.257  2.9190  1.2509  0.1204
  195SOL     OW 1200   1.487   4.091   2.057  0.3988  0.4309  0.1725
  195SOL    HW1 1201   1.452   4.003   2.072  3.9825 -0.8746  2.2097
  195SOL    HW2 1202   1.450   4.144   2.128  1.3733 -0.5711  1.4872
  196SOL     OW 1203   7.106   3.155   4.972 -0.1169  0.2378  0.8388
  196SOL    HW1 1204   7.076   3.103   5.047 -0.7257 -0.1711  0.3241
  196SOL    HW2 1205   7.138   3.237   5.011 -0.2810 -0.0296  1.5552
  197SOL     OW 1206   4.574   5.154   7.210 -0.1128 -0.9258 -0.7058
  197SOL    HW1 1207   4.497   5.135   7.263  0.3650 -0.6370  0.0974
  197SOL    HW2 1208   4.546   5.134   7.120 -1.2417 -0.4535 -0.4759
  198SOL     OW 1209   1.650   0.798   3.650  0.0423 -0.1835 -0.5110
  198SOL    HW1 1210   1.710   0.758   3.587  0.9094  1.7253 -0.9606
  198SOL    HW2 1211   1.566   0.799   3.605  0.1070 -1.0743 -0.6630
  199SOL     OW 1212   0.586   0.510   2.706  0.1218 -0.2775 -0.3301
  199SOL    HW1 1213   0.650   0.524   2.637  1.1418  0.3590  0.6991
  199SOL    HW2 1214   0.609   0.575   2.773 -1.3809 -0.2774  0.2282
  200SOL     OW 1215   5.404   7.145   2.887 -0.3941  0.3489 -0.2047
  200SOL    HW1 1216   5.468   7.092   2.935 -0.7451  1.2013  1.2635
  200SOL    HW2 1217   5.419   7.122   2.795  0.9604 -0.6257  0.2171
  201SOL     OW 1218   6.635   1.765   0.090  0.2796 -0.1235  0.1226
  201SOL    HW1 1219   6.596   1.786   0.175  0.2135 -1.5358  0.4562
  201SOL    HW2 1220   6.584   1.816   0.027  0.2465  0.8405  0.8967
  202SOL     OW 1221   2.058   5.370   2.183  0.1784  0.5125 -0.2581
  202SOL    HW1 1222   1.985   5.308   2.183 -1.8048  2.7063 -0.3346
  202SOL    HW2 1223   2.075   5.389   2.091  0.3073  0.6064 -0.2168
  203SOL     OW 1224   5.326   2.178   4.411  0.2887 -0.2999 -1.5074
  203SOL    HW1 1225   5.390   2.235   4.454 -0.5380 -0.2722 -0.2530
  203SOL    HW2 1226   5.257   2.236   4.381 -1.5420 -0.6739  1.5093
  204SOL     OW 1227   6.532   0.154   4.311  0.3059  0.3066  0.3260
  204SOL    HW1 1228   6.463   0.113   4.363 -0.0024  0.8374  0.3403
  204SOL    HW2 1229   6.544   0.241   4.351  1.6353 -0.1206  0.9293
  205SOL     OW 1230   0.724   3.301   5.231 -0.0123  0.3158 -0.4310
  205SOL    HW1 1231   0.707   3.208   5.216  1.2594 -0.3463  1.7075
  205SOL    HW2 1232   0.815   3.303   5.261 -0.1196  2.2254 -0.1546
  206SOL     OW 1233   4.103   5.668   5.674 -0.3744  0.2649 -0.0087
  206SOL    HW1 1234   4.125   5.697   5.762 -1.4545 -0.5669  0.5483
  206SOL    HW2 1235   4.008   5.676   5.669 -0.2661  1.1331 -1.4081
  207SOL     OW 1236   4.304   5.715   2.364 -0.1290 -0.0257  0.1610
  207SOL    HW1 1237   4.342   5.632   2.392 -1.4446 -1.3119 -1.6447
  207SOL    HW2 1238   4.379   5.774   2.356  1.0659 -1.5200 -0.1234
  208SOL     OW 1239   5.796   4.012   3.601 -0.6401  0.0723  0.3365
  208SOL    HW1 1240   5.795   4.062   3.683  0.2205 -1.3451  1.2638
  208SOL    HW2 1241   5.872   4.045   3.554 -1.3228  1.1198 -0.0595
  209SOL     OW 1242   0.665   6.859   6.242  0.3959  0.8909 -0.6885
  209SOL    HW1 1243   0.721   6.807   6.301 -0.9238  0.3446  0.1422
  209SOL    HW2 1244   0.613   6.794   6.195 -0.0780  1.3995 -0.8820
  210SOL     OW 1245   3.677   3.260   1.156 -0.1664  0.3098  0.2520
  210SOL    HW1 1246   3.600   3.231   1.107  0.3360 -0.4658 -0.0988
  210SOL    HW2 1247   3.653   3.347   1.189 -1.3629 -0.1138  0.5450
  211SOL     OW 1248   4.822   1.986   0.308  0.2541  0.2335  0.5313
  211SOL    HW1 1249   4.884   2.021   0.245 -0.1641 -1.5287 -0.9452
  211SOL    HW2 1250   4.742   2.038   0.295  0.2961  0.1405 -0.1235
  212SOL     OW 1251   6.257   5.926   0.102  0.4590 -0.3250 -0.1986
  212SOL    HW1 1252   6.255   6.010   0.148 -1.0864 -0.0547 -0.7090
  212SOL    HW2 1253   6.220   5.863   0.164  1.7355 -0.6870  0.2320
  213SOL     OW 1254   1.739   0.119   1.915  0.5543  0.3808 -0.5185
  213SOL    HW1 1255   1.740   0.197   1.859  0.5333  1.7166  1.2436
  213SOL    HW2 1256   1.657   0.126   1.964  2.2665  1.4186  2.4532
  214SOL     OW 1257   2.776   2.248   3.748 -0.5516 -0.1810  0.4390
  214SOL    HW1 1258   2.707   2.299   3.788 -2.1682 -2.0222  0.1449
  214SOL    HW2 1259   2.820   2.205   3.822  1.2328  1.9693  0.7498
  215SOL     OW 1260   3.017   6.126   6.179  0.1156 -0.6228  0.1837
  215SOL    HW1 1261   3.042   6.175   6.101  1.4405 -0.6547  0.5610
  215SOL    HW2 1262   3.060   6.172   6.251  0.1621 -1.4761  0.7127
  216SOL     OW 1263   0.387   6.303   3.468 -0.5719  0.2096  0.1285
  216SOL    HW1 1264   0.329   6.254   3.527 -0.1800  0.2786  0.5774
  216SOL    HW2 1265   0.467   6.249   3.463 -0.8379 -0.1180 -0.8495
  217SOL     OW 1266   6.653   6.474   0.632  0.1492  0.0252 -0.6140
  217SOL    HW1 1267   6.708   6.480   0.710  0.4277  0.6215 -0.8546
  217SOL    HW2 1268   6.695   6.406   0.579 -0.0751 -0.4252 -0.2276
  218SOL     OW 1269   3.597   2.330   3.080 -0.1502  0.1165  0.0530
  218SOL    HW1 1270   3.584   2.238   3.105 -0.2870  0.8676  3.1860
  218SOL    HW2 1271   3.692   2.340   3.075 -0.1351 -0.5877 -2.3498
  219SOL     OW 1272   0.376   1.512   6.854 -0.0168 -0.0829 -0.3906
  219SOL    HW1 1273   0.294   1.464   6.845  0.4222 -0.8003 -0.6527
  219SOL    HW2 1274   0.420   1.472   6.929  0.8852 -0.9201 -1.3352
  220SOL     OW 1275   4.960   5.051   0.296  0.1146  0.1356 -0.3836
  220SOL    HW1 1276   4.948   5.115   0.366 -0.3631 -2.6807  2.3125
  220SOL    HW2 1277   5.046   5.012   0.312  1.7342  1.9082 -3.7277
  221SOL     OW 1278   1.172   0.582   0.022  0.2054  0.2007  0.3269
  221SOL    HW1 1279   1.266   0.571   0.012  0.1571  0.0702 -0.0091
  221SOL    HW2 1280   1.134   0.505  -0.021 -0.1460  1.5447 -1.9380
  222SOL     OW 1281   2.542   2.559   2.019 -0.2139  0.0033 -0.2032
  222SOL    HW1 1282   2.566   2.471   2.050  1.0704  0.6806  0.8586
  222SOL    HW2 1283   2.599   2.617   2.069 -2.4722  1.6047  0.6192
  223SOL     OW 1284   3.408   6.491   5.343 -0.0085 -0.2521 -0.0351
  223SOL    HW1 1285   3.331   6.435   5.351 -0.9862  0.7884 -1.5271
  223SOL    HW2 1286   3.483   6.432   5.354 -0.9723 -1.9879 -2.0938
  224SOL     OW 1287   0.425   3.528   2.233  0.5067 -0.1395 -0.0232
  224SOL    HW1 1288   0.501   3.475   2.208 -0.6899 -1.5250 -0.8955
  224SOL    HW2 1289   0.364   3.466   2.272  0.1197  1.0994  1.4430
  225SOL     OW 1290   2.648   4.403   1.770  0.5491 -0.5590 -0.5525
  225SOL    HW1 1291   2.683   4.433   1.686  0.8130 -0.2752 -0.3441
  225SOL    HW2 1292   2.617   4.483   1.813  0.4139 -0.7034 -0.3802
  226SOL     OW 1293   0.086   0.969   7.167  1.0715  0.1744 -0.2086
  226SOL    HW1 1294   0.085   0.964   7.263 -0.5402  1.2863 -0.1195
  226SOL    HW2 1295   0.031   0.896   7.139 -0.9158  1.5661 -0.1083
  227SOL     OW 1296   1.232   1.111   3.017  0.3367  0.0358  0.3464
  227SOL    HW1 1297   1.215   1.023   2.982 -1.6335 -0.4551  2.2661
  227SOL    HW2 1298   1.247   1.097   3.111  0.0293  1.7410  0.6905
  228SOL     OW 1299   3.544   6.497   0.370 -0.5853  0.0711  0.7415
  228SOL    HW1 1300   3.453   6.486   0.397 -0.7076  1.5280  0.9835
  228SOL    HW2 1301   3.595   6.452   0.438 -1.0178  1.5336  2.0883
  229SOL     OW 1302   1.869   5.168   2.181  0.0064  0.2058 -0.5969
  229SOL    HW1 1303   1.775   5.177   2.194  0.0595  0.3727 -0.3243
  229SOL    HW2 1304   1.883   5.074   2.168 -0.1392  0.1227 -0.1657
  230SOL     OW 1305   7.101   0.978   4.502  0.3910  0.2486  0.2827
  230SOL    HW1 1306   7.025   1.032   4.483  0.0715 -0.0105  0.7833
  230SOL    HW2 1307   7.116   0.990   4.596  0.5246 -0.2607  0.3293
  231SOL     OW 1308   2.545   0.132   7.112 -0.0244 -0.1799 -0.0983
  231SOL    HW1 1309   2.494   0.211   7.131  1.2250  0.3067  1.4739
  231SOL    HW2 1310   2.520   0.108   7.023 -1.5701  1.1086 -0.0487
  232SOL     OW 1311   4.136   2.846   1.606  0.2316 -0.8929  0.2732
  232SOL    HW1 1312   4.227   2.859   1.632  0.6139 -0.5582 -1.1515
  232SOL    HW2 1313   4.141   2.794   1.526 -0.6745  0.9583 -1.0706
  233SOL     OW 1314   5.117   3.239   2.758 -0.0655 -0.0676  0.0242
  233SOL    HW1 1315   5.137   3.231   2.665  0.7258 -0.5716  0.2306
  233SOL    HW2 1316   5.200   3.261   2.799 -0.8159  2.4907  0.3559
  234SOL     OW 1317   7.060   1.506   7.127 -0.5124  0.0565  0.0870
  234SOL    HW1 1318   6.993   1.537   7.189 -1.2481 -0.1489 -0.5854
  234SOL    HW2 1319   7.092   1.584   7.084 -0.6682  0.1077  0.0646
  235SOL     OW 1320   1.091   1.756   4.578 -0.2835 -0.0838  0.3701
  235SOL    HW1 1321   1.149   1.763   4.653 -1.0023  1.1066  0.8464
  235SOL    HW2 1322   1.011   1.801   4.605 -0.8830 -0.4013 -0.7923
  236SOL     OW 1323   4.158   3.210   7.095  0.1976  0.3481 -0.2730
  236SOL    HW1 1324   4.101   3.282   7.071 -1.4533 -0.7036  0.3349
  236SOL    HW2 1325   4.172   3.162   7.013 -2.4570 -1.1729  0.0408
  237SOL     OW 1326   4.786   5.759   2.493 -0.4401  0.3589 -0.0927
  237SOL    HW1 1327   4.747   5.675   2.469 -1.5407  0.3905  1.4000
  237SOL    HW2 1328   4.874   5.757   2.458 -0.0529 -1.9055  0.8818
  238SOL     OW 1329   6.278   7.203   0.716  0.1805  0.9042 -0.6366
  238SOL    HW1 1330   6.202   7.261   0.722 -0.2420  0.3131 -0.1667
  238SOL    HW2 1331   6.353   7.259   0.739 -0.3739  0.9491  1.2618
  239SOL     OW 1332   2.975   5.087   0.241 -0.7705 -0.2829  0.2614
  239SOL    HW1 1333   2.971   5.104   0.147  2.3512  0.1880  0.1151
  239SOL    HW2 1334   2.994   4.994   0.248 -0.4157 -0.1994  0.4084
  240SOL     OW 1335   3.456   6.868   3.643  0.1477  0.2061  0.0507
  240SOL    HW1 1336   3.475   6.775   3.658  1.6223  0.7427  1.9029
  240SOL    HW2 1337   3.533   6.901   3.596  1.6972  1.2847  3.0396
  241SOL     OW 1338   4.987   6.095   3.613 -0.4446  0.6090  0.1513
  241SOL    HW1 1339   5.028   6.040   3.545 -1.0030  2.1808 -1.5493
  241SOL    HW2 1340   4.899   6.058   3.623 -0.5438  0.6825 -0.4013
  242SOL     OW 1341   5.798   2.615   6.677 -0.0068  0.1295  0.1476
  242SOL    HW1 1342   5.814   2.692   6.732  0.3885 -0.6272  1.1016
  242SOL    HW2 1343   5.885   2.589   6.647 -0.2399  0.7294 -1.1481
  243SOL     OW 1344   6.258   1.252   2.738 -0.2700 -0.0420 -0.0426
  243SOL    HW1 1345   6.224   1.212   2.657 -1.0337  1.4941 -0.5173
  243SOL    HW2 1346   6.190   1.234   2.803 -0.2453 -0.1950 -0.0590
  244SOL     OW 1347   5.999   2.497   6.948  0.3549  0.0835  0.5594
  244SOL    HW1 1348   6.077   2.474   6.899 -1.0287 -0.6228 -1.4234
  244SOL    HW2 1349   5.994   2.432   7.018  1.8453  0.5255  1.1064
  245SOL     OW 1350   6.294   5.710   0.761 -0.2236  0.2973 -0.2868
  245SOL    HW1 1351   6.233   5.744   0.696 -1.1289  0.5936  0.6731
  245SOL    HW2 1352   6.285   5.769   0.836 -0.0507 -0.6595  0.5235
  246SOL     OW 1353   5.168   6.250   3.741  0.1935  0.2145  0.2519
  246SOL    HW1 1354   5.117   6.180   3.700  0.3772 -0.9148  1.8403
  246SOL    HW2 1355   5.123   6.330   3.715 -1.6898 -0.6727  0.5791
  247SOL     OW 1356   3.010   5.946   4.764 -0.1788  0.2076 -0.1101
  247SOL    HW1 1357   2.930   5.964   4.715  0.1827  0.7939 -0.4942
  247SOL    HW2 1358   3.058   5.885   4.708 -0.0553  0.3797 -0.1930
  248SOL     OW 1359   5.130   4.493   4.156 -0.2952  0.2269  0.1838
  248SOL    HW1 1360   5.135   4.414   4.209  0.4935  0.1338 -0.0184
  248SOL    HW2 1361   5.053   4.480   4.101 -0.4975 -0.1456  0.5507
  249SOL     OW 1362   0.381   2.059   1.073 -0.5413  0.1125 -0.2264
  249SOL    HW1 1363   0.333   1.987   1.031 -1.0342 -0.1010  0.6804
  249SOL    HW2 1364   0.472   2.032   1.070 -0.7101 -0.5063  0.0072
  250SOL     OW 1365   4.431   1.489   6.763  0.1211  0.4849  0.0815
  250SOL    HW1 1366   4.419   1.417   6.824  1.9679  1.0768  1.2408
  250SOL    HW2 1367   4.370   1.557   6.793 -0.1437  0.1731  0.2526
  251SOL     OW 1368   4.870   7.226   1.395 -0.3505 -0.2465 -0.4458
  251SOL    HW1 1369   4.821   7.308   1.395 -1.5782 -0.9518 -0.4443
  251SOL    HW2 1370   4.803   7.158   1.405  0.6201 -1.2641 -0.6320
  252SOL     OW 1371   6.827   2.526   2.745 -0.1604 -0.2766  0.0839
  252SOL    HW1 1372   6.900   2.553   2.690  0.0764 -1.0794 -0.0044
  252SOL    HW2 1373   6.761   2.493   2.684 -0.4564  0.1007  0.1913
  253SOL     OW 1374   4.190   3.274   2.471 -0.1973  0.0013  0.1613
  253SOL    HW1 1375   4.251   3.339   2.435 -1.2862 -0.2422 -2.3817
  253SOL    HW2 1376   4.103   3.313   2.458 -0.7197 -0.3794  2.1580
  254SOL     OW 1377   5.848   5.666   6.470 -0.3542 -0.2289  0.0646
  254SOL    HW1 1378   5.809   5.691   6.386  0.4952 -1.4723 -0.7497
  254SOL    HW2 1379   5.858   5.748   6.518  0.1006  0.6564 -1.4800
  255SOL     OW 1380   0.284   4.787   5.774 -0.3148 -0.7500 -0.5912
  255SOL    HW1 1381   0.245   4.715   5.724 -0.1987 -1.4137  0.2512
  255SOL    HW2 1382   0.285   4.861   5.713 -0.6739 -1.3885 -1.3874
  256SOL     OW 1383   0.524   3.857   6.657  0.0043 -0.8577  0.0979
  256SOL    HW1 1384   0.492   3.947   6.644  1.2332 -0.5697 -1.0950
  256SOL    HW2 1385   0.447   3.809   6.686 -0.5353  0.7266  1.5189
  257SOL     OW 1386   0.792   5.991   1.387  0.1493 -0.5867  0.3241
  257SOL    HW1 1387   0.709   5.989   1.434 -0.6784  1.1755 -0.9606
  257SOL    HW2 1388   0.856   6.019   1.453 -0.5460 -0.4084  0.9337
  258SOL     OW 1389   5.797   1.159   0.855 -0.1621 -0.3670 -0.1106
  258SOL    HW1 1390   5.779   1.170   0.761  2.1682  1.6679 -0.4354
  258SOL    HW2 1391   5.792   1.247   0.891 -1.3173 -1.1523  1.8161
  259SOL     OW 1392   6.587   0.021   4.746  0.2753  0.3886 -0.7494
  259SOL    HW1 1393   6.499   0.046   4.774  1.1243  2.3202  0.4195
  259SOL    HW2 1394   6.625   0.102   4.711  2.4044  0.3109  1.0959
  260SOL     OW 1395   3.467   5.135   4.425 -0.3062  0.1632 -0.4601
  260SOL    HW1 1396   3.536   5.124   4.491 -1.8153  1.4859  1.4631
  260SOL    HW2 1397   3.509   5.184   4.354  0.7888  0.8447  0.6250
  261SOL     OW 1398   0.660   4.876   2.617  0.1085  0.0325 -0.3418
  261SOL    HW1 1399   0.751   4.892   2.644  0.8134 -0.5932 -2.1707
  261SOL    HW2 1400   0.668   4.844   2.528 -1.9644  0.2683 -0.6425
  262SOL     OW 1401   6.743   1.001   2.861 -0.1694 -0.4724 -0.5763
  262SOL    HW1 1402   6.729   1.028   2.952  1.0964 -0.5977 -0.3317
  262SOL    HW2 1403   6.766   1.082   2.815  1.0232 -0.6810 -0.3840
  263SOL     OW 1404   1.548   6.820   3.841 -0.1583  0.0896 -0.0800
  263SOL    HW1 1405   1.499   6.796   3.762  2.1591 -1.5809 -1.1534
  263SOL    HW2 1406   1.578   6.737   3.877  2.6060  0.9829 -0.0616
  264SOL     OW 1407   6.057   1.418   3.637 -0.4286 -0.4492  0.0572
  264SOL    HW1 1408   6.041   1.469   3.558 -1.4349  1.4171  1.3742
  264SOL    HW2 1409   5.981   1.436   3.693  0.5790 -1.1212  1.7297
  265SOL     OW 1410   5.155   5.349   7.017 -0.4622  0.4121  0.1100
  265SOL    HW1 1411   5.081   5.351   7.078 -1.4807  1.4107 -1.0980
  265SOL    HW2 1412   5.149   5.263   6.975 -0.3219  0.0958  0.7258
  266SOL     OW 1413   3.699   5.986   6.545 -0.0722 -0.3490 -0.5799
  266SOL    HW1 1414   3.754   5.921   6.588  1.5217  0.4985 -1.2308
  266SOL    HW2 1415   3.752   6.017   6.472 -1.6963  0.0663 -1.6444
  267SOL     OW 1416   7.151   0.349   4.375 -0.0372  0.3716  0.3475
  267SOL    HW1 1417   7.200   0.266   4.381  1.8594  1.3407 -0.6435
  267SOL    HW2 1418   7.138   0.362   4.281 -0.2238  1.2416  0.4899
  268SOL     OW 1419   6.671   6.009   5.788  0.4548 -0.4607 -0.3726
  268SOL    HW1 1420   6.660   6.029   5.695 -1.2145 -0.0944 -0.1335
  268SOL    HW2 1421   6.585   6.026   5.826  0.6627 -2.1870  0.9577
  269SOL     OW 1422   5.231   7.218   3.106  0.4866 -0.0262  0.4781
  269SOL    HW1 1423   5.145   7.251   3.081  0.2059 -0.1705  1.2214
  269SOL    HW2 1424   5.272   7.192   3.024  0.2033  0.9542  0.0181
  270SOL     OW 1425   5.253   3.529   3.099  0.1068 -0.0263 -0.1249
  270SOL    HW1 1426   5.261   3.619   3.132 -0.5497  0.2408 -0.6725
  270SOL    HW2 1427   5.187   3.488   3.155  0.0507 -0.0171 -0.1837
  271SOL     OW 1428   1.152   6.665   2.412  0.3763  0.2564  0.1460
  271SOL    HW1 1429   1.200   6.690   2.492  1.0067 -0.2822 -0.0557
  271SOL    HW2 1430   1.185   6.726   2.346 -0.1700  0.7240  0.2941
  272SOL     OW 1431   0.805   2.023   5.259  0.3118  0.2775 -0.1061
  272SOL    HW1 1432   0.739   1.959   5.233 -0.1126  0.9184 -0.6371
  272SOL    HW2 1433   0.773   2.106   5.225 -0.5799  1.3139  2.9229
  273SOL     OW 1434   4.927   2.814   5.864 -0.5164  0.1004  0.0686
  273SOL    HW1 1435   4.988   2.886   5.875 -0.1866 -0.0734 -0.5870
  273SOL    HW2 1436   4.911   2.810   5.770  1.6331 -2.4130 -0.3220
  274SOL     OW 1437   5.142   4.933   1.390 -0.4382 -0.2910 -0.2571
  274SOL    HW1 1438   5.170   5.023   1.375  1.1639 -1.0835 -2.8004
  274SOL    HW2 1439   5.121   4.900   1.303 -2.6601 -1.9180  0.8094
  275SOL     OW 1440   6.371   4.360   6.469 -0.1152 -0.6264 -0.3097
  275SOL    HW1 1441   6.349   4.424   6.537 -1.3368 -0.8697 -0.4596
  275SOL    HW2 1442   6.344   4.401   6.387 -1.2529 -1.4610 -0.3721
  276SOL     OW 1443   6.341   1.926   3.128  0.0345  0.4562  0.1046
  276SOL    HW1 1444   6.428   1.965   3.136 -1.0332  2.7822  1.2482
  276SOL    HW2 1445   6.316   1.943   3.037  0.7848 -0.3688 -0.2802
  277SOL     OW 1446   7.094   6.359   5.334 -0.1623  0.0005  0.2612
  277SOL    HW1 1447   7.183   6.338   5.304 -0.8217  2.2779 -4.1864
  277SOL    HW2 1448   7.101   6.447   5.370 -0.7186  0.8146 -1.4963
  278SOL     OW 1449   4.073   7.094   0.700  0.1038  0.1860  0.1025
  278SOL    HW1 1450   4.047   7.101   0.608  3.4276  0.4118 -0.9486
  278SOL    HW2 1451   4.065   7.000   0.720 -1.1157  0.2050 -0.2118
  279SOL     OW 1452   0.303   0.097   2.855 -0.2958  0.1103 -0.1856
  279SOL    HW1 1453   0.368   0.153   2.898  0.3156  0.7153 -1.7992
  279SOL    HW2 1454   0.352   0.053   2.785 -1.4180 -0.1726 -0.8232
  280SOL     OW 1455   6.967   4.310   0.060 -0.2415  0.5373  0.3465
  280SOL    HW1 1456   7.016   4.363  -0.003 -0.5616  0.5398  0.0951
  280SOL    HW2 1457   6.910   4.373   0.104 -1.9297  0.1702 -1.1967
  281SOL     OW 1458   2.538   3.564   2.768 -0.0916  0.1611 -0.2844
  281SOL    HW1 1459   2.561   3.485   2.817 -1.2077  0.0956  0.1681
  281SOL    HW2 1460   2.442   3.565   2.768 -0.0976  1.0983 -0.9673
  282SOL     OW 1461   5.629   6.405   1.988 -0.2624 -0.1257 -0.0309
  282SOL    HW1 1462   5.660   6.365   1.907  0.8750  0.4039  0.1188
  282SOL    HW2 1463   5.606   6.331   2.044 -0.3099 -0.5113 -0.5523
  283SOL     OW 1464   3.156   2.903   4.868  0.5519 -0.0606  0.2746
  283SOL    HW1 1465   3.151   2.952   4.786  1.0727 -2.2147 -1.1152
  283SOL    HW2 1466   3.171   2.970   4.935  0.8731  1.6901 -1.4617
  284SOL     OW 1467   4.817   6.196   5.713 -0.3261 -0.1922  0.2907
  284SOL    HW1 1468   4.723   6.211   5.713 -0.1842  0.7679  0.2426
  284SOL    HW2 1469   4.851   6.259   5.649  0.3431 -0.5184  0.3225
  285SOL     OW 1470   5.217   6.812   6.558 -0.0547  0.4030  0.2125
  285SOL    HW1 1471   5.173   6.809   6.474  0.5145 -1.7964 -0.0792
  285SOL    HW2 1472   5.151   6.785   6.622  0.4656 -1.9221 -0.1063
  286SOL     OW 1473   1.850   4.381   4.878  0.0570 -0.4225 -0.2134
  286SOL    HW1 1474   1.796   4.437   4.934  0.8184  0.7732 -0.6268
  286SOL    HW2 1475   1.787   4.336   4.822 -0.5682  0.2847 -0.1013
  287SOL     OW 1476   1.974   1.004   7.225 -0.0998 -0.1432 -0.2985
  287SOL    HW1 1477   2.023   1.087   7.229 -4.0019  2.4184 -0.0249
  287SOL    HW2 1478   1.944   0.998   7.134 -1.8957  0.1575  0.2332
  288SOL     OW 1479   1.506   4.992   4.871  0.8136 -0.6701 -0.1217
  288SOL    HW1 1480   1.585   4.984   4.819  0.6649  3.0065 -1.1727
  288SOL    HW2 1481   1.537   5.022   4.957  0.6159  1.2049 -0.6683
  289SOL     OW 1482   2.023   3.249   0.349  0.0368 -0.3564  0.4966
  289SOL    HW1 1483   2.105   3.282   0.385 -0.6471  0.6644  1.1874
  289SOL    HW2 1484   2.018   3.158   0.377 -0.6131  0.4470  3.3753
  290SOL     OW 1485   4.371   4.917   5.230 -0.0646 -0.4218 -0.1432
  290SOL    HW1 1486   4.379   4.927   5.324 -0.8744  0.9559 -0.1934
  290SOL    HW2 1487   4.313   4.842   5.218 -1.9026  0.8327  0.5271
  291SOL     OW 1488   3.509   3.056   6.585  0.7210 -0.3196 -0.7787
  291SOL    HW1 1489   3.492   3.024   6.497 -0.2639 -2.3215  0.0645
  291SOL    HW2 1490   3.455   3.135   6.593  0.4491 -0.3915 -1.7815
  292SOL     OW 1491   0.816   7.219   1.203  0.0937 -0.0614  0.0768
  292SOL    HW1 1492   0.881   7.208   1.133 -0.0570 -1.2893  0.1099
  292SOL    HW2 1493   0.731   7.209   1.159 -0.0331  0.2429  0.2528
  293SOL     OW 1494   1.102   5.934   3.530 -0.6725  0.5631  0.4400
  293SOL    HW1 1495   1.188   5.910   3.564  0.0954  0.9266 -1.1772
  293SOL    HW2 1496   1.107   5.916   3.436 -2.0178  1.5603  0.1464
  294SOL     OW 1497   4.519   0.307   3.832  0.2636  0.1787  0.7456
  294SOL    HW1 1498   4.470   0.326   3.912  0.5154 -0.7362  1.1291
  294SOL    HW2 1499   4.607   0.284   3.862  0.4896  0.2691  0.1693
  295SOL     OW 1500   4.654   0.864   1.987 -0.0801 -0.5023  0.0624
  295SOL    HW1 1501   4.716   0.808   1.941 -0.3564  1.3458 -2.7706
  295SOL    HW2 1502   4.568   0.834   1.956 -0.3115  0.2857 -0.0705
  296SOL     OW 1503   1.398   5.890   2.583 -1.1195  0.2032 -0.6516
  296SOL    HW1 1504   1.462   5.846   2.527  0.7983  0.1197  1.4444
  296SOL    HW2 1505   1.384   5.974   2.542  1.9370  1.0472 -0.2541
  297SOL     OW 1506   5.540   5.873   4.568  0.7597 -0.5181 -0.0971
  297SOL    HW1 1507   5.524   5.915   4.483  1.5669  1.6447  0.7721
  297SOL    HW2 1508   5.456   5.876   4.612  0.0729 -2.5489 -1.1196
  298SOL     OW 1509   5.015   2.305   3.088  0.6630  0.2343  0.2975
  298SOL    HW1 1510   5.058   2.243   3.029  0.5622  1.6575 -1.3709
  298SOL    HW2 1511   5.013   2.261   3.173  0.5866 -2.0163 -0.8050
  299SOL     OW 1512   0.948   5.622   2.582 -0.4160  1.2064 -0.0765
  299SOL    HW1 1513   0.885   5.651   2.648 -0.8506  1.3091 -0.5328
  299SOL    HW2 1514   0.982   5.704   2.545 -2.3916  1.1907 -2.0834
  300SOL     OW 1515   5.418   3.192   4.346  0.1128 -0.0832  0.1179
  300SOL    HW1 1516   5.487   3.132   4.377  2.2699  1.9558 -0.4356
  300SOL    HW2 1517   5.445   3.216   4.258 -1.8859  0.0490 -0.4980
  301SOL     OW 1518   6.365   3.151   6.837 -0.0228  0.0549 -0.2254
  301SOL    HW1 1519   6.375   3.087   6.767 -3.0416  0.7726 -1.4771
  301SOL    HW2 1520   6.424   3.223   6.812  0.1595 -0.4018 -1.1647
  302SOL     OW 1521   4.609   0.846   6.656 -0.8632 -0.0260 -0.2151
  302SOL    HW1 1522   4.537   0.795   6.619 -0.6846  0.5628 -1.4267
  302SOL    HW2 1523   4.582   0.865   6.746 -3.1324  1.7750 -1.1602
  303SOL     OW 1524   4.830   6.631   5.656  0.6163  0.4799  0.2128
  303SOL    HW1 1525   4.820   6.705   5.715  1.0208  0.8978 -0.2351
  303SOL    HW2 1526   4.789   6.659   5.574  1.6078  0.5859 -0.2652
  304SOL     OW 1527   1.290   1.940   5.281 -0.0435 -0.1010  0.1153
  304SOL    HW1 1528   1.322   1.851   5.289  0.3144 -0.0323 -0.5204
  304SOL    HW2 1529   1.203   1.938   5.321  0.7562 -0.2620  1.9299
  305SOL     OW 1530   0.956   2.117   1.089 -0.1331 -0.0248 -0.1470
  305SOL    HW1 1531   0.900   2.098   1.014  0.2963  0.4591 -0.6006
  305SOL    HW2 1532   0.960   2.213   1.092  0.5094 -0.0531 -0.0035
  306SOL     OW 1533   6.161   1.484   5.818  0.2297 -0.4554 -0.2478
  306SOL    HW1 1534   6.242   1.513   5.777  0.0764 -0.8331 -0.8195
  306SOL    HW2 1535   6.128   1.414   5.762 -0.6047 -0.1692 -0.1342
  307SOL     OW 1536   4.926   3.903   5.318  0.2830 -0.1885  0.2990
  307SOL    HW1 1537   4.837   3.938   5.328 -0.7506 -1.8492 -2.2193
  307SOL    HW2 1538   4.976   3.976   5.280 -0.8183 -0.1315 -1.1320
  308SOL     OW 1539   3.185   3.820   1.664  0.4483  0.7515  0.4499
  308SOL    HW1 1540   3.200   3.881   1.736  0.6935  0.4000  0.6957
  308SOL    HW2 1541   3.260   3.761   1.666 -0.9601 -1.1031  1.7815
  309SOL     OW 1542   3.499   3.652   4.150 -0.2302 -0.4444  0.0723
  309SOL    HW1 1543   3.537   3.563   4.152 -0.9613 -0.7520  0.4821
  309SOL    HW2 1544   3.575   3.709   4.141  0.5495 -0.9377  2.5487
  310SOL     OW 1545   0.976   1.025   3.617 -0.3567  0.6153 -0.0754
  310SOL    HW1 1546   0.939   1.066   3.539 -1.5883  1.9496  1.1358
  310SOL    HW2 1547   0.900   1.009   3.674  0.5281 -0.0449  0.9662
  311SOL     OW 1548   4.426   1.752   3.591  0.1854 -0.1739  0.2009
  311SOL    HW1 1549   4.422   1.795   3.505 -0.2128 -1.6893 -0.5665
  311SOL    HW2 1550   4.345   1.779   3.634 -0.3690 -0.6537 -0.5210
  312SOL     OW 1551   4.079   3.923   6.317 -0.3450  0.2744 -0.2052
  312SOL    HW1 1552   4.116   3.973   6.244  0.7868 -1.9937 -1.2638
  312SOL    HW2 1553   4.011   3.869   6.278 -1.2875  0.6419  0.8524
  313SOL     OW 1554   2.360   4.938   6.147 -0.2363  0.1032  0.2717
  313SOL    HW1 1555   2.402   4.949   6.062  0.0192  1.0415  0.5119
  313SOL    HW2 1556   2.430   4.952   6.211 -0.5330 -0.1014  0.6515
  314SOL     OW 1557   3.134   4.770   3.970  0.1764  0.5717  0.3429
  314SOL    HW1 1558   3.161   4.847   3.920  4.7337  0.1199  1.6727
  314SOL    HW2 1559   3.125   4.701   3.904  0.4908  1.2308 -0.4058
  315SOL     OW 1560   4.609   6.718   0.427 -0.3985 -0.0809 -0.6445
  315SOL    HW1 1561   4.527   6.675   0.450  1.3101 -2.3321  1.7388
  315SOL    HW2 1562   4.629   6.774   0.502  0.6239 -0.1829 -0.8255
  316SOL     OW 1563   2.441   1.279   5.671  0.4132 -0.1398 -0.3080
  316SOL    HW1 1564   2.488   1.246   5.595  0.9621 -1.8833  0.7369
  316SOL    HW2 1565   2.452   1.211   5.738 -4.1259 -1.0137 -0.1461
  317SOL     OW 1566   6.354   0.028   4.971 -0.0600  0.0635 -0.1713
  317SOL    HW1 1567   6.286   0.095   4.985 -0.3915 -0.8220  3.3123
  317SOL    HW2 1568   6.422   0.049   5.036  0.9257 -1.6407 -0.5983
  318SOL     OW 1569   3.790   5.948   0.469 -0.3694 -0.3841  0.4454
  318SOL    HW1 1570   3.698   5.963   0.494 -0.8548 -1.1355 -0.7882
  318SOL    HW2 1571   3.785   5.926   0.376  1.0371 -0.8734  0.4795
  319SOL     OW 1572   4.986   3.331   1.618  0.3162 -0.4705 -0.1592
  319SOL    HW1 1573   4.899   3.350   1.582  1.1471 -1.0088 -2.7104
  319SOL    HW2 1574   5.027   3.417   1.628 -0.7017 -0.1659  1.7159
  320SOL     OW 1575   4.403   1.309   6.328 -0.1887  0.3114  0.4354
  320SOL    HW1 1576   4.410   1.214   6.329 -1.0442  0.2426  0.3668
  320SOL    HW2 1577   4.309   1.326   6.326 -0.0302  1.1473 -0.7948
  321SOL     OW 1578   0.269   3.919   4.347 -0.1199  0.2959  0.3854
  321SOL    HW1 1579   0.309   3.991   4.397 -0.4735  0.3487  0.6014
  321SOL    HW2 1580   0.175   3.926   4.367 -0.3923  0.9008 -1.0321
  322SOL     OW 1581   3.106   3.204   6.043  0.5099 -0.5783 -0.2213
  322SOL    HW1 1582   3.066   3.209   5.957  0.4107 -0.0948 -0.1490
  322SOL    HW2 1583   3.188   3.254   6.035  1.1614 -1.6428 -0.4005
  323SOL     OW 1584   5.580   4.962   5.614  0.4907  0.5785 -0.1212
  323SOL    HW1 1585   5.629   5.044   5.622 -0.6219  1.5059 -2.0810
  323SOL    HW2 1586   5.557   4.939   5.704  0.8524  2.4077  0.4853
  324SOL     OW 1587   1.121   2.363   6.368 -0.4188 -0.1170 -0.1427
  324SOL    HW1 1588   1.047   2.305   6.350 -0.9807  0.3680  0.5643
  324SOL    HW2 1589   1.090   2.421   6.437  0.0995  1.0835 -0.8836
  325SOL     OW 1590   0.028   5.235   4.249  0.6589 -0.1611  0.3014
  325SOL    HW1 1591  -0.005   5.315   4.207 -0.3053  0.3302  1.8883
  325SOL    HW2 1592   0.107   5.263   4.295  0.4060 -0.1506  0.7324
  326SOL     OW 1593   0.403   1.850   1.535  0.1485  0.4688 -0.3429
  326SOL    HW1 1594   0.366   1.868   1.621 -0.4668 -0.1941 -0.4706
  326SOL    HW2 1595   0.330   1.860   1.474 -0.6364 -3.5911 -0.3358
  327SOL     OW 1596   0.567   2.429   1.434 -0.1300 -0.8411 -0.0332
  327SOL    HW1 1597   0.586   2.522   1.440 -0.9904 -0.5255 -1.7098
  327SOL    HW2 1598   0.489   2.417   1.488 -1.8248  0.0334 -2.1440
  328SOL     OW 1599   6.280   2.922   4.522 -0.0520 -0.3122 -0.0953
  328SOL    HW1 1600   6.223   2.874   4.461 -1.1744  0.7568  0.0754
  328SOL    HW2 1601   6.251   3.013   4.515 -0.1345 -0.1463  1.9680
  329SOL     OW 1602   3.039   0.218   5.326 -0.0165  0.0892 -0.4885
  329SOL    HW1 1603   2.979   0.164   5.377  0.9562 -0.6908 -0.1270
  329SOL    HW2 1604   3.008   0.210   5.236  0.5021 -1.6838 -0.5584
  330SOL     OW 1605   0.736   0.191   5.124 -0.1917 -0.1815 -0.3622
  330SOL    HW1 1606   0.737   0.121   5.189  0.5269  0.3514  0.2138
  330SOL    HW2 1607   0.643   0.202   5.102 -0.5165  0.0130  1.0092
  331SOL     OW 1608   3.303   6.701   6.594  0.1119 -0.5470  0.3832
  331SOL    HW1 1609   3.234   6.749   6.548 -0.4987  0.7561  2.5191
  331SOL    HW2 1610   3.384   6.744   6.566 -0.0817 -0.8056 -0.6328
  332SOL     OW 1611   1.271   3.091   0.347 -0.5850 -0.2983  0.1738
  332SOL    HW1 1612   1.361   3.121   0.356 -0.6406  0.1294 -0.5579
  332SOL    HW2 1613   1.277   2.996   0.343 -0.3914 -0.4357  2.4343
  333SOL     OW 1614   2.720   2.712   2.156  0.4157 -0.6571  0.6900
  333SOL    HW1 1615   2.764   2.686   2.238 -0.7383 -1.9845  0.9331
  333SOL    HW2 1616   2.765   2.792   2.129  1.2359 -0.5310  2.2924
  334SOL     OW 1617   1.223   5.903   1.933  0.0797  0.1123 -0.1890
  334SOL    HW1 1618   1.211   5.824   1.985 -0.3077  0.2019 -0.1462
  334SOL    HW2 1619   1.315   5.927   1.947 -0.3982  1.0234  1.7079
  335SOL     OW 1620   7.049   1.007   2.155 -0.1504 -0.1380  0.4383
  335SOL    HW1 1621   6.958   0.992   2.131 -0.1585  0.3811  0.1404
  335SOL    HW2 1622   7.057   1.102   2.164  0.5216 -0.1217 -0.2090
  336SOL     OW 1623   4.994   2.374   3.710  0.3131 -0.6786  0.7666
  336SOL    HW1 1624   4.963   2.380   3.801 -1.5215  2.7308  0.0755
  336SOL    HW2 1625   4.913   2.371   3.658  1.2706  0.0388 -0.8265
  337SOL     OW 1626   0.011   4.915   0.152 -0.4664 -0.6461 -0.2838
  337SOL    HW1 1627  -0.033   4.992   0.116  0.8561 -0.4237 -1.5052
  337SOL    HW2 1628   0.048   4.945   0.235 -0.3776 -0.0936 -0.5197
  338SOL     OW 1629   2.906   4.231   5.375 -0.1565 -0.3777  0.0255
  338SOL    HW1 1630   2.988   4.238   5.327 -0.4418 -1.7164 -0.6846
  338SOL    HW2 1631   2.838   4.233   5.308 -0.6721 -0.1197  0.5423
  339SOL     OW 1632   6.938   0.351   0.100 -0.9700 -0.0315 -0.0771
  339SOL    HW1 1633   6.974   0.422   0.153  0.2737 -0.1287 -0.7300
  339SOL    HW2 1634   6.857   0.386   0.063 -2.4196 -0.3070  2.6420
  340SOL     OW 1635   6.874   2.438   4.106 -0.1964  0.1181  0.4056
  340SOL    HW1 1636   6.889   2.400   4.192  0.2152 -0.8080 -0.0543
  340SOL    HW2 1637   6.922   2.381   4.046 -2.3187 -0.5947 -0.7145
  341SOL     OW 1638   0.853   5.291   0.951 -0.0170 -0.0391 -0.2089
  341SOL    HW1 1639   0.862   5.274   0.857 -1.2221 -0.8676 -0.1932
  341SOL    HW2 1640   0.843   5.386   0.957  2.5799  0.3335 -0.6756
  342SOL     OW 1641   2.908   6.120   5.623  0.2871 -0.3795  0.2323
  342SOL    HW1 1642   2.823   6.161   5.641  0.3442  0.0262 -0.4013
  342SOL    HW2 1643   2.886   6.042   5.572  0.2912 -0.3425  0.1745
  343SOL     OW 1644   6.362   1.847   2.606 -0.4744 -0.2809  0.6359
  343SOL    HW1 1645   6.294   1.887   2.661  1.0635  1.4630  1.3719
  343SOL    HW2 1646   6.334   1.867   2.516 -0.7067  0.8769  0.9395
  344SOL     OW 1647   7.078   0.240   6.372  0.0155 -0.0830  0.5504
  344SOL    HW1 1648   7.071   0.229   6.277 -1.8291 -0.7098  0.7287
  344SOL    HW2 1649   7.095   0.333   6.384 -4.8894  1.1966 -0.2923
  345SOL     OW 1650   2.314   5.268   6.155 -0.3693  0.6066 -0.4046
  345SOL    HW1 1651   2.226   5.233   6.164 -0.4932  0.5745 -1.5607
  345SOL    HW2 1652   2.358   5.207   6.095  0.2572  0.9248 -0.2761
  346SOL     OW 1653   4.734   1.108   6.594  0.0932 -0.2824 -0.1921
  346SOL    HW1 1654   4.704   1.031   6.642 -0.2502  0.4379  0.7690
  346SOL    HW2 1655   4.655   1.143   6.553  0.1496 -0.1267 -0.1685
  347SOL     OW 1656   5.633   3.857   6.130  0.1105  0.3610 -0.6842
  347SOL    HW1 1657   5.543   3.825   6.117  0.6522 -1.9594  0.6432
  347SOL    HW2 1658   5.673   3.852   6.044 -0.5887 -0.1310 -0.9921
  348SOL     OW 1659   4.868   1.959   6.883  0.0528  0.2256 -0.1271
  348SOL    HW1 1660   4.919   1.885   6.915 -0.3961  0.6889  1.7934
  348SOL    HW2 1661   4.919   1.994   6.810  1.0676 -0.9881 -0.0287
  349SOL     OW 1662   1.586   0.143   4.152  0.2615 -0.1832  0.4693
  349SOL    HW1 1663   1.537   0.168   4.074  1.2156  0.3072  0.0145
  349SOL    HW2 1664   1.617   0.054   4.134  0.1811 -0.2047  0.4380
  350SOL     OW 1665   0.659   4.172   5.922  0.6521 -0.3029  0.2036
  350SOL    HW1 1666   0.681   4.261   5.949  0.8294 -0.1141 -0.5247
  350SOL    HW2 1667   0.722   4.151   5.853 -0.8157 -0.0989 -1.2914
  351SOL     OW 1668   0.283   4.437   1.562  0.1235  0.5784  0.2366
  351SOL    HW1 1669   0.246   4.352   1.538 -0.9056  0.8757  0.6996
  351SOL    HW2 1670   0.222   4.472   1.627  0.1602  1.9657 -0.4381
  352SOL     OW 1671   4.208   5.540   6.344 -0.5328 -0.2221 -0.4446
  352SOL    HW1 1672   4.115   5.557   6.363 -0.1930  1.5396 -0.2268
  352SOL    HW2 1673   4.216   5.445   6.351 -1.8491 -0.2497  1.7048
  353SOL     OW 1674   0.156   6.560   6.707 -0.1767 -0.3075 -0.2396
  353SOL    HW1 1675   0.223   6.620   6.673  0.9899 -0.6325  1.3870
  353SOL    HW2 1676   0.145   6.587   6.798  0.6104 -2.7424  0.6344
  354SOL     OW 1677   4.563   0.601   5.751 -0.0545 -0.2862 -0.0627
  354SOL    HW1 1678   4.590   0.607   5.659 -0.1189  0.1299 -0.0565
  354SOL    HW2 1679   4.635   0.554   5.794  0.7484  0.9325 -0.0160
  355SOL     OW 1680   6.358   5.152   5.673  0.0874 -0.4828  0.5635
  355SOL    HW1 1681   6.372   5.067   5.714 -0.7046 -0.1383  1.6114
  355SOL    HW2 1682   6.390   5.142   5.584 -0.0606 -1.8956  0.6527
  356SOL     OW 1683   7.118   5.088   1.038  0.2638  0.1055 -0.3582
  356SOL    HW1 1684   7.072   5.128   0.964  1.6977  1.0606 -0.7727
  356SOL    HW2 1685   7.132   5.159   1.100  0.2721 -0.3949  0.2301
  357SOL     OW 1686   5.997   6.605   7.013  1.0379 -0.3557  0.1434
  357SOL    HW1 1687   6.030   6.589   7.101 -1.4258 -0.7589  1.0492
  357SOL    HW2 1688   5.947   6.686   7.020  1.5822  0.1371 -1.1443
  358SOL     OW 1689   6.989   6.212   1.374  0.3682 -0.2860 -0.4927
  358SOL    HW1 1690   7.040   6.271   1.429  1.0303 -0.9975 -0.3188
  358SOL    HW2 1691   6.954   6.268   1.304  2.1533  0.0816 -1.1469
  359SOL     OW 1692   4.963   1.471   5.209  0.5827 -0.2051 -0.1141
  359SOL    HW1 1693   4.951   1.556   5.165 -0.0844  0.4176  1.2204
  359SOL    HW2 1694   4.999   1.414   5.141  1.0117  1.1335 -1.0486
  360SOL     OW 1695   4.636   0.540   0.188 -0.3886 -0.2470 -0.0629
  360SOL    HW1 1696   4.644   0.558   0.282 -1.9880 -1.9769  0.4634
  360SOL    HW2 1697   4.617   0.447   0.182  1.2513 -0.5340 -2.2517
  361SOL     OW 1698   2.232   7.051   1.551 -0.2096 -0.5358 -0.1905
  361SOL    HW1 1699   2.215   6.957   1.539 -1.9865 -0.3107  0.2303
  361SOL    HW2 1700   2.313   7.054   1.602 -0.1479 -1.8464 -0.1692
  362SOL     OW 1701   6.604   1.778   3.938  0.2201  0.2088  0.0167
  362SOL    HW1 1702   6.626   1.871   3.927  0.3131  0.1797 -0.0383
  362SOL    HW2 1703   6.508   1.776   3.937  0.1574 -0.0519 -3.0601
  363SOL     OW 1704   5.803   0.981   4.570 -0.3790 -0.1856  0.3158
  363SOL    HW1 1705   5.738   1.049   4.551 -0.1762 -0.2554 -0.6879
  363SOL    HW2 1706   5.769   0.936   4.647 -0.5706  0.9810  0.9414
  364SOL     OW 1707   3.408   3.323   0.816 -0.1663 -0.2248 -0.1604
  364SOL    HW1 1708   3.485   3.269   0.799 -0.2003 -0.8814  1.6241
  364SOL    HW2 1709   3.335   3.270   0.784 -0.1225 -0.8621  0.7812
  365SOL     OW 1710   2.690   4.576   4.807  0.3812  0.1999 -0.0051
  365SOL    HW1 1711   2.676   4.506   4.870  0.0888 -0.4906 -0.8188
  365SOL    HW2 1712   2.771   4.551   4.761  0.7974  0.8881  0.3380
  366SOL     OW 1713   2.255   6.657   5.896 -0.1862 -0.4071 -0.9148
  366SOL    HW1 1714   2.163   6.676   5.873  0.0857  1.3189 -0.7630
  366SOL    HW2 1715   2.297   6.743   5.897  2.1251 -1.3401 -3.8036
  367SOL     OW 1716   4.118   3.004   0.482 -0.2611 -0.3103 -0.6525
  367SOL    HW1 1717   4.109   2.970   0.393  2.5945 -1.6858 -0.5156
  367SOL    HW2 1718   4.212   3.020   0.492 -0.6218  0.6057  1.8571
  368SOL     OW 1719   1.812   6.186   3.145 -0.0115 -0.6324  0.6540
  368SOL    HW1 1720   1.734   6.206   3.196  0.5846  3.8497  0.1593
  368SOL    HW2 1721   1.779   6.134   3.071 -2.4670  0.5162  0.8215
  369SOL     OW 1722   2.300   4.568   3.000  0.3223  0.5328  0.2006
  369SOL    HW1 1723   2.286   4.593   2.908  0.6973 -0.8038 -0.2415
  369SOL    HW2 1724   2.213   4.574   3.040 -0.3955 -1.4252 -0.9202
  370SOL     OW 1725   0.493   6.250   6.679  0.1731  0.5905 -0.3886
  370SOL    HW1 1726   0.564   6.310   6.656 -0.2432  1.7116  1.1202
  370SOL    HW2 1727   0.465   6.213   6.595  1.1607  1.6916 -1.2304
  371SOL     OW 1728   2.250   0.405   6.618  0.3821 -0.4619 -0.5313
  371SOL    HW1 1729   2.273   0.410   6.525 -0.4347 -0.1370 -0.7222
  371SOL    HW2 1730   2.156   0.386   6.619  0.0209  1.1567  0.2106
  372SOL     OW 1731   5.613   6.064   6.411  0.1749 -0.1598  0.5400
  372SOL    HW1 1732   5.604   6.025   6.325 -2.5914  0.4093  0.5009
  372SOL    HW2 1733   5.708   6.062   6.428  0.8944  0.2710 -2.7247
  373SOL     OW 1734   0.070   0.348   2.624  0.3916 -0.6393 -0.5463
  373SOL    HW1 1735  -0.003   0.297   2.658  0.7839 -0.5960  0.4179
  373SOL    HW2 1736   0.037   0.389   2.545 -1.5596  1.5788  1.2500
  374SOL     OW 1737   3.599   3.370   6.292 -0.0334 -0.0682  0.1253
  374SOL    HW1 1738   3.558   3.327   6.217  0.9873 -1.5773  0.3795
  374SOL    HW2 1739   3.529   3.420   6.333 -1.3175 -1.5800 -0.1491
  375SOL     OW 1740   3.290   6.342   4.032  0.5400  0.2148 -0.0591
  375SOL    HW1 1741   3.213   6.399   4.031  0.4175  0.0939  0.9707
  375SOL    HW2 1742   3.289   6.299   3.947  2.0145  3.5272 -1.9278
  376SOL     OW 1743   5.267   4.888   5.109  0.0435 -0.2322 -0.0597
  376SOL    HW1 1744   5.273   4.822   5.040  0.0247  0.9246 -1.1986
  376SOL    HW2 1745   5.256   4.837   5.190  2.1406 -1.7054 -0.6022
  377SOL     OW 1746   2.632   6.835   0.312 -0.5971 -0.2218 -0.2735
  377SOL    HW1 1747   2.661   6.744   0.314 -0.5781 -0.2096  0.9650
  377SOL    HW2 1748   2.559   6.839   0.374  0.3586  0.8934  0.8395
  378SOL     OW 1749   3.553   0.537   3.424  0.1865 -0.3836  0.2279
  378SOL    HW1 1750   3.629   0.479   3.423 -0.8880 -1.8676 -0.2773
  378SOL    HW2 1751   3.557   0.582   3.508  2.0094  0.1514 -0.1044
  379SOL     OW 1752   2.948   2.414   2.586 -0.2734 -0.6000  0.4127
  379SOL    HW1 1753   2.979   2.368   2.664  1.8821 -0.0156 -0.0422
  379SOL    HW2 1754   3.027   2.430   2.534 -1.2153  1.7297 -0.4459
  380SOL     OW 1755   4.030   3.090   1.654  0.2214  0.1305 -0.0683
  380SOL    HW1 1756   4.042   3.081   1.749 -0.5917 -0.8290 -0.0350
  380SOL    HW2 1757   4.083   3.019   1.617 -0.5424 -0.3549 -0.2464
  381SOL     OW 1758   4.218   6.032   2.222 -0.4484 -0.1333 -0.0885
  381SOL    HW1 1759   4.195   5.940   2.232  0.4297 -0.3795 -0.1884
  381SOL    HW2 1760   4.145   6.080   2.259 -0.1507 -0.8938  1.5542
  382SOL     OW 1761   1.400   2.169   5.319  0.1714  0.3194 -0.2026
  382SOL    HW1 1762   1.347   2.185   5.396  0.6043  0.9609 -0.0297
  382SOL    HW2 1763   1.382   2.078   5.296 -1.0893  0.5578 -0.2301
  383SOL     OW 1764   4.558   6.177   1.553 -0.5196 -0.2981  0.1675
  383SOL    HW1 1765   4.562   6.085   1.524  0.1467 -0.2301  0.0291
  383SOL    HW2 1766   4.607   6.178   1.635 -0.4736 -0.0508  0.1369
  384SOL     OW 1767   3.915   6.889   3.637 -0.4272 -0.3503 -0.1533
  384SOL    HW1 1768   3.991   6.939   3.607 -0.3523 -0.9889 -1.0828
  384SOL    HW2 1769   3.938   6.797   3.618 -1.8164 -0.4888 -1.4046
  385SOL     OW 1770   4.478   4.921   3.553  0.4048  0.0150  0.7963
  385SOL    HW1 1771   4.507   4.833   3.529  0.2731 -0.2432  1.5529
  385SOL    HW2 1772   4.552   4.959   3.600  1.8436  1.6334 -2.4432
  386SOL     OW 1773   7.152   3.471   4.485  0.3539 -0.0441 -0.0800
  386SOL    HW1 1774   7.104   3.389   4.500  0.6386 -0.6788 -2.2944
  386SOL    HW2 1775   7.083   3.536   4.476  0.1069 -0.0951  1.1661
  387SOL     OW 1776   1.121   0.875   5.299 -0.4004 -0.0783  0.2083
  387SOL    HW1 1777   1.052   0.826   5.253  0.0219 -1.9549  1.4429
  387SOL    HW2 1778   1.076   0.951   5.336 -1.3155 -0.0534 -0.9172
  388SOL     OW 1779   0.321   0.462   2.452 -0.0270 -0.1775 -0.2058
  388SOL    HW1 1780   0.379   0.405   2.401  0.3669  1.0279 -1.1496
  388SOL    HW2 1781   0.376   0.534   2.481 -0.0234 -1.2279  2.7422
  389SOL     OW 1782   5.332   1.955   6.129  0.3685  0.4099  0.0798
  389SOL    HW1 1783   5.397   1.918   6.069  0.1743  1.5185 -0.8520
  389SOL    HW2 1784   5.332   1.895   6.204  1.4992 -0.3382 -0.4828
  390SOL     OW 1785   5.514   1.422   3.493 -0.2085  0.1992  0.2035
  390SOL    HW1 1786   5.463   1.348   3.525 -1.4296 -0.5858 -3.1567
  390SOL    HW2 1787   5.453   1.495   3.492 -1.2669 -0.5800 -3.1807
  391SOL     OW 1788   5.711   2.351   3.637  0.0478  0.1346 -0.0304
  391SOL    HW1 1789   5.644   2.352   3.705  0.5086  3.1987  0.4816
  391SOL    HW2 1790   5.773   2.283   3.665 -0.7766  0.0024  1.5371
  392SOL     OW 1791   2.967   0.076   0.680 -0.1390  0.2495 -0.2252
  392SOL    HW1 1792   2.942   0.167   0.700  1.7670  0.7157  0.2531
  392SOL    HW2 1793   3.031   0.085   0.609 -0.6951 -0.8223 -0.8825
  393SOL     OW 1794   4.330   0.705   4.434  0.1551  0.0917  0.0377
  393SOL    HW1 1795   4.346   0.737   4.345 -0.6779  2.6137  0.7035
  393SOL    HW2 1796   4.290   0.619   4.422  2.4389 -0.7996 -1.9081
  394SOL     OW 1797   0.051   1.070   1.916  0.3045 -0.0252  0.8639
  394SOL    HW1 1798   0.071   1.164   1.914 -0.8194  0.2236  0.3701
  394SOL    HW2 1799  -0.012   1.060   1.987 -1.0516 -0.0547 -0.2719
  395SOL     OW 1800   6.087   1.884   6.173  0.4196  0.2244  0.3691
  395SOL    HW1 1801   6.126   1.801   6.144  0.0034 -0.6112  2.0911
  395SOL    HW2 1802   6.050   1.922   6.093  1.5348 -0.7334 -0.6373
  396SOL     OW 1803   6.295   5.611   3.542  0.0994 -0.0518 -0.3295
  396SOL    HW1 1804   6.226   5.662   3.584  0.5774 -0.3376  0.8329
  396SOL    HW2 1805   6.256   5.524   3.529 -0.0979  0.0791 -0.6321
  397SOL     OW 1806   2.125   5.888   0.235  0.2647  0.6607  0.3512
  397SOL    HW1 1807   2.175   5.850   0.164  0.0420 -0.9766  1.0119
  397SOL    HW2 1808   2.133   5.983   0.224  3.2919  0.4814  0.2958
  398SOL     OW 1809   6.570   5.566   4.434  0.5664 -0.0503 -0.2621
  398SOL    HW1 1810   6.633   5.629   4.399 -0.2308  1.3026  0.6510
  398SOL    HW2 1811   6.490   5.617   4.446 -0.9289 -1.8741 -2.0024
  399SOL     OW 1812   0.775   4.174   3.205 -0.2270 -0.2215  0.7780
  399SOL    HW1 1813   0.794   4.234   3.132  1.3026 -1.8642 -0.2587
  399SOL    HW2 1814   0.808   4.220   3.283 -1.1474  1.2186  0.3447
  400SOL     OW 1815   4.314   3.230   1.145  0.4529 -0.1217 -0.1830
  400SOL    HW1 1816   4.366   3.200   1.220  1.5999 -0.7701 -1.2002
  400SOL    HW2 1817   4.288   3.150   1.100  0.2922  0.2786 -0.8096
  401SOL     OW 1818   6.551   5.668   3.950  0.0844  0.1258 -0.1734
  401SOL    HW1 1819   6.569   5.751   3.907  0.7418 -1.2278 -2.7219
  401SOL    HW2 1820   6.471   5.636   3.909  0.0672 -0.6837  0.4570
  402SOL     OW 1821   4.516   6.947   6.546  0.1145 -0.2366  0.5245
  402SOL    HW1 1822   4.531   7.010   6.617  1.1600  0.7389 -0.5067
  402SOL    HW2 1823   4.464   6.996   6.482 -1.6727 -1.4172  1.0110
  403SOL     OW 1824   5.730   2.191   0.310 -0.1057  0.4965 -0.2653
  403SOL    HW1 1825   5.799   2.162   0.370  0.8533 -0.2679 -1.6943
  403SOL    HW2 1826   5.668   2.238   0.366  2.1155  2.1899  0.9134
  404SOL     OW 1827   1.880   2.371   1.329 -0.5913  0.3897  0.6157
  404SOL    HW1 1828   1.918   2.313   1.396 -1.5756 -2.3306 -1.0220
  404SOL    HW2 1829   1.903   2.330   1.246 -1.6158  2.2366 -0.6458
  405SOL     OW 1830   2.058   1.279   7.187 -0.3132  0.2916 -0.1505
  405SOL    HW1 1831   1.994   1.350   7.179 -1.1022 -0.4093 -0.1848
  405SOL    HW2 1832   2.115   1.306   7.258 -0.9866  0.6728  0.2536
  406SOL     OW 1833   4.154   1.254   0.633  0.7632 -0.4573 -0.0640
  406SOL    HW1 1834   4.137   1.347   0.649  0.2059 -0.4897 -0.4268
  406SOL    HW2 1835   4.244   1.241   0.663  1.4080  0.5508 -1.4303
  407SOL     OW 1836   1.222   5.200   2.363  0.6961 -0.8356 -0.4973
  407SOL    HW1 1837   1.226   5.198   2.267  0.2108 -0.4729 -0.5266
  407SOL    HW2 1838   1.206   5.291   2.385 -2.1080 -1.3044 -0.2055
  408SOL     OW 1839   5.104   6.769   5.382 -0.4264 -0.3177  0.5094
  408SOL    HW1 1840   5.115   6.854   5.340 -0.6084 -0.5414 -0.0151
  408SOL    HW2 1841   5.121   6.784   5.474 -0.0924  0.2116  0.3624
  409SOL     OW 1842   4.960   2.366   6.387  0.0208  0.0173 -0.2311
  409SOL    HW1 1843   4.989   2.301   6.323  0.1757  0.7851 -0.9630
  409SOL    HW2 1844   5.009   2.445   6.364  0.2716  0.2374  1.0068
  410SOL     OW 1845   2.759   1.055   2.660 -0.2135 -0.2407  0.2132
  410SOL    HW1 1846   2.723   0.971   2.632  2.0217 -1.9470  2.0472
  410SOL    HW2 1847   2.683   1.106   2.688 -1.5431 -2.2423  0.4495
  411SOL     OW 1848   5.831   2.726   4.112  0.0475 -0.3049 -0.0359
  411SOL    HW1 1849   5.824   2.673   4.033 -1.1204 -0.2403  0.0083
  411SOL    HW2 1850   5.854   2.664   4.181 -1.9913 -0.9293  0.1580
  412SOL     OW 1851   6.017   4.268   5.470 -0.4524  0.3716 -0.5321
  412SOL    HW1 1852   6.041   4.228   5.386 -2.3662 -1.4658 -0.2912
  412SOL    HW2 1853   6.093   4.252   5.527 -0.9044 -2.7164 -0.5810
  413SOL     OW 1854   0.214   2.447   4.025 -0.1782  0.2166 -0.5590
  413SOL    HW1 1855   0.125   2.430   4.055  0.4422 -2.4564  0.0186
  413SOL    HW2 1856   0.270   2.417   4.097  1.2088 -0.2426 -1.7776
  414SOL     OW 1857   1.122   2.245   0.380  0.9523  0.0078 -0.2573
  414SOL    HW1 1858   1.039   2.257   0.334 -0.1180 -0.7365  1.3809
  414SOL    HW2 1859   1.170   2.180   0.328 -0.1986 -0.7924 -0.3372
  415SOL     OW 1860   5.048   1.757   1.294 -0.0704  0.8503 -0.0853
  415SOL    HW1 1861   5.106   1.689   1.261 -1.1909  0.7814 -2.1012
  415SOL    HW2 1862   4.980   1.709   1.341 -0.4373  0.5895 -0.8472
  416SOL     OW 1863   3.750   5.101   6.320 -0.1542  0.3480  0.2454
  416SOL    HW1 1864   3.660   5.116   6.347 -0.7252 -0.9658 -0.8540
  416SOL    HW2 1865   3.745   5.088   6.226  0.8350 -2.0875  0.4488
  417SOL     OW 1866   1.007   1.583   0.432 -0.1367  0.0602 -0.8178
  417SOL    HW1 1867   0.985   1.676   0.436 -1.0240 -0.1811  2.1176
  417SOL    HW2 1868   0.934   1.539   0.475  1.3721 -1.7694  0.0214
  418SOL     OW 1869   5.331   0.226   1.218 -0.3536  0.5739 -0.1821
  418SOL    HW1 1870   5.285   0.143   1.234  0.8853 -0.2491 -0.6694
  418SOL    HW2 1871   5.349   0.260   1.306 -2.3705  1.2419  0.0244
  419SOL     OW 1872   2.770   5.117   4.795  0.0246  0.2595  0.0255
  419SOL    HW1 1873   2.746   5.025   4.811  1.0016 -0.0825 -0.3464
  419SOL    HW2 1874   2.847   5.111   4.738  0.5415  1.2904  0.5856
  420SOL     OW 1875   1.599   0.971   2.264  0.1107 -0.1011 -0.0697
  420SOL    HW1 1876   1.667   1.036   2.244  0.9315 -0.3754  1.6315
  420SOL    HW2 1877   1.625   0.894   2.213  1.7395 -0.5543  1.3217
  421SOL     OW 1878   4.787   6.449   4.267 -0.1494 -0.4367 -0.4215
  421SOL    HW1 1879   4.716   6.473   4.207 -1.0065  1.3358  1.2133
  421SOL    HW2 1880   4.863   6.438   4.209 -0.9988  0.9196 -1.8940
  422SOL     OW 1881   6.431   2.681   6.408 -0.1056  0.3705  0.6242
  422SOL    HW1 1882   6.385   2.714   6.331 -0.6676  0.1286  0.8476
  422SOL    HW2 1883   6.498   2.746   6.427 -0.8518  1.1157  0.7429
  423SOL     OW 1884   5.423   6.921   6.936  0.0696 -0.4722 -0.1960
  423SOL    HW1 1885   5.457   6.967   6.859 -0.0356 -1.3913 -0.8027
  423SOL    HW2 1886   5.489   6.854   6.955 -0.4341 -0.9633 -0.1603
  424SOL     OW 1887   5.784   6.763   6.018  0.7230 -0.6022  0.3174
  424SOL    HW1 1888   5.870   6.790   6.050  0.7379  0.7301 -0.7712
  424SOL    HW2 1889   5.726   6.773   6.094  1.4816 -1.3808  1.0203
  425SOL     OW 1890   1.062   0.453   1.691  0.0903 -0.2419 -0.1347
  425SOL    HW1 1891   0.968   0.471   1.691  0.1140  0.0047 -1.5628
  425SOL    HW2 1892   1.095   0.496   1.770 -1.3665 -2.5487  1.8929
  426SOL     OW 1893   3.836   4.583   7.052 -0.4107  0.0427  0.0483
  426SOL    HW1 1894   3.849   4.598   6.958 -1.0832  1.0283  0.0965
  426SOL    HW2 1895   3.784   4.657   7.081 -0.7345 -0.5676  1.0878
  427SOL     OW 1896   1.314   6.340   4.857  0.1295 -0.2208 -0.0400
  427SOL    HW1 1897   1.376   6.268   4.842  0.0198 -0.1823 -0.7213
  427SOL    HW2 1898   1.356   6.395   4.923 -0.1371 -1.3317  1.0986
  428SOL     OW 1899   2.984   0.334   2.721  0.1928  0.8671 -0.0870
  428SOL    HW1 1900   3.045   0.400   2.755  0.3445 -0.2829  2.0247
  428SOL    HW2 1901   3.038   0.256   2.710 -1.1066 -0.8146  3.8167
  429SOL     OW 1902   5.856   4.331   3.180  0.4578 -0.0903  0.0488
  429SOL    HW1 1903   5.866   4.317   3.086  2.1739 -3.1686  0.5320
  429SOL    HW2 1904   5.939   4.373   3.207  0.3984 -0.1486  0.3280
  430SOL     OW 1905   1.040   4.994   3.965 -0.0213  0.1765  0.2035
  430SOL    HW1 1906   1.105   4.947   4.018  0.5352  1.3915  0.6489
  430SOL    HW2 1907   1.032   5.079   4.007  1.1723  1.5805 -2.1918
  431SOL     OW 1908   3.772   5.062   3.101  0.5973  0.3255  0.2141
  431SOL    HW1 1909   3.818   5.134   3.058  0.4248 -0.9387 -2.2355
  431SOL    HW2 1910   3.719   5.022   3.032  0.7303 -2.1861  1.4546
  432SOL     OW 1911   3.227   6.365   3.403 -0.6736 -0.2438 -0.1938
  432SOL    HW1 1912   3.300   6.303   3.410  0.3348  0.9698  0.4171
  432SOL    HW2 1913   3.152   6.311   3.381  0.3541 -1.5710 -0.5745
  433SOL     OW 1914   7.161   2.978   0.790  0.2166  0.0133 -0.7183
  433SOL    HW1 1915   7.097   2.993   0.860  0.1848  0.0403 -0.7534
  433SOL    HW2 1916   7.237   2.942   0.836  1.0448  2.1207 -0.3281
  434SOL     OW 1917   4.816   1.445   4.846  0.3868  0.3516 -0.8916
  434SOL    HW1 1918   4.725   1.423   4.866  0.3725  0.6110 -0.6582
  434SOL    HW2 1919   4.828   1.533   4.884  0.6587  0.4239 -1.1442
  435SOL     OW 1920   0.128   2.206   1.614 -0.2383 -0.4502 -0.7779
  435SOL    HW1 1921   0.198   2.189   1.551  0.1563  0.7368 -0.6977
  435SOL    HW2 1922   0.158   2.167   1.695  0.5412  0.4021 -0.6418
  436SOL     OW 1923   2.504   3.085   0.637 -0.1571 -0.0585  0.5114
  436SOL    HW1 1924   2.510   3.176   0.609 -0.2243 -0.2033  0.0238
  436SOL    HW2 1925   2.428   3.084   0.696 -0.2768  0.1613  0.3639
  437SOL     OW 1926   5.090   6.848   1.851  0.2646  0.1340 -0.5023
  437SOL    HW1 1927   5.031   6.827   1.924  1.1625  1.2395  0.5789
  437SOL    HW2 1928   5.175   6.812   1.878  0.4043 -0.3133 -1.4704
  438SOL     OW 1929   2.766   4.884   5.138  0.0062  0.0862  0.3417
  438SOL    HW1 1930   2.750   4.959   5.194  0.1871  0.6394 -0.3303
  438SOL    HW2 1931   2.687   4.877   5.084  0.2303  0.1618 -0.0009
  439SOL     OW 1932   7.220   5.339   6.600 -0.4498  0.2825 -0.3249
  439SOL    HW1 1933   7.140   5.287   6.586 -1.1056  0.9414  0.8230
  439SOL    HW2 1934   7.284   5.299   6.542 -1.5874 -0.3171 -1.2293
  440SOL     OW 1935   0.922   0.087   2.814  0.0384 -0.6369  0.0519
  440SOL    HW1 1936   1.004   0.113   2.855 -1.2800 -0.2555  2.6304
  440SOL    HW2 1937   0.937  -0.002   2.783  1.4335 -0.5214  0.3516
  441SOL     OW 1938   5.615   6.652   0.659 -0.6458  0.1321  0.0192
  441SOL    HW1 1939   5.534   6.635   0.611  0.1025  0.0103 -1.2465
  441SOL    HW2 1940   5.644   6.566   0.689 -1.2432  0.2372  0.9275
  442SOL     OW 1941   5.709   7.126   2.739 -0.2629  0.2071  0.3276
  442SOL    HW1 1942   5.701   7.222   2.738  0.0836  0.2304 -0.3081
  442SOL    HW2 1943   5.745   7.106   2.825  0.3853  0.7079  0.1762
  443SOL     OW 1944   4.384   0.687   2.243  0.1702  0.5258  0.4331
  443SOL    HW1 1945   4.325   0.618   2.273  1.6811 -0.1213  2.0963
  443SOL    HW2 1946   4.360   0.701   2.151 -0.6337 -1.7040  0.2444
  444SOL     OW 1947   5.695   3.348   2.500 -0.5674 -0.0623 -0.1707
  444SOL    HW1 1948   5.627   3.333   2.566  1.0182 -1.7107  1.1899
  444SOL    HW2 1949   5.691   3.271   2.444  1.7341 -1.4990  1.4525
  445SOL     OW 1950   1.896   0.079   6.985 -0.5660 -0.3783  0.6233
  445SOL    HW1 1951   1.926   0.077   6.894 -0.2520 -0.9530  0.7363
  445SOL    HW2 1952   1.965   0.127   7.031 -1.3367  1.0527  0.3518
  446SOL     OW 1953   0.472   2.981   2.045  0.0393 -0.0538 -0.1764
  446SOL    HW1 1954   0.453   3.003   2.136 -0.6722 -1.8491  0.1499
  446SOL    HW2 1955   0.396   3.013   1.996 -0.0154  0.0880  0.0028
  447SOL     OW 1956   3.598   3.368   4.296 -0.5186 -0.1853  0.5652
  447SOL    HW1 1957   3.628   3.342   4.209 -0.1555  1.5141  0.1492
  447SOL    HW2 1958   3.504   3.353   4.294 -0.5012 -0.2392 -0.0932
  448SOL     OW 1959   1.334   6.256   1.529  0.2565 -0.4630  0.3749
  448SOL    HW1 1960   1.270   6.324   1.512  0.5439 -0.2383  0.1993
  448SOL    HW2 1961   1.319   6.191   1.460 -0.2207 -0.7287  0.7209
  449SOL     OW 1962   1.774   0.337   7.216  0.2010  0.0515  0.3461
  449SOL    HW1 1963   1.744   0.256   7.257 -2.4434  0.8134  0.0810
  449SOL    HW2 1964   1.757   0.325   7.123  1.8841  0.1112 -0.0109
  450SOL     OW 1965   7.156   2.367   3.526  0.5131  0.0923  0.3636
  450SOL    HW1 1966   7.077   2.418   3.540  0.2658  1.1156 -3.5836
  450SOL    HW2 1967   7.228   2.430   3.531  1.1342 -0.7207  3.3088
  451SOL     OW 1968   4.866   1.224   2.632 -0.2007  0.0065 -0.0716
  451SOL    HW1 1969   4.809   1.296   2.659 -1.3118 -0.9543  0.2389
  451SOL    HW2 1970   4.807   1.162   2.589  0.7619 -0.6536 -0.4734
  452SOL     OW 1971   7.196   6.109   5.141 -0.0510 -0.1342 -0.3527
  452SOL    HW1 1972   7.114   6.059   5.140 -0.8405  1.0127 -2.8422
  452SOL    HW2 1973   7.258   6.053   5.186 -1.8309 -1.7149  0.2682
  453SOL     OW 1974   6.481   5.494   3.101 -0.1464  0.0637  0.1445
  453SOL    HW1 1975   6.528   5.455   3.027 -1.7713 -0.6339 -0.5660
  453SOL    HW2 1976   6.492   5.431   3.172 -0.7536 -0.5567 -0.2951
  454SOL     OW 1977   3.622   3.475   2.351  0.5547  0.3833  0.1033
  454SOL    HW1 1978   3.702   3.526   2.356  1.0226 -0.2884 -0.3354
  454SOL    HW2 1979   3.552   3.536   2.375  1.1567  1.0712  0.1188
  455SOL     OW 1980   6.787   2.288   3.790  0.5043  0.4416 -0.7966
  455SOL    HW1 1981   6.818   2.215   3.842 -0.4531 -0.4264 -1.3932
  455SOL    HW2 1982   6.750   2.248   3.711  0.7964  1.6271 -1.5780
  456SOL     OW 1983   1.717   6.508   6.122 -0.4101 -0.4268 -0.2897
  456SOL    HW1 1984   1.661   6.452   6.068  0.8585 -1.8687 -0.2027
  456SOL    HW2 1985   1.784   6.540   6.061  1.0647 -2.1101  0.3507
  457SOL     OW 1986   1.372   0.958   3.898 -0.0125 -0.4569  0.2160
  457SOL    HW1 1987   1.447   0.912   3.935 -0.6467 -1.2857  0.5081
  457SOL    HW2 1988   1.296   0.906   3.925 -0.5938 -0.3704 -1.1744
  458SOL     OW 1989   4.669   6.361   0.121  0.1309 -0.0714 -0.0476
  458SOL    HW1 1990   4.758   6.349   0.088  0.5538 -2.9359  1.8243
  458SOL    HW2 1991   4.680   6.415   0.199  0.2055 -0.2599  0.0728
  459SOL     OW 1992   5.532   3.659   7.224  0.4656 -0.0881 -0.6252
  459SOL    HW1 1993   5.458   3.697   7.177 -0.0267  0.1116  0.2802
  459SOL    HW2 1994   5.586   3.619   7.156 -0.7967 -0.7868 -1.2499
  460SOL     OW 1995   3.789   2.054   0.886  0.6197  0.6670 -0.4079
  460SOL    HW1 1996   3.701   2.030   0.917  0.8114 -1.0643 -1.0867
  460SOL    HW2 1997   3.825   2.109   0.955  0.5826 -2.0448  1.9425
  461SOL     OW 1998   3.204   7.068   6.079  0.6484 -0.2122  0.4090
  461SOL    HW1 1999   3.157   7.150   6.066  0.5458  0.1629  2.7537
  461SOL    HW2 2000   3.275   7.070   6.014 -0.8547  0.4889 -1.3011
  462SOL     OW 2001   7.110   6.818   4.149 -0.7110  0.3785  0.3518
  462SOL    HW1 2002   7.050   6.886   4.179 -0.5849  0.5565  0.2006
  462SOL    HW2 2003   7.160   6.859   4.078 -1.0529 -0.0560 -0.1468
  463SOL     OW 2004   7.085   1.774   2.818 -0.0784 -0.7358 -0.0576
  463SOL    HW1 2005   6.996   1.765   2.785  0.1562 -3.5604 -0.1362
  463SOL    HW2 2006   7.076   1.766   2.913  0.1956 -3.0474 -0.1647
  464SOL     OW 2007   3.286   7.042   3.781 -0.4525  0.2776  0.3612
  464SOL    HW1 2008   3.348   6.977   3.747 -0.9533 -0.6812  1.2286
  464SOL    HW2 2009   3.298   7.118   3.724  1.0082 -0.1309  0.0614
  465SOL     OW 2010   4.780   6.442   2.954  0.8587 -0.3523 -0.1857
  465SOL    HW1 2011   4.756   6.527   2.918  1.2025  0.2711  1.0120
  465SOL    HW2 2012   4.723   6.380   2.908  1.5427  0.3266 -2.0661
  466SOL     OW 2013   1.542   1.368   6.545  0.0387 -0.0097 -0.5231
  466SOL    HW1 2014   1.470   1.413   6.500 -1.6470 -0.2707  1.7680
  466SOL    HW2 2015   1.591   1.439   6.588  0.7939  0.0961 -1.5065
  467SOL     OW 2016   3.427   3.181   3.102 -0.2303  0.0784  0.2105
  467SOL    HW1 2017   3.479   3.252   3.139  0.1119  0.6023 -1.2436
  467SOL    HW2 2018   3.380   3.145   3.177 -0.9672  2.2847  0.8809
  468SOL     OW 2019   2.596   1.615   6.233 -0.4918  0.3100 -0.1688
  468SOL    HW1 2020   2.571   1.614   6.140  1.3389  1.2714 -0.7171
  468SOL    HW2 2021   2.602   1.708   6.255  1.1553  0.1201  0.3033
  469SOL     OW 2022   2.012   6.407   1.325  0.0299  0.0679 -0.3960
  469SOL    HW1 2023   2.080   6.340   1.323  1.4130  1.3547  0.8038
  469SOL    HW2 2024   1.990   6.423   1.233  0.1570 -1.5016 -0.7278
  470SOL     OW 2025   6.901   6.275   2.990  0.3389 -0.3557 -0.2124
  470SOL    HW1 2026   6.906   6.365   2.957 -3.3032  0.0799 -0.0391
  470SOL    HW2 2027   6.888   6.221   2.911 -3.0218  0.0598 -0.0906
  471SOL     OW 2028   5.265   0.211   4.594  0.0333  0.4096  0.3217
  471SOL    HW1 2029   5.359   0.226   4.601  0.0885  1.6535 -1.9725
  471SOL    HW2 2030   5.256   0.121   4.563  0.6384  1.0342 -1.7885
  472SOL     OW 2031   5.738   5.778   5.129  0.1963 -0.3633  0.5247
  472SOL    HW1 2032   5.677   5.731   5.187 -0.8236  0.0677 -0.1634
  472SOL    HW2 2033   5.818   5.726   5.131  0.0842 -0.5231  2.0799
  473SOL     OW 2034   3.136   6.387   1.559 -0.7727 -0.3758 -0.0038
  473SOL    HW1 2035   3.214   6.345   1.522 -0.2943 -0.5031  1.1162
  473SOL    HW2 2036   3.161   6.408   1.649 -1.9779 -0.2604  0.3102
  474SOL     OW 2037   4.426   1.919   5.775  0.3147  0.1535  0.2526
  474SOL    HW1 2038   4.408   1.825   5.770 -0.0268  0.1870  0.7607
  474SOL    HW2 2039   4.466   1.931   5.861 -3.5833  1.0731  2.1783
  475SOL     OW 2040   5.577   4.453   6.519  0.0935 -0.8524 -0.4341
  475SOL    HW1 2041   5.559   4.438   6.612  0.5506 -0.9464 -0.3539
  475SOL    HW2 2042   5.646   4.519   6.519 -0.6099 -0.1026 -0.7402
  476SOL     OW 2043   3.390   1.857   5.261  0.6837 -0.3030 -0.1558
  476SOL    HW1 2044   3.304   1.833   5.295  0.4310 -0.0270 -0.5880
  476SOL    HW2 2045   3.444   1.779   5.274  0.9563  0.1724  2.0073
  477SOL     OW 2046   6.875   0.316   4.459  0.1269 -0.3661 -0.3954
  477SOL    HW1 2047   6.949   0.310   4.399  0.3005 -0.6583 -0.1513
  477SOL    HW2 2048   6.854   0.409   4.461  0.7877 -0.2173 -0.1009
  478SOL     OW 2049   2.492   1.170   4.917  0.2205  0.1138 -0.0264
  478SOL    HW1 2050   2.454   1.128   4.840  1.9877  0.1645 -0.9657
  478SOL    HW2 2051   2.483   1.105   4.986 -0.3469 -0.3756 -0.5447
  479SOL     OW 2052   5.583   3.914   3.456  0.2464  0.2243  0.3075
  479SOL    HW1 2053   5.527   3.989   3.477 -0.1232 -0.0632  0.3628
  479SOL    HW2 2054   5.672   3.948   3.465  0.1896  1.6941 -3.1945
  480SOL     OW 2055   3.224   6.494   3.644 -0.6629 -0.3016 -0.2254
  480SOL    HW1 2056   3.163   6.441   3.696  0.4319 -2.0943 -0.6868
  480SOL    HW2 2057   3.216   6.460   3.555  1.1912 -0.8031 -0.2402
  481SOL     OW 2058   2.207   0.915   3.629  0.1549  0.3644  0.2775
  481SOL    HW1 2059   2.139   0.935   3.694 -1.4263 -1.5066 -0.6819
  481SOL    HW2 2060   2.284   0.893   3.681 -1.3062 -1.9256  1.6325
  482SOL     OW 2061   5.070   0.645   1.948  0.2743  0.4415  0.3404
  482SOL    HW1 2062   5.149   0.596   1.925 -0.8561 -0.8549 -0.9065
  482SOL    HW2 2063   5.024   0.588   2.010 -0.1958  0.7092  0.2399
  483SOL     OW 2064   3.014   0.147   1.165  0.1390  0.1024 -0.1925
  483SOL    HW1 2065   3.004   0.200   1.086 -0.0267 -1.9585 -1.6634
  483SOL    HW2 2066   3.106   0.119   1.163  0.2634  0.4413  0.6344
  484SOL     OW 2067   3.423   2.897   5.831 -0.1620 -0.1345  0.5588
  484SOL    HW1 2068   3.342   2.914   5.880  1.4277  1.8359  2.7344
  484SOL    HW2 2069   3.493   2.906   5.896  2.0293  1.5143 -1.8257
  485SOL     OW 2070   0.689   2.342   0.278 -0.2209 -0.3739  0.3164
  485SOL    HW1 2071   0.673   2.253   0.246 -0.6831 -0.5755  1.0890
  485SOL    HW2 2072   0.775   2.365   0.244 -0.0242 -1.1790  0.2627
  486SOL     OW 2073   3.535   3.738   2.075 -0.3449 -0.4302  0.5259
  486SOL    HW1 2074   3.527   3.773   2.163  1.1770  0.4339  0.3403
  486SOL    HW2 2075   3.615   3.685   2.077  1.6854  2.3318 -1.1472
  487SOL     OW 2076   4.158   5.449   0.601  0.2177 -0.5008  0.0616
  487SOL    HW1 2077   4.164   5.512   0.530  0.6423  0.3384  0.8273
  487SOL    HW2 2078   4.181   5.365   0.560 -0.4947 -0.2032 -0.9911
  488SOL     OW 2079   6.841   5.255   2.331  0.5455  0.7879  0.6395
  488SOL    HW1 2080   6.821   5.204   2.410  1.7488  1.5119  1.4513
  488SOL    HW2 2081   6.871   5.189   2.268  0.5564  0.3043  1.1372
  489SOL     OW 2082   6.174   5.037   1.114 -0.0586  0.1610  0.4172
  489SOL    HW1 2083   6.186   5.106   1.179  0.5582 -1.1482  1.7538
  489SOL    HW2 2084   6.095   4.990   1.143 -1.3119  1.1055 -1.2699
  490SOL     OW 2085   1.618   4.823   6.186 -0.3158  0.7318 -0.1458
  490SOL    HW1 2086   1.530   4.790   6.170 -0.5325  0.8746  0.7359
  490SOL    HW2 2087   1.651   4.845   6.099 -0.7366 -0.3531 -0.5998
  491SOL     OW 2088   6.980   1.612   4.431  0.1507 -0.1861 -0.3353
  491SOL    HW1 2089   7.034   1.595   4.353  0.7012 -1.4075  0.2820
  491SOL    HW2 2090   6.906   1.551   4.422  0.3544 -0.5199  0.2208
  492SOL     OW 2091   1.756   0.689   4.648 -0.2276  0.1292  0.4607
  492SOL    HW1 2092   1.742   0.720   4.737  1.2498  2.1637  0.0516
  492SOL    HW2 2093   1.720   0.600   4.647 -1.0012  0.3685  2.8381
  493SOL     OW 2094   6.997   6.672   7.035 -0.1937  0.2386  0.1627
  493SOL    HW1 2095   6.945   6.709   7.106  1.6827  1.7251  0.8520
  493SOL    HW2 2096   7.074   6.728   7.030  0.8775 -1.2676 -1.4697
  494SOL     OW 2097   6.001   4.341   6.609  0.0511  0.6844 -0.3602
  494SOL    HW1 2098   5.935   4.274   6.624  0.5754  0.4824  1.2596
  494SOL    HW2 2099   5.983   4.408   6.675  2.5784 -0.2895  1.4937
  495SOL     OW 2100   4.243   4.333   2.019  0.2109  0.4453  0.0118
  495SOL    HW1 2101   4.288   4.250   2.005  0.1644  0.6198 -1.2418
  495SOL    HW2 2102   4.175   4.313   2.084 -0.9380 -0.9283 -1.5395
  496SOL     OW 2103   3.981   4.586   5.327 -0.0606 -0.3492  0.0865
  496SOL    HW1 2104   3.932   4.639   5.264 -2.3370 -0.3254  1.7551
  496SOL    HW2 2105   3.979   4.498   5.291 -2.6462 -0.6362  0.6936
  497SOL     OW 2106   1.720   3.012   0.536  0.7253 -0.4269  0.0871
  497SOL    HW1 2107   1.800   3.051   0.502  0.5344 -0.7675 -0.7783
  497SOL    HW2 2108   1.737   2.999   0.629  0.7283  1.9403  0.4964
  498SOL     OW 2109   4.026   0.241   3.034 -0.0748 -0.5833  0.2385
  498SOL    HW1 2110   4.099   0.302   3.031 -0.0369 -0.6448 -0.3806
  498SOL    HW2 2111   3.964   0.278   3.097 -0.5213  0.6339 -0.8829
  499SOL     OW 2112   4.145   5.161   3.050 -0.4819 -0.1693 -0.3270
  499SOL    HW1 2113   4.129   5.248   3.085 -0.0846  0.6661 -2.1009
  499SOL    HW2 2114   4.087   5.104   3.100 -0.9131  1.1274  0.7168
  500SOL     OW 2115   7.208   4.647   3.507 -0.2424  0.5940  0.2108
  500SOL    HW1 2116   7.151   4.717   3.538  1.8273  2.4403  0.0483
  500SOL    HW2 2117   7.230   4.672   3.417  0.5168 -0.2787  0.1383
  501SOL     OW 2118   3.691   3.783   1.087  0.2414 -0.3934 -0.1332
  501SOL    HW1 2119   3.769   3.837   1.100  0.2726 -0.5455  0.3175
  501SOL    HW2 2120   3.691   3.763   0.993 -0.6586  1.7603 -0.6530
  502SOL     OW 2121   5.413   0.675   0.047 -0.5920  0.7384  0.3502
  502SOL    HW1 2122   5.438   0.608   0.110 -0.7054  0.5847  0.2312
  502SOL    HW2 2123   5.365   0.628  -0.021 -0.1080  0.8321 -0.0662
  503SOL     OW 2124   3.838   7.115   5.799  0.0917  0.0650  0.0404
  503SOL    HW1 2125   3.906   7.048   5.810  0.7012  0.7461  0.4792
  503SOL    HW2 2126   3.856   7.178   5.869  1.4776  2.3830 -2.2486
  504SOL     OW 2127   4.881   6.484   0.611 -0.0904  0.6683 -0.1150
  504SOL    HW1 2128   4.832   6.495   0.693  1.3152 -2.7353  1.3961
  504SOL    HW2 2129   4.940   6.559   0.608  0.2946  0.5905  2.4629
  505SOL     OW 2130   1.899   7.204   1.518  0.7596 -0.3887  0.0441
  505SOL    HW1 2131   1.827   7.266   1.522 -0.3422 -1.6419  0.2939
  505SOL    HW2 2132   1.895   7.167   1.430  1.8773  0.3941 -0.3662
  506SOL     OW 2133   5.114   7.095   2.558  0.2851  0.4363  0.3813
  506SOL    HW1 2134   5.122   7.017   2.614  3.6068  0.8607  0.7459
  506SOL    HW2 2135   5.072   7.064   2.478  0.3047 -1.4126  1.0473
  507SOL     OW 2136   3.539   4.547   3.047  0.1305  0.1555 -0.1484
  507SOL    HW1 2137   3.584   4.601   2.982  2.2880 -0.0370  1.1037
  507SOL    HW2 2138   3.467   4.506   2.998  0.6388  1.3122 -1.9772
  508SOL     OW 2139   5.777   6.067   2.329  0.4266  0.3907 -0.2787
  508SOL    HW1 2140   5.840   6.080   2.257  0.7641 -0.8223 -0.2344
  508SOL    HW2 2141   5.830   6.075   2.408  0.7372 -1.4168 -0.2548
  509SOL     OW 2142   0.778   5.808   6.615 -0.8505  0.1397 -0.0720
  509SOL    HW1 2143   0.872   5.822   6.623 -0.5992 -1.6153  0.3863
  509SOL    HW2 2144   0.756   5.748   6.686 -2.4705  1.0828  0.2926
  510SOL     OW 2145   1.945   2.704   4.196 -0.2280  0.0834  0.4462
  510SOL    HW1 2146   1.874   2.765   4.174  0.0277  0.2458  0.0651
  510SOL    HW2 2147   1.952   2.647   4.120 -0.1002 -0.0774  0.5782
  511SOL     OW 2148   3.377   0.817   4.598 -0.1593  1.1993  0.2095
  511SOL    HW1 2149   3.306   0.811   4.534 -1.1140  0.7055  1.2812
  511SOL    HW2 2150   3.434   0.886   4.564 -1.2941  1.8026 -0.5387
  512SOL     OW 2151   5.120   1.936   5.010 -0.4434 -0.2115  0.2725
  512SOL    HW1 2152   5.099   1.891   5.092 -1.5619  1.6881  1.0881
  512SOL    HW2 2153   5.140   2.026   5.035  0.8522  0.0221 -1.3876
  513SOL     OW 2154   2.990   1.165   3.751  0.2339  0.5838  0.9853
  513SOL    HW1 2155   2.964   1.226   3.821 -0.2498  1.8393 -0.2330
  513SOL    HW2 2156   2.914   1.108   3.740  0.9397 -0.7681  2.6019
  514SOL     OW 2157   2.422   5.985   2.076  0.3650 -0.3109 -0.6233
  514SOL    HW1 2158   2.509   5.949   2.090  0.3472  0.1532  0.7476
  514SOL    HW2 2159   2.366   5.940   2.139  0.0388  0.9685  0.0208
  515SOL     OW 2160   3.905   3.914   4.818 -0.1533  0.1143  0.0090
  515SOL    HW1 2161   3.822   3.874   4.792 -0.8317  0.9233  0.8562
  515SOL    HW2 2162   3.972   3.862   4.773 -0.9538 -2.1917  1.3108
  516SOL     OW 2163   0.152   4.111   6.353 -0.0776  0.3286 -0.0484
  516SOL    HW1 2164   0.066   4.145   6.332  0.0642  1.0274  0.4690
  516SOL    HW2 2165   0.197   4.183   6.396  1.0848  0.2775 -1.1116
  517SOL     OW 2166   5.310   1.821   0.789  0.0590  0.2933  0.0473
  517SOL    HW1 2167   5.223   1.796   0.759  0.1942  0.7886 -0.7797
  517SOL    HW2 2168   5.331   1.901   0.740  0.6477  0.6286  0.8239
  518SOL     OW 2169   2.629   0.584   5.353  0.4708  0.1204 -0.0846
  518SOL    HW1 2170   2.592   0.672   5.345  3.3814  1.3184 -2.2797
  518SOL    HW2 2171   2.565   0.527   5.308 -0.0410  1.6256 -1.3754
  519SOL     OW 2172   5.465   2.626   2.997  0.0595  0.3386 -0.0887
  519SOL    HW1 2173   5.452   2.717   2.972 -1.7192  0.5601  1.3990
  519SOL    HW2 2174   5.551   2.625   3.039  0.0249  1.3856  0.0454
  520SOL     OW 2175   1.965   1.358   1.109 -0.0561 -0.3660  0.4993
  520SOL    HW1 2176   1.949   1.451   1.098  0.0653 -0.2220  1.5316
  520SOL    HW2 2177   1.878   1.320   1.121 -0.2918 -0.6498 -1.5900
  521SOL     OW 2178   3.662   6.135   4.815  0.6758  0.7147  0.4586
  521SOL    HW1 2179   3.722   6.104   4.748  1.0592  0.6573  0.8280
  521SOL    HW2 2180   3.718   6.163   4.888  0.2651  0.7364  0.7745
  522SOL     OW 2181   2.537   0.458   3.039 -0.3859 -0.0378  0.2590
  522SOL    HW1 2182   2.458   0.408   3.061  0.2648 -2.1461 -1.8780
  522SOL    HW2 2183   2.604   0.392   3.022  1.9178  1.6904  1.9667
  523SOL     OW 2184   4.876   0.870   1.096  0.6824  0.9048 -0.2252
  523SOL    HW1 2185   4.844   0.835   1.179 -0.4514  1.0893 -0.5589
  523SOL    HW2 2186   4.971   0.861   1.100  0.5506 -0.2603  0.5579
  524SOL     OW 2187   0.516   6.633   4.674  0.2787 -0.9043 -0.7786
  524SOL    HW1 2188   0.602   6.655   4.710 -0.3036 -1.7103  1.2702
  524SOL    HW2 2189   0.535   6.587   4.592  1.9501 -3.0237  0.6746
  525SOL     OW 2190   4.395   0.847   3.956  0.4117  0.1352  0.0245
  525SOL    HW1 2191   4.471   0.811   3.910  1.0240  0.0314  1.0782
  525SOL    HW2 2192   4.432   0.910   4.018 -0.4601  0.8831 -0.1947
  526SOL     OW 2193   4.945   3.722   0.289 -0.0086  0.6754 -0.0983
  526SOL    HW1 2194   5.036   3.694   0.293  0.8030  2.9483 -1.4617
  526SOL    HW2 2195   4.940   3.799   0.346 -1.8888 -1.1820  2.5188
  527SOL     OW 2196   1.654   4.135   2.844 -0.0071 -0.2157  0.0126
  527SOL    HW1 2197   1.643   4.181   2.761  0.2732 -2.4124 -1.3520
  527SOL    HW2 2198   1.573   4.085   2.855 -0.6330  1.0949  1.8439
  528SOL     OW 2199   3.718   3.469   5.764  0.3137  0.1614  0.2786
  528SOL    HW1 2200   3.705   3.443   5.673  0.7399  0.3988  0.1509
  528SOL    HW2 2201   3.662   3.546   5.775  0.9167  0.6525 -0.0277
  529SOL     OW 2202   1.424   1.424   1.476  0.7724 -0.2756  0.4392
  529SOL    HW1 2203   1.483   1.465   1.413  0.1892 -1.5184 -0.9651
  529SOL    HW2 2204   1.474   1.353   1.514  0.5741 -0.5964  0.1077
  530SOL     OW 2205   6.110   0.405   0.330 -0.0447 -0.0189 -0.5719
  530SOL    HW1 2206   6.129   0.393   0.423 -1.9576  1.3575  0.0703
  530SOL    HW2 2207   6.196   0.417   0.289  0.7684  0.8523  1.2684
  531SOL     OW 2208   3.882   2.308   6.027  0.0727 -0.2161 -0.5146
  531SOL    HW1 2209   3.843   2.254   6.095  0.5313 -0.8765 -0.7625
  531SOL    HW2 2210   3.973   2.320   6.055  0.0675  0.1343 -0.6405
  532SOL     OW 2211   0.500   3.701   7.101 -0.1828  0.1987 -0.5520
  532SOL    HW1 2212   0.424   3.644   7.085 -0.1286  0.0479 -0.2842
  532SOL    HW2 2213   0.556   3.688   7.024 -0.1342 -0.1725 -0.4562
  533SOL     OW 2214   5.660   2.775   6.037 -0.3391 -0.2499  0.1437
  533SOL    HW1 2215   5.679   2.865   6.012 -0.4830 -0.2074  0.1832
  533SOL    HW2 2216   5.643   2.729   5.955  0.0380 -0.3135  0.1006
  534SOL     OW 2217   3.073   6.010   1.945  0.4993  0.6232  0.3109
  534SOL    HW1 2218   3.141   6.077   1.949  1.7170 -0.5772  0.1089
  534SOL    HW2 2219   3.032   6.023   1.859  1.4934  0.3951 -0.2101
  535SOL     OW 2220   0.398   4.998   7.223  0.4361 -0.0895  0.3668
  535SOL    HW1 2221   0.404   5.093   7.215 -0.7100 -0.0886 -1.0836
  535SOL    HW2 2222   0.461   4.965   7.159  0.1113 -0.2856  0.1459
  536SOL     OW 2223   4.741   2.463   0.926 -0.1908  0.0765 -0.4152
  536SOL    HW1 2224   4.738   2.558   0.921  0.4345  0.1881  1.0375
  536SOL    HW2 2225   4.661   2.438   0.972 -0.5017 -0.1393 -1.0531
  537SOL     OW 2226   3.445   3.805   1.816 -0.1427 -0.3378  0.0938
  537SOL    HW1 2227   3.475   3.755   1.892 -1.9920 -3.0922 -0.8287
  537SOL    HW2 2228   3.369   3.855   1.848  1.8643  2.3179  1.0828
  538SOL     OW 2229   1.606   5.213   2.163 -0.2788 -0.4748  0.0749
  538SOL    HW1 2230   1.533   5.263   2.126 -0.4850  0.0569  1.1523
  538SOL    HW2 2231   1.581   5.198   2.254  1.3532  0.5253  0.7316
  539SOL     OW 2232   1.853   5.450   5.182  0.0202 -0.3927 -0.1647
  539SOL    HW1 2233   1.890   5.438   5.095 -0.7227 -0.2567 -0.5052
  539SOL    HW2 2234   1.795   5.526   5.174 -0.3889 -0.6434  0.3365
  540SOL     OW 2235   0.461   3.934   6.373 -0.7271  0.0057  0.2842
  540SOL    HW1 2236   0.522   3.970   6.309  0.5734 -0.8664  0.9867
  540SOL    HW2 2237   0.467   3.994   6.448 -0.6687 -0.1200  0.3813
  541SOL     OW 2238   1.626   2.920   2.163 -0.3073  0.5380  0.3603
  541SOL    HW1 2239   1.628   2.852   2.231 -2.0742 -1.3634 -1.3566
  541SOL    HW2 2240   1.707   2.906   2.113 -1.5931 -1.8192 -1.2486
  542SOL     OW 2241   5.064   0.918   0.830 -0.0858  0.5816 -0.3192
  542SOL    HW1 2242   4.997   0.976   0.865  1.8024  0.6592  3.8334
  542SOL    HW2 2243   5.147   0.958   0.858  1.4751 -1.8254 -1.1699
  543SOL     OW 2244   1.319   6.451   2.350 -0.4541 -0.1256  0.1366
  543SOL    HW1 2245   1.260   6.525   2.366  0.5416  1.1907 -1.9461
  543SOL    HW2 2246   1.380   6.453   2.424 -0.3478  1.2564  0.0426
  544SOL     OW 2247   1.474   6.915   4.862  0.4535  0.3072 -0.6184
  544SOL    HW1 2248   1.424   6.903   4.781 -1.1126 -1.0765  0.4870
  544SOL    HW2 2249   1.441   6.997   4.899 -0.6751 -0.3150 -0.1771
  545SOL     OW 2250   5.401   2.569   4.079 -0.7412 -0.6152 -0.2036
  545SOL    HW1 2251   5.318   2.538   4.042 -2.0165 -0.9827  2.6765
  545SOL    HW2 2252   5.429   2.498   4.138  1.4046 -0.2718 -0.7147
  546SOL     OW 2253   5.765   4.365   5.408  0.3461  0.6217  0.2454
  546SOL    HW1 2254   5.701   4.338   5.474 -0.4880  1.3372 -0.2564
  546SOL    HW2 2255   5.848   4.330   5.440 -0.4042 -0.9949  0.5148
  547SOL     OW 2256   1.987   6.015   6.672 -0.0998 -0.0035  0.6362
  547SOL    HW1 2257   1.926   6.088   6.678 -0.5298 -0.4051  1.2516
  547SOL    HW2 2258   1.963   5.957   6.744  0.0891 -0.8602  0.0338
  548SOL     OW 2259   2.770   6.958   0.799  1.1702  0.3728 -0.2486
  548SOL    HW1 2260   2.776   6.889   0.865 -0.6562 -0.3071 -0.7294
  548SOL    HW2 2261   2.833   7.024   0.827  0.9018 -0.1900  1.8289
  549SOL     OW 2262   0.398   4.193   6.883  0.5462 -0.2615  0.7564
  549SOL    HW1 2263   0.475   4.137   6.884  1.0691  0.4419  1.5579
  549SOL    HW2 2264   0.380   4.211   6.975  0.6634  1.2127  0.5245
  550SOL     OW 2265   3.202   2.013   0.044  0.1073 -0.2805 -0.1699
  550SOL    HW1 2266   3.263   2.003  -0.030 -1.6253 -0.9785 -1.5981
  550SOL    HW2 2267   3.258   2.017   0.121  2.0163  0.6940 -1.5291
  551SOL     OW 2268   3.762   6.524   5.008  0.6492  0.4565  0.2911
  551SOL    HW1 2269   3.777   6.452   5.069  2.7651  1.2192  0.7587
  551SOL    HW2 2270   3.676   6.560   5.034  0.9353 -0.0071  2.0205
  552SOL     OW 2271   3.554   0.282   2.073  0.1347  0.3147  0.1877
  552SOL    HW1 2272   3.604   0.213   2.028  1.1554  2.1854 -1.7049
  552SOL    HW2 2273   3.619   0.329   2.125 -0.5003  0.0657  1.2325
  553SOL     OW 2274   2.931   3.537   1.115 -0.8522  0.1181 -0.5707
  553SOL    HW1 2275   2.935   3.459   1.059  0.8822  0.2320 -0.6645
  553SOL    HW2 2276   2.900   3.504   1.199  1.2001 -0.9875 -0.1829
  554SOL     OW 2277   0.143   0.973   6.723 -0.2562  0.0775  0.4549
  554SOL    HW1 2278   0.061   1.001   6.684 -0.0946  0.5481  0.4422
  554SOL    HW2 2279   0.207   0.979   6.652 -0.2845 -0.6754  0.3580
  555SOL     OW 2280   2.286   3.057   3.950  0.1011 -0.6220  0.1176
  555SOL    HW1 2281   2.331   3.116   4.011  0.7435  0.5478 -1.4222
  555SOL    HW2 2282   2.222   3.010   4.004  0.6305  0.3813  1.6710
  556SOL     OW 2283   1.640   2.613   5.893  0.1965  0.5759  0.4179
  556SOL    HW1 2284   1.550   2.643   5.882 -0.2931 -1.2046 -0.7786
  556SOL    HW2 2285   1.690   2.661   5.828 -0.4231 -0.4488 -0.8683
  557SOL     OW 2286   2.487   0.492   5.102 -0.2773 -0.1496 -0.4383
  557SOL    HW1 2287   2.573   0.463   5.071 -0.1955 -0.5926  0.1881
  557SOL    HW2 2288   2.438   0.411   5.115 -0.8250  0.1045 -0.8710
  558SOL     OW 2289   1.769   4.676   4.825 -0.1790  0.6803  0.2582
  558SOL    HW1 2290   1.781   4.627   4.743  0.1530  0.8774  0.1887
  558SOL    HW2 2291   1.836   4.641   4.884 -1.2854 -0.4459  0.9159
  559SOL     OW 2292   5.562   2.641   3.869  0.1933 -0.0232 -0.0391
  559SOL    HW1 2293   5.523   2.595   3.943  0.4394 -1.3473 -0.7190
  559SOL    HW2 2294   5.654   2.613   3.869 -0.0386 -0.8588 -1.4530
  560SOL     OW 2295   0.257   0.825   3.074  0.2426 -0.1655 -0.0404
  560SOL    HW1 2296   0.346   0.848   3.048  0.5147  0.0518  1.0589
  560SOL    HW2 2297   0.208   0.907   3.071  0.1905 -0.2005 -0.1778
  561SOL     OW 2298   2.515   3.245   7.005  0.1477 -0.7931 -0.0953
  561SOL    HW1 2299   2.500   3.308   6.935  0.6208 -1.3152 -0.6768
  561SOL    HW2 2300   2.598   3.272   7.044  0.2908 -0.9769 -0.2677
  562SOL     OW 2301   2.641   5.462   3.294  0.2604  0.8754 -0.3721
  562SOL    HW1 2302   2.580   5.390   3.275  0.2161  0.4274  1.3539
  562SOL    HW2 2303   2.654   5.458   3.388  0.8089  2.7212 -0.3410
  563SOL     OW 2304   5.276   6.873   5.073  0.0672 -0.7367 -0.2717
  563SOL    HW1 2305   5.225   6.889   5.152  1.3031  1.1748  0.2205
  563SOL    HW2 2306   5.343   6.943   5.074  0.5444 -1.0963 -2.6291
  564SOL     OW 2307   3.453   0.120   2.812 -0.0029  0.1146 -0.1251
  564SOL    HW1 2308   3.494   0.113   2.899  2.0519 -0.1405 -1.0505
  564SOL    HW2 2309   3.527   0.131   2.752 -1.2652 -1.2804 -2.0239
  565SOL     OW 2310   5.123   2.623   6.032 -0.1018 -0.1954 -0.6284
  565SOL    HW1 2311   5.031   2.611   6.054 -0.0630  1.1089  0.4088
  565SOL    HW2 2312   5.127   2.707   5.987  0.8252  0.9601  1.4499
  566SOL     OW 2313   7.043   3.401   3.334 -0.5717  0.1815 -0.1424
  566SOL    HW1 2314   7.039   3.337   3.263  0.9828 -0.7297  0.5342
  566SOL    HW2 2315   6.998   3.358   3.407 -0.1374  0.1349  0.1027
  567SOL     OW 2316   5.591   0.392   2.921 -0.4636  0.7380 -0.6226
  567SOL    HW1 2317   5.518   0.331   2.914 -0.4673  0.8931 -2.1942
  567SOL    HW2 2318   5.565   0.454   2.989 -0.3683 -1.0954  1.1869
  568SOL     OW 2319   6.712   4.912   2.980 -0.1473  0.2963 -0.8381
  568SOL    HW1 2320   6.619   4.933   2.988  0.1184  1.0338  0.9799
  568SOL    HW2 2321   6.741   4.959   2.902 -0.7987  2.1727 -0.0216
  569SOL     OW 2322   2.334   3.896   1.209  0.1546  0.6767 -0.1645
  569SOL    HW1 2323   2.366   3.917   1.121  0.4285  1.9892  0.2284
  569SOL    HW2 2324   2.404   3.843   1.247  0.4308  0.8447 -0.4288
  570SOL     OW 2325   4.192   6.775   6.404 -0.1967  0.0774 -0.2174
  570SOL    HW1 2326   4.115   6.819   6.368 -0.4853 -0.8709 -0.8225
  570SOL    HW2 2327   4.178   6.776   6.498 -0.2613  1.1455 -0.2334
  571SOL     OW 2328   3.877   0.576   5.900  0.0628 -0.4803  0.2306
  571SOL    HW1 2329   3.808   0.520   5.936 -0.6061 -0.4654 -0.9870
  571SOL    HW2 2330   3.831   0.645   5.854  0.8874 -0.3603 -0.4515
  572SOL     OW 2331   4.358   1.112   0.373  0.1539 -0.0316 -0.0370
  572SOL    HW1 2332   4.285   1.122   0.434  0.2416  0.2109  0.0324
  572SOL    HW2 2333   4.435   1.106   0.429  0.1165 -1.0238 -0.0856
  573SOL     OW 2334   4.600   5.720   4.624 -0.0650  0.3160 -0.1267
  573SOL    HW1 2335   4.684   5.761   4.602  1.0240 -1.0034  1.3973
  573SOL    HW2 2336   4.623   5.634   4.658 -2.1724 -0.7543 -1.2172
  574SOL     OW 2337   5.896   1.769   3.656  0.4306 -0.0929 -0.2444
  574SOL    HW1 2338   5.908   1.826   3.732  0.9603 -1.0839  0.4347
  574SOL    HW2 2339   5.802   1.749   3.655  0.4332 -0.1331  0.1938
  575SOL     OW 2340   3.244   3.398   5.063 -0.1854 -0.4998 -0.3047
  575SOL    HW1 2341   3.223   3.305   5.052  1.6448 -1.1326  1.0191
  575SOL    HW2 2342   3.246   3.433   4.974  0.9682 -2.2124 -1.0189
  576SOL     OW 2343   3.336   2.593   1.785  0.4307 -0.1082  0.1481
  576SOL    HW1 2344   3.355   2.662   1.721 -1.7595  0.2276 -0.2064
  576SOL    HW2 2345   3.300   2.639   1.860  2.6851 -0.5374  1.5973
  577SOL     OW 2346   6.434   1.892   5.190 -0.1844 -0.5328  0.8743
  577SOL    HW1 2347   6.408   1.935   5.109  0.2954 -1.2726  0.3195
  577SOL    HW2 2348   6.412   1.956   5.259 -2.0824 -0.5137  0.3243
  578SOL     OW 2349   6.531   5.319   0.179 -0.1262 -0.2358 -0.5011
  578SOL    HW1 2350   6.461   5.381   0.195 -0.5739 -1.0577  0.9545
  578SOL    HW2 2351   6.586   5.360   0.113 -1.3355  0.9338 -0.8106
  579SOL     OW 2352   7.187   0.571   5.794  0.2508  0.4804  0.0370
  579SOL    HW1 2353   7.131   0.494   5.783 -0.2983  0.6431  1.4825
  579SOL    HW2 2354   7.261   0.540   5.846 -0.5878  1.1569  1.7104
  580SOL     OW 2355   0.583   3.731   4.545  0.1719 -0.1070  0.3784
  580SOL    HW1 2356   0.607   3.762   4.633 -0.5611  1.8116 -0.0600
  580SOL    HW2 2357   0.632   3.788   4.486 -1.7776  0.7799 -0.4664
  581SOL     OW 2358   7.178   7.054   5.825  0.9541 -0.5707 -0.2252
  581SOL    HW1 2359   7.097   7.038   5.873  2.2054 -1.7447  1.6386
  581SOL    HW2 2360   7.202   7.144   5.848  1.2506 -0.9369  0.9871
  582SOL     OW 2361   0.376   0.301   6.337  0.3065 -0.6093 -0.5181
  582SOL    HW1 2362   0.456   0.339   6.373  0.5622 -0.7146 -0.9696
  582SOL    HW2 2363   0.405   0.255   6.258 -0.1701 -0.8078 -0.5788
  583SOL     OW 2364   1.544   1.140   0.234  0.1202  0.0827 -0.1138
  583SOL    HW1 2365   1.478   1.071   0.243  0.3128 -0.3625 -1.7864
  583SOL    HW2 2366   1.624   1.094   0.211  0.1311  0.8865 -1.7862
  584SOL     OW 2367   2.627   2.076   0.559  0.7222  0.3368  0.3244
  584SOL    HW1 2368   2.603   1.998   0.509  0.8418  0.2211  0.4471
  584SOL    HW2 2369   2.605   2.054   0.649 -0.7241  1.0195  0.1785
  585SOL     OW 2370   4.163   1.530   5.393 -0.3227  0.0108  0.0448
  585SOL    HW1 2371   4.234   1.589   5.421 -0.1164 -0.9502  1.6821
  585SOL    HW2 2372   4.156   1.544   5.299 -0.1206  2.4687  0.3255
  586SOL     OW 2373   4.813   2.219   2.878  0.0172  0.0516 -0.3402
  586SOL    HW1 2374   4.851   2.279   2.943 -1.5499 -0.2319  0.9123
  586SOL    HW2 2375   4.888   2.176   2.838  1.0536  0.3660  1.1795
  587SOL     OW 2376   0.087   0.925   4.032  0.3894  0.4989  0.4217
  587SOL    HW1 2377   0.065   0.976   4.111 -0.1944 -0.6002  0.9842
  587SOL    HW2 2378   0.004   0.887   4.004  0.6808  0.4955 -0.4667
  588SOL     OW 2379   1.889   5.485   3.578  0.6925  0.2627  1.2320
  588SOL    HW1 2380   1.847   5.497   3.493  0.6771 -3.0479  0.6402
  588SOL    HW2 2381   1.921   5.572   3.602  0.8525  1.2858 -2.2189
  589SOL     OW 2382   4.351   2.036   4.614 -0.1790 -0.0230  0.1747
  589SOL    HW1 2383   4.419   2.056   4.550  1.5943 -0.1304  1.9364
  589SOL    HW2 2384   4.281   2.099   4.596 -1.1920 -1.9945 -3.7981
  590SOL     OW 2385   5.372   1.531   5.398  0.2813 -0.1713 -0.0148
  590SOL    HW1 2386   5.349   1.497   5.312  2.8148  0.9829 -1.2335
  590SOL    HW2 2387   5.407   1.455   5.445  2.0419 -0.1498 -1.2384
  591SOL     OW 2388   4.391   6.926   0.186  0.2123  0.2399 -0.6232
  591SOL    HW1 2389   4.434   6.933   0.101  0.7541  1.4037 -0.2733
  591SOL    HW2 2390   4.448   6.975   0.245 -2.1456  2.8477 -0.3569
  592SOL     OW 2391   3.350   4.913   3.145  0.5779 -0.4946 -0.1151
  592SOL    HW1 2392   3.267   4.888   3.104  1.6216 -2.6576 -1.0571
  592SOL    HW2 2393   3.411   4.843   3.121  2.3388  0.3105  1.7151
  593SOL     OW 2394   4.104   3.216   0.921  0.4898 -0.0094  0.5166
  593SOL    HW1 2395   4.178   3.252   0.874 -0.1078 -0.6419 -0.9636
  593SOL    HW2 2396   4.100   3.267   1.003  1.5526  1.1006 -0.0950
  594SOL     OW 2397   5.344   0.534   3.906 -0.4018 -0.0819  0.0806
  594SOL    HW1 2398   5.387   0.456   3.939  0.7251  0.7684  0.6890
  594SOL    HW2 2399   5.304   0.575   3.983  0.8207  1.0261  0.1717
  595SOL     OW 2400   2.879   6.124   3.360 -0.5669 -0.2920  0.0394
  595SOL    HW1 2401   2.791   6.098   3.388 -1.5792  1.1630 -1.5663
  595SOL    HW2 2402   2.868   6.213   3.327  1.2143 -0.6102 -1.5773
  596SOL     OW 2403   3.282   3.677   3.883 -0.0487  0.1807  0.1569
  596SOL    HW1 2404   3.270   3.714   3.971  1.3994 -0.0468  0.4763
  596SOL    HW2 2405   3.210   3.714   3.832 -1.4970 -0.4447  1.6585
  597SOL     OW 2406   1.268   7.110   0.575 -0.1824 -0.3266 -0.2092
  597SOL    HW1 2407   1.348   7.060   0.591 -0.5552 -0.6729  0.6090
  597SOL    HW2 2408   1.213   7.053   0.521 -0.6457 -0.8474  0.8011
  598SOL     OW 2409   3.037   1.120   3.472  0.0402 -0.3163 -0.4879
  598SOL    HW1 2410   3.039   1.105   3.567  0.2712  1.3308 -0.2135
  598SOL    HW2 2411   3.126   1.101   3.443  0.2734  0.2893 -0.1839
  599SOL     OW 2412   4.928   0.227   2.466 -0.0866 -0.3875 -0.0469
  599SOL    HW1 2413   5.010   0.181   2.450  0.1171  0.2205 -0.8399
  599SOL    HW2 2414   4.954   0.319   2.477 -0.5052 -0.4075  1.2604
  600SOL     OW 2415   3.213   1.355   2.646  0.4543  0.2564  0.1362
  600SOL    HW1 2416   3.173   1.280   2.691  1.4603 -2.0307 -2.5078
  600SOL    HW2 2417   3.307   1.337   2.648  0.5765  0.2127 -2.3967
  601SOL     OW 2418   4.979   0.723   4.827  0.1044 -0.2304 -0.2325
  601SOL    HW1 2419   5.044   0.731   4.757  0.8030 -1.9391  0.1782
  601SOL    HW2 2420   4.896   0.747   4.786  0.7002  0.0598 -1.2888
  602SOL     OW 2421   5.602   4.309   0.613 -0.3401  0.7072  0.7637
  602SOL    HW1 2422   5.576   4.401   0.613 -0.5177  0.6767 -0.7378
  602SOL    HW2 2423   5.641   4.294   0.527 -0.4030 -0.6504  0.9389
  603SOL     OW 2424   0.935   6.744   5.732 -0.0362 -0.1486  0.1148
  603SOL    HW1 2425   0.849   6.702   5.730 -0.1745  0.0030  1.7416
  603SOL    HW2 2426   0.979   6.713   5.652 -2.3384  1.4950 -1.9195
  604SOL     OW 2427   0.280   5.739   5.334 -0.1221 -0.5584  0.3246
  604SOL    HW1 2428   0.361   5.776   5.301  0.1432 -0.6018  0.9227
  604SOL    HW2 2429   0.291   5.644   5.326 -0.6451 -0.5359 -0.8369
  605SOL     OW 2430   0.933   5.438   2.043  0.4919  0.5824  0.3934
  605SOL    HW1 2431   0.838   5.453   2.038  0.2003 -0.8355  1.2119
  605SOL    HW2 2432   0.953   5.443   2.136  1.6226  2.8396  0.1160
  606SOL     OW 2433   5.498   3.735   1.506 -0.0724  0.0430 -0.2998
  606SOL    HW1 2434   5.574   3.750   1.449  0.2938 -1.1741 -0.1635
  606SOL    HW2 2435   5.437   3.686   1.452  0.6292 -1.8928  0.5355
  607SOL     OW 2436   7.180   7.073   4.515 -0.7556  0.0520  0.3837
  607SOL    HW1 2437   7.090   7.060   4.544 -0.7605 -1.1183 -0.0877
  607SOL    HW2 2438   7.215   6.984   4.505 -0.1200  0.4422 -1.1870
  608SOL     OW 2439   2.254   5.728   5.952 -0.4991 -0.3379  0.3385
  608SOL    HW1 2440   2.298   5.812   5.937 -0.8288 -0.2439 -0.1307
  608SOL    HW2 2441   2.161   5.748   5.942 -0.6347 -0.5902  1.0552
  609SOL     OW 2442   0.097   6.811   1.534 -0.4847 -0.1063 -0.1544
  609SOL    HW1 2443   0.022   6.760   1.563  0.7015 -0.1144  3.2942
  609SOL    HW2 2444   0.108   6.878   1.601  0.6404  2.0070 -2.3122
  610SOL     OW 2445   2.791   0.128   2.298  0.2825  0.1323  0.6716
  610SOL    HW1 2446   2.865   0.072   2.277 -0.7557 -0.9688 -0.1576
  610SOL    HW2 2447   2.823   0.185   2.368  1.9125 -0.2798  0.2885
  611SOL     OW 2448   1.106   2.885   6.294 -0.0785 -0.0325  0.8671
  611SOL    HW1 2449   1.064   2.967   6.270  0.3288  1.0542  3.5802
  611SOL    HW2 2450   1.053   2.818   6.252 -0.8494  1.5416 -0.8139
  612SOL     OW 2451   7.153   4.270   1.213 -0.1074  0.1731  0.4634
  612SOL    HW1 2452   7.067   4.228   1.220 -1.1807  1.9665 -0.9805
  612SOL    HW2 2453   7.206   4.208   1.163 -1.4492  0.1907 -1.0600
  613SOL     OW 2454   0.654   5.438   2.000 -0.6193 -0.3518  0.6036
  613SOL    HW1 2455   0.683   5.435   1.909 -0.6190 -0.2260  0.5995
  613SOL    HW2 2456   0.577   5.495   1.999 -0.3123  0.0706  0.7651
  614SOL     OW 2457   0.210   0.771   3.710  0.6345 -0.0321 -0.2517
  614SOL    HW1 2458   0.294   0.804   3.742  0.5981  0.6355 -0.8291
  614SOL    HW2 2459   0.163   0.848   3.679  0.3578 -0.5602 -1.2016
  615SOL     OW 2460   1.848   6.494   2.659  0.6412  0.4147  0.3507
  615SOL    HW1 2461   1.816   6.505   2.748 -0.0713 -0.6392  0.2413
  615SOL    HW2 2462   1.929   6.545   2.656  2.5593 -2.2144  2.6340
  616SOL     OW 2463   3.437   1.387   6.936 -0.3161 -0.5295 -0.2642
  616SOL    HW1 2464   3.375   1.456   6.910  0.3535  0.0455 -0.3690
  616SOL    HW2 2465   3.385   1.307   6.936 -0.9749 -0.1117 -0.7120
  617SOL     OW 2466   3.598   0.936   5.048  0.1383 -0.5188  0.0325
  617SOL    HW1 2467   3.564   0.901   4.965  0.2353 -1.4429  0.3647
  617SOL    HW2 2468   3.681   0.978   5.025  2.8771 -5.1309  0.2615
  618SOL     OW 2469   5.519   1.122   6.506  0.1104  0.1407 -0.6804
  618SOL    HW1 2470   5.449   1.063   6.536  0.5361 -1.4663 -2.5988
  618SOL    HW2 2471   5.530   1.184   6.578 -0.9628 -1.5979  1.1063
  619SOL     OW 2472   2.275   5.850   2.274 -0.6381  0.4815 -0.2133
  619SOL    HW1 2473   2.202   5.909   2.293 -0.9167 -0.0640  0.4936
  619SOL    HW2 2474   2.235   5.763   2.273  0.0453  0.1456  0.4616
  620SOL     OW 2475   0.246   2.677   3.108 -0.2071  0.0009  0.1362
  620SOL    HW1 2476   0.303   2.691   3.032  0.8234  0.5320  0.9858
  620SOL    HW2 2477   0.293   2.612   3.161  0.1331  1.1816  1.3348
  621SOL     OW 2478   4.921   6.036   3.283 -0.1771 -0.1364 -0.5433
  621SOL    HW1 2479   4.992   6.024   3.220 -0.4179 -0.7825 -0.7022
  621SOL    HW2 2480   4.928   5.961   3.342 -0.2059  0.2489 -0.0514
  622SOL     OW 2481   0.986   1.484   3.327  0.8309 -0.3713 -0.2943
  622SOL    HW1 2482   1.058   1.429   3.358 -0.0123 -0.3261  1.8693
  622SOL    HW2 2483   1.021   1.573   3.332  1.2708 -0.4784 -1.1875
  623SOL     OW 2484   0.287   2.268   5.339 -0.5261  0.2960  0.7109
  623SOL    HW1 2485   0.279   2.337   5.274 -1.3534 -2.1653 -1.9822
  623SOL    HW2 2486   0.200   2.227   5.341  0.3596 -1.6344  1.0913
  624SOL     OW 2487   6.658   6.431   1.555 -0.6068 -0.1674 -0.0949
  624SOL    HW1 2488   6.689   6.368   1.621 -0.4692 -0.2495 -0.2379
  624SOL    HW2 2489   6.566   6.407   1.541 -1.4078  1.4319  1.9380
  625SOL     OW 2490   5.895   1.605   5.866  0.9690 -0.2321 -0.0030
  625SOL    HW1 2491   5.862   1.636   5.782 -1.6280 -3.3045 -0.3082
  625SOL    HW2 2492   5.983   1.572   5.847  1.7434  1.9759 -0.6777
  626SOL     OW 2493   6.620   4.703   0.640  0.9866 -0.2832  0.2930
  626SOL    HW1 2494   6.576   4.699   0.555  1.6837 -3.2434 -0.0451
  626SOL    HW2 2495   6.579   4.777   0.685  0.1166  0.9532 -2.3289
  627SOL     OW 2496   4.941   2.247   5.926  0.9125  0.3917  0.1361
  627SOL    HW1 2497   4.976   2.158   5.924  0.3638  0.1721 -1.3589
  627SOL    HW2 2498   4.846   2.235   5.914  0.8944  1.1876 -0.6242
  628SOL     OW 2499   2.436   0.712   3.003  0.7399  0.4490  0.2587
  628SOL    HW1 2500   2.436   0.740   3.095  0.8452 -0.0807  0.4246
  628SOL    HW2 2501   2.491   0.633   3.002 -1.0839 -0.8968  0.1678
  629SOL     OW 2502   4.446   2.444   1.669 -0.4913 -0.0296  0.0232
  629SOL    HW1 2503   4.429   2.533   1.640  0.8087  0.3764  0.4366
  629SOL    HW2 2504   4.487   2.402   1.593 -0.4758 -0.0692  0.0534
  630SOL     OW 2505   5.956   4.487   2.612 -0.4490  0.0530 -0.3683
  630SOL    HW1 2506   6.009   4.489   2.531 -0.4928  1.5476 -0.3895
  630SOL    HW2 2507   5.904   4.407   2.604  1.0763 -0.9426 -0.8211
  631SOL     OW 2508   5.529   2.181   5.999  0.0873  0.0313  0.0939
  631SOL    HW1 2509   5.528   2.085   5.992 -0.2468 -0.0062  0.5667
  631SOL    HW2 2510   5.618   2.206   5.977 -0.0646 -0.3112 -0.9673
  632SOL     OW 2511   6.649   0.181   6.057 -0.1018 -0.0203 -0.1374
  632SOL    HW1 2512   6.704   0.127   6.000  0.3012  0.4258 -0.1757
  632SOL    HW2 2513   6.560   0.149   6.042 -0.1872  0.9739 -2.0717
  633SOL     OW 2514   0.436   0.483   3.576 -0.7661  0.1710 -0.0063
  633SOL    HW1 2515   0.460   0.440   3.658 -1.0389 -1.1366 -0.5863
  633SOL    HW2 2516   0.341   0.472   3.570 -0.7777  0.4636 -0.3841
  634SOL     OW 2517   2.135   1.532   6.250  0.2629 -0.3074  0.3198
  634SOL    HW1 2518   2.044   1.508   6.229  0.2837  0.4532 -0.7491
  634SOL    HW2 2519   2.128   1.622   6.283  0.7828  0.4334 -1.4743
  635SOL     OW 2520   2.999   4.407   2.318 -0.2935  0.1247 -0.4667
  635SOL    HW1 2521   2.994   4.313   2.298  1.5579 -0.2411  0.6101
  635SOL    HW2 2522   2.988   4.450   2.233 -1.2683 -1.0485 -0.9667
  636SOL     OW 2523   0.470   4.426   6.752  0.1514  0.8839 -0.2341
  636SOL    HW1 2524   0.561   4.439   6.777  0.0561 -0.5041  0.8899
  636SOL    HW2 2525   0.442   4.348   6.800 -0.7709 -0.4707 -2.7725
  637SOL     OW 2526   0.480   4.636   5.867 -0.0611 -0.3691  0.0686
  637SOL    HW1 2527   0.411   4.698   5.844 -0.5269 -0.6669  0.6543
  637SOL    HW2 2528   0.555   4.691   5.891  0.0227 -0.0478 -0.8980
  638SOL     OW 2529   3.341   5.278   2.675  0.0110  0.4627  0.4068
  638SOL    HW1 2530   3.357   5.196   2.628  0.7939 -0.1759  1.7328
  638SOL    HW2 2531   3.246   5.290   2.669 -0.1034 -0.4889  0.1009
  639SOL     OW 2532   0.025   5.715   0.166  0.3295  0.7248  0.0614
  639SOL    HW1 2533  -0.021   5.661   0.231  1.3240 -0.0712  0.1378
  639SOL    HW2 2534  -0.002   5.804   0.186  0.0187  0.4186  1.0946
  640SOL     OW 2535   2.693   6.982   3.736  0.7588  0.2354 -0.0171
  640SOL    HW1 2536   2.608   6.981   3.780 -0.2747  2.3611 -1.7766
  640SOL    HW2 2537   2.737   6.902   3.767 -0.9644  0.1871  2.6157
  641SOL     OW 2538   3.307   4.711   2.208 -0.0257 -0.4435 -0.2333
  641SOL    HW1 2539   3.368   4.715   2.134  0.7717  2.5709  0.4608
  641SOL    HW2 2540   3.223   4.687   2.168  0.2139  1.7961 -2.3518
  642SOL     OW 2541   1.002   6.865   4.503  0.0031 -0.0759  0.4839
  642SOL    HW1 2542   1.052   6.797   4.458  1.0301  0.8404  0.1836
  642SOL    HW2 2543   0.925   6.820   4.537 -0.2841 -1.0331 -1.2926
  643SOL     OW 2544   0.800   6.233   5.990  0.2376 -0.0223 -0.5044
  643SOL    HW1 2545   0.848   6.192   6.062  0.7290 -0.6951 -1.1989
  643SOL    HW2 2546   0.722   6.179   5.980 -1.0805  1.4618  1.0722
  644SOL     OW 2547   5.433   0.239   2.540 -0.4432  0.1869 -0.2961
  644SOL    HW1 2548   5.414   0.322   2.584  2.6209  0.8540 -0.0284
  644SOL    HW2 2549   5.355   0.223   2.486 -1.4993  2.7716  0.2945
  645SOL     OW 2550   6.521   3.250   2.029  0.1725 -0.0313  0.1028
  645SOL    HW1 2551   6.545   3.229   2.119  0.2505  1.5971  0.4868
  645SOL    HW2 2552   6.540   3.170   1.980 -0.3614 -1.1255  1.6040
  646SOL     OW 2553   4.589   6.146   5.033  0.3846 -0.1088 -0.7308
  646SOL    HW1 2554   4.665   6.093   5.013  0.7908  0.1744  0.0008
  646SOL    HW2 2555   4.520   6.114   4.975  0.5395 -1.6080 -0.1227
  647SOL     OW 2556   1.392   3.914   3.650 -0.7537 -0.0343  0.4650
  647SOL    HW1 2557   1.387   3.931   3.744  0.1035  1.1637  0.3149
  647SOL    HW2 2558   1.375   3.820   3.642 -2.7484  0.1601  1.6238
  648SOL     OW 2559   0.561   1.920   5.149  0.0446  0.1921 -0.1186
  648SOL    HW1 2560   0.504   1.849   5.121 -0.5354 -0.3517  2.1783
  648SOL    HW2 2561   0.519   1.955   5.228  3.2563 -0.9272  2.3582
  649SOL     OW 2562   5.295   3.373   0.439  0.0079 -0.0877 -0.0988
  649SOL    HW1 2563   5.221   3.428   0.464 -1.2789 -1.7796  0.0362
  649SOL    HW2 2564   5.341   3.422   0.371 -1.5192  0.8061 -0.5178
  650SOL     OW 2565   6.527   6.508   3.098  0.0152  0.3519 -0.2538
  650SOL    HW1 2566   6.435   6.525   3.121  0.1733 -0.5323  1.1419
  650SOL    HW2 2567   6.562   6.459   3.172  1.2560 -0.5444 -1.3817
  651SOL     OW 2568   5.280   5.999   3.956 -0.5122 -0.3626 -0.1256
  651SOL    HW1 2569   5.294   6.026   3.866 -1.2963  0.5793  0.0124
  651SOL    HW2 2570   5.347   5.933   3.973 -0.2586 -0.4325 -1.3385
  652SOL     OW 2571   6.400   0.769   0.499 -0.0916  0.1399 -0.2408
  652SOL    HW1 2572   6.456   0.737   0.570  0.0547  0.3327 -0.2670
  652SOL    HW2 2573   6.311   0.756   0.531 -0.0321  1.3797  0.5154
  653SOL     OW 2574   5.228   7.029   3.598 -0.4767  0.8143 -0.1785
  653SOL    HW1 2575   5.255   6.969   3.528 -0.2473  0.6488  0.0513
  653SOL    HW2 2576   5.241   6.979   3.679  0.9124  1.5913  0.1079
  654SOL     OW 2577   1.215   1.798   3.530  0.5336  0.0981 -0.2102
  654SOL    HW1 2578   1.254   1.864   3.587  1.1811  0.7593 -1.3705
  654SOL    HW2 2579   1.283   1.732   3.518  0.9998  0.7687 -1.4661
  655SOL     OW 2580   2.108   0.997   6.929 -0.0476  0.1053 -0.7596
  655SOL    HW1 2581   2.015   0.984   6.914 -0.1367  1.4592 -1.5096
  655SOL    HW2 2582   2.131   1.073   6.875  1.0283  1.0845  0.9679
  656SOL     OW 2583   2.480   2.848   3.311  0.3100  0.2013 -0.3948
  656SOL    HW1 2584   2.459   2.910   3.242 -0.7385  1.0589  0.6561
  656SOL    HW2 2585   2.407   2.785   3.310 -1.1618  1.7458  1.6144
  657SOL     OW 2586   0.569   5.162   2.606 -0.1043  0.5970 -0.5455
  657SOL    HW1 2587   0.593   5.223   2.677  0.7499  2.1034 -2.0303
  657SOL    HW2 2588   0.582   5.075   2.643 -1.1186  1.2914  1.5928
  658SOL     OW 2589   3.894   6.388   1.964 -0.5762 -0.1152 -0.3044
  658SOL    HW1 2590   3.989   6.394   1.979 -0.7160  1.3179  0.1641
  658SOL    HW2 2591   3.857   6.379   2.052 -0.9819  1.3974 -0.2937
  659SOL     OW 2592   0.254   1.336   5.293  0.2568 -0.1916  0.7119
  659SOL    HW1 2593   0.179   1.288   5.330  0.4819 -0.1772  1.1924
  659SOL    HW2 2594   0.311   1.268   5.259  0.5858 -0.2716  1.4117
  660SOL     OW 2595   0.746   2.535   5.221  0.4762  0.2933 -0.0573
  660SOL    HW1 2596   0.665   2.549   5.270  1.4067 -0.3177  1.7346
  660SOL    HW2 2597   0.745   2.603   5.153 -1.8615 -0.1605 -0.5613
  661SOL     OW 2598   5.661   1.340   5.851 -0.9455 -0.0140 -0.3575
  661SOL    HW1 2599   5.640   1.425   5.812  0.4473  0.1658 -0.7594
  661SOL    HW2 2600   5.699   1.290   5.779 -0.3711 -0.4464  0.2335
  662SOL     OW 2601   1.850   1.016   0.581  0.0474 -0.1398 -0.1046
  662SOL    HW1 2602   1.804   1.013   0.665  0.5684  2.6610  0.3731
  662SOL    HW2 2603   1.817   0.939   0.533 -1.8623 -0.6324  1.8349
  663SOL     OW 2604   6.298   7.103   4.716  0.1731 -0.0734  0.3686
  663SOL    HW1 2605   6.317   7.149   4.798  1.0679  1.0322 -0.4277
  663SOL    HW2 2606   6.315   7.011   4.736 -1.3369 -0.0583  1.9069
  664SOL     OW 2607   7.020   6.368   6.411  0.6184  0.3862 -0.2379
  664SOL    HW1 2608   7.087   6.300   6.419  0.5126  0.2346 -0.6309
  664SOL    HW2 2609   6.944   6.333   6.456  1.0668  0.9272  1.0080
  665SOL     OW 2610   2.114   2.514   2.421  0.2259  0.5371 -0.4960
  665SOL    HW1 2611   2.031   2.536   2.378 -1.2417 -0.5448  1.6310
  665SOL    HW2 2612   2.137   2.428   2.388  0.1121  0.5153 -0.5172
  666SOL     OW 2613   1.905   2.616   1.877  0.0491 -0.1144  0.6121
  666SOL    HW1 2614   1.906   2.640   1.785 -1.8195 -0.2543  0.5228
  666SOL    HW2 2615   1.903   2.700   1.923 -3.1583  0.0383  0.3770
  667SOL     OW 2616   3.190   5.911   3.493 -0.4934  0.1376  0.3389
  667SOL    HW1 2617   3.192   5.971   3.568 -1.1167 -0.1398  0.5870
  667SOL    HW2 2618   3.185   5.968   3.417  0.6127  0.4380  0.4764
  668SOL     OW 2619   3.009   1.023   4.299 -0.2870  0.1794 -0.1978
  668SOL    HW1 2620   3.069   1.088   4.336 -0.2186  0.5526 -0.9326
  668SOL    HW2 2621   2.990   1.056   4.211  0.6514 -1.3613 -1.0224
  669SOL     OW 2622   5.926   3.976   3.852  0.4948  0.3898  0.2645
  669SOL    HW1 2623   5.973   3.971   3.769  0.7718  0.0760  0.4334
  669SOL    HW2 2624   5.910   4.069   3.865 -0.9424  0.3354 -0.8995
  670SOL     OW 2625   0.550   2.875   0.497  0.0922 -0.1094 -0.1078
  670SOL    HW1 2626   0.527   2.951   0.444  2.6217  0.0170 -1.1861
  670SOL    HW2 2627   0.574   2.808   0.433 -0.6086 -1.3268  0.8557
  671SOL     OW 2628   1.327   5.736   6.391  0.1299 -0.3179  0.7895
  671SOL    HW1 2629   1.312   5.817   6.343  0.3733  0.0819  1.3702
  671SOL    HW2 2630   1.388   5.686   6.336 -1.1823 -0.7834 -0.2967
  672SOL     OW 2631   2.141   6.504   6.139  0.1735 -0.0110  0.4175
  672SOL    HW1 2632   2.141   6.476   6.231 -0.0341  0.3145  0.5218
  672SOL    HW2 2633   2.234   6.510   6.116  0.2446  0.6363  0.8428
  673SOL     OW 2634   0.004   4.547   1.401 -0.6142  0.1356  0.1995
  673SOL    HW1 2635   0.064   4.560   1.327 -0.8189 -1.6806 -0.3617
  673SOL    HW2 2636  -0.062   4.486   1.367 -1.8821  0.8447  1.2883
  674SOL     OW 2637   7.125   2.739   5.436 -0.5104  0.3542 -0.1225
  674SOL    HW1 2638   7.211   2.751   5.397 -0.0259 -0.7883  0.5388
  674SOL    HW2 2639   7.139   2.751   5.530 -1.0365 -0.0359  0.0118
  675SOL     OW 2640   2.938   2.240   2.155 -0.1659  0.1542 -0.2519
  675SOL    HW1 2641   3.006   2.249   2.221 -1.5763 -1.2274  1.5068
  675SOL    HW2 2642   2.871   2.186   2.197 -3.1010  2.7262 -1.3114
  676SOL     OW 2643   2.740   5.177   6.102 -0.0115 -0.9548  0.3380
  676SOL    HW1 2644   2.690   5.098   6.083 -1.1021 -0.2665  0.2564
  676SOL    HW2 2645   2.675   5.239   6.136  0.3230  0.7104 -1.7922
  677SOL     OW 2646   4.578   0.876   4.280  0.1314 -0.0002 -0.2402
  677SOL    HW1 2647   4.629   0.835   4.210  1.1581 -1.6207  1.3526
  677SOL    HW2 2648   4.641   0.889   4.351 -1.2742 -0.2709  1.1083
  678SOL     OW 2649   4.751   1.192   0.678 -0.3011 -0.7780 -0.1377
  678SOL    HW1 2650   4.691   1.150   0.739 -0.1110  1.5867  1.8101
  678SOL    HW2 2651   4.815   1.235   0.733  1.7365 -1.0764 -2.1236
  679SOL     OW 2652   5.606   3.124   4.887  0.3789  0.0711  0.3463
  679SOL    HW1 2653   5.530   3.149   4.835  0.5374 -1.7017 -0.8163
  679SOL    HW2 2654   5.670   3.094   4.823  1.2546 -0.4777  1.4424
  680SOL     OW 2655   4.990   5.434   6.778  0.2407 -0.4237  0.5472
  680SOL    HW1 2656   5.056   5.490   6.739  0.1667 -1.0522 -0.5184
  680SOL    HW2 2657   5.032   5.348   6.785  0.0156 -0.4874  1.2197
  681SOL     OW 2658   7.222   6.158   0.557 -0.3489  0.1438 -0.5052
  681SOL    HW1 2659   7.215   6.218   0.483 -1.4219  0.5985 -0.0615
  681SOL    HW2 2660   7.293   6.194   0.611 -0.3253  0.4523 -0.7386
  682SOL     OW 2661   0.834   2.472   4.552  0.3590  0.0543  0.0856
  682SOL    HW1 2662   0.819   2.460   4.458  2.0633 -1.1340 -0.0883
  682SOL    HW2 2663   0.795   2.556   4.573 -1.3802 -0.3394 -1.3747
  683SOL     OW 2664   1.809   1.180   0.370  0.3239 -0.4986  0.2948
  683SOL    HW1 2665   1.845   1.130   0.443 -0.0759  0.4738  1.1847
  683SOL    HW2 2666   1.787   1.114   0.304 -0.5295 -1.5458  1.5757
  684SOL     OW 2667   5.931   6.299   3.868 -0.2088 -0.1556 -0.0633
  684SOL    HW1 2668   6.005   6.349   3.835 -1.4080  1.3799 -0.5408
  684SOL    HW2 2669   5.883   6.360   3.924 -0.9881 -1.1888  0.4393
  685SOL     OW 2670   4.793   6.177   4.409 -0.5048  0.4128 -0.0736
  685SOL    HW1 2671   4.832   6.198   4.494  2.1752 -1.1184 -0.7731
  685SOL    HW2 2672   4.800   6.258   4.358  2.5645  0.1171 -0.3370
  686SOL     OW 2673   7.154   4.742   4.906  0.2930 -0.0555  0.1238
  686SOL    HW1 2674   7.099   4.682   4.957  1.4979  0.2419  1.8339
  686SOL    HW2 2675   7.119   4.735   4.816 -0.6943 -1.9892  0.5968
  687SOL     OW 2676   4.548   6.955   5.255  0.5477 -0.2353 -0.5371
  687SOL    HW1 2677   4.586   7.032   5.214  1.7242  0.6505  2.0038
  687SOL    HW2 2678   4.623   6.897   5.271  0.0880 -0.6933  0.0090
  688SOL     OW 2679   2.913   3.276   1.443 -0.2802  0.2525 -0.3455
  688SOL    HW1 2680   2.878   3.364   1.455 -0.6933  0.0872 -0.3409
  688SOL    HW2 2681   2.945   3.275   1.352 -1.3243  0.0501 -0.7287
  689SOL     OW 2682   3.613   2.397   2.091  0.9880  0.1128  0.1114
  689SOL    HW1 2683   3.564   2.343   2.028 -0.9359  1.3154  0.4838
  689SOL    HW2 2684   3.613   2.485   2.052 -0.2658  0.8878  1.7248
  690SOL     OW 2685   3.943   6.643   6.026 -0.1060 -0.3610 -0.2079
  690SOL    HW1 2686   3.935   6.706   5.954  1.5599  0.5845  0.3764
  690SOL    HW2 2687   3.902   6.687   6.100 -0.5875 -0.7584 -0.2338
  691SOL     OW 2688   3.742   1.843   6.898 -0.0496  0.2181 -0.3991
  691SOL    HW1 2689   3.704   1.814   6.981 -1.6325 -0.8551 -1.4297
  691SOL    HW2 2690   3.822   1.791   6.889 -0.4970 -0.5539 -0.0738
  692SOL     OW 2691   2.625   0.294   4.651 -0.4805  0.2285 -0.0956
  692SOL    HW1 2692   2.705   0.342   4.673 -0.3805  0.2747 -0.5355
  692SOL    HW2 2693   2.590   0.340   4.575  0.7865 -1.6268 -1.9266
  693SOL     OW 2694   0.784   3.556   5.444 -0.7329  0.2667 -0.6315
  693SOL    HW1 2695   0.868   3.512   5.457 -1.5949 -1.1239  0.4953
  693SOL    HW2 2696   0.805   3.632   5.389  0.8898 -1.2499 -2.2354
  694SOL     OW 2697   6.348   7.041   1.293 -0.1376 -0.0421  0.2433
  694SOL    HW1 2698   6.324   7.122   1.338  0.4097 -0.2448  0.9035
  694SOL    HW2 2699   6.312   7.052   1.205  1.6781  1.8176 -0.3407
  695SOL     OW 2700   7.108   2.669   4.214 -0.0024 -0.4512  0.5816
  695SOL    HW1 2701   7.144   2.751   4.183  0.4698 -0.7108  0.4296
  695SOL    HW2 2702   7.045   2.694   4.281  0.3676  0.0183  0.7585
  696SOL     OW 2703   4.836   0.015   5.804 -0.2476 -0.0511  0.0801
  696SOL    HW1 2704   4.838  -0.059   5.742  1.5439 -0.7478  0.9031
  696SOL    HW2 2705   4.780  -0.016   5.875  0.7695 -0.7584  0.5789
  697SOL     OW 2706   4.439   0.831   1.054 -0.2149 -0.3117 -0.0086
  697SOL    HW1 2707   4.363   0.823   1.111 -1.7981  1.0003 -1.7891
  697SOL    HW2 2708   4.501   0.885   1.104 -1.9989  1.7491  0.1512
  698SOL     OW 2709   3.673   2.679   4.180  0.2793  0.1968  0.0964
  698SOL    HW1 2710   3.695   2.587   4.192 -0.0985 -0.0904 -1.2615
  698SOL    HW2 2711   3.734   2.709   4.113 -1.8884 -0.0282 -2.1065
  699SOL     OW 2712   0.641   1.160   4.071 -0.3596 -0.0332 -0.4877
  699SOL    HW1 2713   0.652   1.169   4.166 -2.1085  1.1341 -0.3492
  699SOL    HW2 2714   0.601   1.243   4.043  0.2708 -0.2869 -2.2791
  700SOL     OW 2715   2.703   1.684   4.999  0.7861  0.0140  0.0864
  700SOL    HW1 2716   2.689   1.631   4.921  2.0158  0.1680 -0.2642
  700SOL    HW2 2717   2.615   1.699   5.034  0.2601 -0.5128 -0.9533
  701SOL     OW 2718   2.559   3.859   3.219  0.3194  0.8457 -0.0340
  701SOL    HW1 2719   2.486   3.882   3.277 -0.2581 -1.1959  0.1313
  701SOL    HW2 2720   2.605   3.789   3.265  0.6591  0.1333 -1.3967
  702SOL     OW 2721   0.346   5.186   2.140 -0.1981  0.2008  0.3518
  702SOL    HW1 2722   0.359   5.093   2.161 -0.7538  0.3037  1.1975
  702SOL    HW2 2723   0.385   5.233   2.213  1.3362  0.7057 -0.7276
  703SOL     OW 2724   6.306   3.230   1.630  0.2299 -0.0565  0.2758
  703SOL    HW1 2725   6.391   3.274   1.620 -0.9559  1.8055 -3.3512
  703SOL    HW2 2726   6.323   3.140   1.604  1.0617  0.3672 -0.7104
  704SOL     OW 2727   2.974   3.452   6.554 -0.3735 -0.2928  0.2034
  704SOL    HW1 2728   2.905   3.477   6.493  0.8969 -1.4953 -1.8180
  704SOL    HW2 2729   3.039   3.522   6.548 -1.9139  1.5650  3.1485
  705SOL     OW 2730   5.765   0.714   3.517  0.4376  0.0578 -0.1547
  705SOL    HW1 2731   5.711   0.648   3.473 -0.5302  0.5006  0.3275
  705SOL    HW2 2732   5.701   0.773   3.557  1.2597 -0.8763  2.7244
  706SOL     OW 2733   0.706   0.374   4.397  0.1910  0.1227  0.2523
  706SOL    HW1 2734   0.764   0.339   4.464  0.6273  2.0474  0.9366
  706SOL    HW2 2735   0.732   0.329   4.316  0.4825 -1.3131  1.1108
  707SOL     OW 2736   0.107   6.422   4.771 -0.3871  0.1452  0.5222
  707SOL    HW1 2737   0.106   6.412   4.675 -1.9908 -0.8465  0.6019
  707SOL    HW2 2738   0.144   6.340   4.803 -1.0702 -0.0671  0.7839
  708SOL     OW 2739   6.918   5.100   2.107  0.0139 -0.1324  0.8375
  708SOL    HW1 2740   7.007   5.075   2.133  0.8591  0.2988 -1.4480
  708SOL    HW2 2741   6.921   5.103   2.012 -2.9876 -2.0076  0.5621
  709SOL     OW 2742   0.437   1.000   1.117  0.4218  0.9856 -0.6949
  709SOL    HW1 2743   0.384   1.052   1.177 -0.1437  0.2033 -0.4876
  709SOL    HW2 2744   0.381   0.985   1.041 -0.2146 -0.9841  0.0914
  710SOL     OW 2745   6.720   2.715   2.163 -0.5408 -0.3451  0.4120
  710SOL    HW1 2746   6.659   2.652   2.126  0.2414 -1.2048  0.5433
  710SOL    HW2 2747   6.711   2.704   2.258 -0.6964  0.0297  0.4411
  711SOL     OW 2748   3.393   1.327   3.366  0.1534  0.0694  0.3208
  711SOL    HW1 2749   3.411   1.402   3.423 -0.5036  0.0394  0.5755
  711SOL    HW2 2750   3.455   1.260   3.396 -0.3530 -0.0342  1.1869
  712SOL     OW 2751   2.630   5.397   1.192 -0.3748 -0.3495 -0.1042
  712SOL    HW1 2752   2.683   5.359   1.261 -0.6088  1.6596  1.2714
  712SOL    HW2 2753   2.619   5.326   1.128  2.6079 -1.3013  0.2837
  713SOL     OW 2754   1.858   1.736   4.550  0.3144  0.1386  0.4790
  713SOL    HW1 2755   1.802   1.662   4.526  0.1638  0.5808 -0.6053
  713SOL    HW2 2756   1.798   1.811   4.552  0.1616  0.0129  3.0920
  714SOL     OW 2757   4.338   6.907   2.933  0.8866  0.4076  0.0633
  714SOL    HW1 2758   4.352   6.984   2.988  1.5314  1.0282 -0.9311
  714SOL    HW2 2759   4.378   6.835   2.982  4.4856  1.4890 -0.9941
  715SOL     OW 2760   1.423   3.237   5.015  0.1411  0.2044 -0.2227
  715SOL    HW1 2761   1.505   3.200   5.048  1.3787 -0.0931 -3.3174
  715SOL    HW2 2762   1.396   3.300   5.082  3.1484  0.6503  0.6790
  716SOL     OW 2763   3.194   2.933   3.163  0.5868 -0.2796 -0.2871
  716SOL    HW1 2764   3.245   2.852   3.160 -0.5476 -1.1345  1.6265
  716SOL    HW2 2765   3.234   2.984   3.234  0.9163  0.5729 -1.0777
  717SOL     OW 2766   1.038   2.693   5.239 -0.1428  0.2062 -0.5152
  717SOL    HW1 2767   1.035   2.639   5.318  2.1436  0.4996 -0.1679
  717SOL    HW2 2768   0.984   2.646   5.176 -0.9760 -0.6975  0.8193
  718SOL     OW 2769   3.730   0.987   3.674  0.5414  0.0767  0.0996
  718SOL    HW1 2770   3.815   0.951   3.647  0.5149 -2.5287  2.8689
  718SOL    HW2 2771   3.682   0.911   3.707 -2.0680  1.8240  0.6041
  719SOL     OW 2772   5.986   6.061   0.055  0.6196 -0.6923 -0.3890
  719SOL    HW1 2773   5.897   6.051   0.019  0.5947 -0.2017 -0.4718
  719SOL    HW2 2774   6.041   6.010  -0.005  0.5951  0.2273 -1.2120
  720SOL     OW 2775   5.718   7.255   5.450  0.3167 -0.0524 -0.2203
  720SOL    HW1 2776   5.646   7.262   5.387  0.9689 -0.4753 -1.0347
  720SOL    HW2 2777   5.689   7.189   5.513  1.0003 -2.1907 -2.0119
  721SOL     OW 2778   2.351   0.243   5.127  0.3379  0.5557  0.2384
  721SOL    HW1 2779   2.259   0.234   5.101 -0.1632  2.6756  1.0181
  721SOL    HW2 2780   2.391   0.160   5.104 -1.5991 -0.1381 -0.8653
  722SOL     OW 2781   0.466   6.801   5.824  0.8375 -0.2739 -0.0130
  722SOL    HW1 2782   0.465   6.775   5.916 -2.4090 -0.3120  0.0457
  722SOL    HW2 2783   0.464   6.897   5.826 -1.4101 -0.2800  0.0660
  723SOL     OW 2784   1.547   0.324   5.151  0.6371 -0.3293  0.2596
  723SOL    HW1 2785   1.468   0.270   5.141  0.5499 -0.6146  2.1152
  723SOL    HW2 2786   1.619   0.264   5.132  0.4563 -0.3014 -0.5654
  724SOL     OW 2787   1.459   6.653   1.220 -0.0669 -0.0215 -0.7364
  724SOL    HW1 2788   1.496   6.586   1.278  0.6993  0.4625 -0.6444
  724SOL    HW2 2789   1.392   6.607   1.170  1.0649 -1.1169 -1.3317
  725SOL     OW 2790   1.316   3.174   6.076 -0.2229  0.2750 -0.2352
  725SOL    HW1 2791   1.353   3.251   6.033  0.6842 -0.8037 -1.4525
  725SOL    HW2 2792   1.346   3.100   6.023 -0.4695 -0.9833  1.3147
  726SOL     OW 2793   0.964   6.518   1.671 -0.2072 -0.3233 -0.2741
  726SOL    HW1 2794   0.894   6.553   1.616  0.4007 -0.0901 -0.9093
  726SOL    HW2 2795   0.923   6.507   1.757 -0.7025  0.9718 -0.3161
  727SOL     OW 2796   5.533   6.019   1.769 -0.4121  0.4917  0.4646
  727SOL    HW1 2797   5.448   6.028   1.726 -0.5833 -1.4443  0.3044
  727SOL    HW2 2798   5.512   5.996   1.860 -0.0630  0.3995  0.5251
  728SOL     OW 2799   1.242   2.502   3.403  0.2965 -0.5252  0.6557
  728SOL    HW1 2800   1.148   2.516   3.390  0.3491 -1.5417 -1.0978
  728SOL    HW2 2801   1.282   2.587   3.383 -0.2976  0.2557  2.5778
  729SOL     OW 2802   5.375   5.835   6.336 -0.2879 -0.1259  0.7506
  729SOL    HW1 2803   5.413   5.844   6.423  2.4702 -1.5935 -0.2094
  729SOL    HW2 2804   5.441   5.869   6.276 -1.0044 -1.5722 -0.9513
  730SOL     OW 2805   5.897   2.273   3.928 -0.3570 -0.7525 -0.1153
  730SOL    HW1 2806   5.916   2.261   3.835  0.5559 -0.1404 -0.0186
  730SOL    HW2 2807   5.982   2.268   3.971 -0.8227 -1.5079  0.7532
  731SOL     OW 2808   6.503   1.268   6.559 -0.7236 -0.1161  0.5209
  731SOL    HW1 2809   6.429   1.212   6.536  0.3586 -0.6343 -2.1023
  731SOL    HW2 2810   6.580   1.218   6.532  0.7417  0.0865  3.8177
  732SOL     OW 2811   3.862   6.447   4.306  0.5795 -0.0319  0.4310
  732SOL    HW1 2812   3.869   6.404   4.391 -0.7995 -0.2325  0.4570
  732SOL    HW2 2813   3.796   6.397   4.259  0.5843  0.7035 -0.3894
  733SOL     OW 2814   1.018   1.217   0.392 -0.1217 -0.2859 -0.2979
  733SOL    HW1 2815   0.970   1.276   0.334  1.1895  0.2564 -0.8573
  733SOL    HW2 2816   1.108   1.248   0.388  0.0579 -0.4180  1.8106
  734SOL     OW 2817   6.181   0.637   6.116  0.0674  0.8540  0.4363
  734SOL    HW1 2818   6.121   0.566   6.139  0.2595 -0.4243 -2.5933
  734SOL    HW2 2819   6.266   0.608   6.148  0.1914 -0.4788 -1.0101
  735SOL     OW 2820   3.047   0.973   5.134 -0.4756  0.7272 -0.0889
  735SOL    HW1 2821   3.081   0.884   5.145  0.8616  1.4067  2.1303
  735SOL    HW2 2822   2.952   0.964   5.141 -0.3056 -0.4426  1.2145
  736SOL     OW 2823   4.497   6.611   2.042 -0.5719  1.0286  0.6010
  736SOL    HW1 2824   4.469   6.603   1.951  0.2672  0.0677  0.4048
  736SOL    HW2 2825   4.537   6.697   2.048 -0.4075  0.9982 -0.0128
  737SOL     OW 2826   6.843   4.096   3.834 -0.2216 -0.5141 -0.1837
  737SOL    HW1 2827   6.934   4.081   3.810 -0.7345  0.1353 -2.9011
  737SOL    HW2 2828   6.796   4.021   3.797 -0.7764 -1.0744  1.5802
  738SOL     OW 2829   1.666   2.962   3.994 -0.6827 -0.1798 -0.3302
  738SOL    HW1 2830   1.688   2.908   3.918 -1.1411  1.3545 -1.6003
  738SOL    HW2 2831   1.577   2.935   4.018 -1.5347  1.0215 -1.9410
  739SOL     OW 2832   4.079   4.541   4.025 -0.0610 -0.1525 -0.6306
  739SOL    HW1 2833   4.054   4.505   4.110  0.4477  2.2116  0.5848
  739SOL    HW2 2834   4.173   4.557   4.033 -0.0253  0.1843 -1.6184
  740SOL     OW 2835   4.056   0.800   1.908  0.1035 -0.8365 -0.2361
  740SOL    HW1 2836   3.985   0.780   1.969 -0.8315  2.8217  0.1274
  740SOL    HW2 2837   4.016   0.857   1.843  2.2492 -0.3953 -1.2563
  741SOL     OW 2838   6.013   2.122   4.260  0.0989 -0.5652 -0.3887
  741SOL    HW1 2839   5.995   2.166   4.343  0.9592  0.6282 -0.8014
  741SOL    HW2 2840   6.100   2.085   4.272 -0.5057 -1.9506 -0.1470
  742SOL     OW 2841   0.328   2.439   5.096  0.3949  0.2446  0.2153
  742SOL    HW1 2842   0.394   2.436   5.027  1.2746  2.8881  0.8174
  742SOL    HW2 2843   0.244   2.439   5.048  0.8933 -0.7656 -0.6865
  743SOL     OW 2844   5.252   0.699   0.776  0.1093 -0.2006 -0.3029
  743SOL    HW1 2845   5.335   0.739   0.799  0.6876 -1.8157  0.6325
  743SOL    HW2 2846   5.190   0.772   0.771  1.5221  1.0070 -0.8496
  744SOL     OW 2847   5.664   3.746   5.081  0.2208  0.5692 -0.3026
  744SOL    HW1 2848   5.675   3.737   5.175 -0.9835  2.0623  0.0186
  744SOL    HW2 2849   5.573   3.722   5.065 -0.5703  3.3577 -0.5691
  745SOL     OW 2850   7.168   3.466   0.141 -0.4276  0.4255  1.2792
  745SOL    HW1 2851   7.126   3.551   0.128  0.1480  0.5136 -0.2254
  745SOL    HW2 2852   7.200   3.442   0.054 -0.4703 -1.2750  1.6951
  746SOL     OW 2853   4.843   1.913   6.499 -0.1851 -0.0722 -0.4200
  746SOL    HW1 2854   4.935   1.935   6.515 -0.0233  0.3887 -1.8391
  746SOL    HW2 2855   4.831   1.928   6.405 -1.7095 -0.1392 -0.2557
  747SOL     OW 2856   2.754   1.260   5.869  0.1725 -0.1825 -0.1325
  747SOL    HW1 2857   2.806   1.193   5.912 -0.0318  0.4148  1.0839
  747SOL    HW2 2858   2.664   1.228   5.874  0.3797 -1.4088 -2.5910
  748SOL     OW 2859   1.820   0.597   2.968 -0.2214 -0.0564  0.3677
  748SOL    HW1 2860   1.795   0.689   2.976 -3.2083 -0.6322 -1.0296
  748SOL    HW2 2861   1.910   0.599   2.935 -0.0151  2.3261  0.9300
  749SOL     OW 2862   4.503   5.303   3.332  0.0957  0.7277 -0.0711
  749SOL    HW1 2863   4.537   5.339   3.414 -0.1625  1.8283 -0.4311
  749SOL    HW2 2864   4.410   5.291   3.347 -0.1181  1.7661 -0.4709
  750SOL     OW 2865   6.190   3.500   5.932 -0.5614 -0.1509 -0.1639
  750SOL    HW1 2866   6.102   3.515   5.967 -0.4986 -1.6436  0.6983
  750SOL    HW2 2867   6.188   3.411   5.899  0.9401 -0.6252  0.9046
  751SOL     OW 2868   5.359   2.989   0.498 -0.6387  0.0125 -0.2742
  751SOL    HW1 2869   5.291   3.005   0.564  0.5949  1.2320  0.7493
  751SOL    HW2 2870   5.400   3.075   0.485 -0.4712 -0.3263 -2.2262
  752SOL     OW 2871   0.705   1.975   4.896 -0.1791  0.2326  0.5613
  752SOL    HW1 2872   0.637   2.037   4.869 -0.9817 -0.5871  0.6451
  752SOL    HW2 2873   0.675   1.942   4.981  0.5525  0.1996  0.8097
  753SOL     OW 2874   2.183   6.524   5.080 -0.4818 -0.5097  0.2205
  753SOL    HW1 2875   2.222   6.482   5.003  1.5597  0.9616  0.3506
  753SOL    HW2 2876   2.155   6.452   5.136  2.1287 -1.7443  0.0913
  754SOL     OW 2877   1.463   0.744   7.176 -0.3810  0.1463  0.3629
  754SOL    HW1 2878   1.442   0.752   7.270 -0.3513 -0.4262  0.4211
  754SOL    HW2 2879   1.466   0.650   7.160 -0.7894  0.2406 -0.3099
  755SOL     OW 2880   1.448   6.005   2.837  0.4054 -0.5719  0.7667
  755SOL    HW1 2881   1.371   6.027   2.890  0.9274  0.3335  1.1668
  755SOL    HW2 2882   1.412   5.960   2.760 -0.7301  1.5067 -0.0035
  756SOL     OW 2883   1.142   6.640   3.036 -0.2708  0.6067 -0.2622
  756SOL    HW1 2884   1.186   6.600   2.961  0.0760  0.1728  0.1735
  756SOL    HW2 2885   1.171   6.590   3.111 -0.6134  1.0479  0.1718
  757SOL     OW 2886   3.419   2.696   6.964  0.0051  0.1619 -0.4664
  757SOL    HW1 2887   3.460   2.780   6.942  0.6621  0.1621  0.6771
  757SOL    HW2 2888   3.346   2.688   6.902  1.2694  0.5094 -2.0540
  758SOL     OW 2889   0.312   2.001   6.348  0.0041 -0.8024 -0.2613
  758SOL    HW1 2890   0.388   1.950   6.320 -0.1511 -0.1190 -2.0269
  758SOL    HW2 2891   0.239   1.939   6.347  0.7657 -2.0629  3.5766
  759SOL     OW 2892   6.017   5.377   2.906 -0.0492  0.0022 -0.1460
  759SOL    HW1 2893   5.927   5.379   2.874 -0.2651  0.1878  0.4561
  759SOL    HW2 2894   6.014   5.426   2.989 -0.0652 -2.5796  1.4975
  760SOL     OW 2895   0.376   6.690   0.833  0.0022  0.4373 -0.3767
  760SOL    HW1 2896   0.365   6.693   0.738 -2.1607  0.0960 -0.1871
  760SOL    HW2 2897   0.424   6.770   0.855 -0.2942  0.9745 -1.6439
  761SOL     OW 2898   2.910   5.074   6.289 -0.1564 -0.5096  0.0322
  761SOL    HW1 2899   3.000   5.107   6.282 -1.1020  2.2927 -0.0373
  761SOL    HW2 2900   2.863   5.117   6.218 -1.9877 -0.3176  1.2936
  762SOL     OW 2901   5.317   7.203   4.171 -0.2200  0.2640 -0.7449
  762SOL    HW1 2902   5.366   7.132   4.213  0.2990  0.9584 -0.1597
  762SOL    HW2 2903   5.335   7.280   4.224 -1.9745  0.5553 -0.4862
  763SOL     OW 2904   3.528   2.954   6.827 -0.0263 -0.1285 -0.2281
  763SOL    HW1 2905   3.568   3.021   6.882  2.4276 -0.6419 -1.2610
  763SOL    HW2 2906   3.518   2.995   6.742  0.5701 -0.7541 -0.6090
  764SOL     OW 2907   5.369   2.625   4.379 -1.0194 -0.0403  0.2410
  764SOL    HW1 2908   5.459   2.595   4.366 -0.8990  0.6569 -0.6978
  764SOL    HW2 2909   5.378   2.704   4.433 -0.9335  0.7296 -0.8584
  765SOL     OW 2910   2.790   2.401   4.912 -0.0090  0.8251  0.4716
  765SOL    HW1 2911   2.874   2.437   4.885 -0.7595  1.4214 -1.2589
  765SOL    HW2 2912   2.811   2.314   4.946  1.4442  1.5275  1.4322
  766SOL     OW 2913   0.234   2.837   1.132 -0.5151 -0.3105  0.0218
  766SOL    HW1 2914   0.272   2.787   1.204  0.0898 -0.7515 -0.5932
  766SOL    HW2 2915   0.309   2.871   1.084 -0.8784 -1.1495 -1.1799
  767SOL     OW 2916   5.398   0.560   6.885 -0.5572  0.3665 -0.1106
  767SOL    HW1 2917   5.356   0.631   6.837  1.5280  0.6532 -1.6740
  767SOL    HW2 2918   5.445   0.511   6.818 -0.7960 -1.6721  1.1449
  768SOL     OW 2919   4.113   5.434   2.141  0.1739 -0.4138 -0.5791
  768SOL    HW1 2920   4.120   5.512   2.197 -1.3946 -1.3224  0.9894
  768SOL    HW2 2921   4.112   5.468   2.052  2.9029  1.0977 -0.1400
  769SOL     OW 2922   1.753   1.825   7.246 -0.2094  0.3211  0.3406
  769SOL    HW1 2923   1.774   1.767   7.319 -1.7310 -0.8709 -0.1310
  769SOL    HW2 2924   1.752   1.767   7.169  0.0073  1.3078 -0.4291
  770SOL     OW 2925   4.486   1.741   4.607 -0.4856  0.5839 -0.5880
  770SOL    HW1 2926   4.402   1.724   4.649  0.3835 -0.1682  0.9352
  770SOL    HW2 2927   4.501   1.834   4.620 -0.3475  0.4091  0.5979
  771SOL     OW 2928   0.529   1.078   2.744  0.6751  0.3650  0.3573
  771SOL    HW1 2929   0.443   1.118   2.732  1.2212  1.4842  0.0345
  771SOL    HW2 2930   0.581   1.108   2.669  1.0123 -1.2687 -0.0916
  772SOL     OW 2931   2.735   2.672   7.135  0.3307  0.2831  0.5329
  772SOL    HW1 2932   2.757   2.742   7.074  0.4636  0.6111  0.9535
  772SOL    HW2 2933   2.729   2.594   7.080 -1.2388  0.8617 -0.1728
  773SOL     OW 2934   4.481   2.085   7.242 -0.0362 -0.3556  0.2310
  773SOL    HW1 2935   4.525   2.007   7.209  0.5459 -0.0791  0.3306
  773SOL    HW2 2936   4.415   2.105   7.177  1.5324  0.5712 -1.1396
  774SOL     OW 2937   5.676   4.295   3.374 -0.4800  0.0881  0.7090
  774SOL    HW1 2938   5.692   4.338   3.458  0.0093  0.4787  0.4193
  774SOL    HW2 2939   5.757   4.309   3.324 -0.8781  0.1223  0.0605
  775SOL     OW 2940   3.853   2.016   0.638  0.3124 -0.2513  0.0141
  775SOL    HW1 2941   3.929   2.073   0.626 -0.4750  0.5986 -1.1843
  775SOL    HW2 2942   3.816   2.043   0.722 -0.3290  1.4152 -0.7451
  776SOL     OW 2943   4.130   5.937   1.068  0.1587  0.1745 -0.1288
  776SOL    HW1 2944   4.161   5.858   1.112 -0.1808 -0.1408 -0.4385
  776SOL    HW2 2945   4.080   5.904   0.993 -0.0949  0.6805 -0.1888
  777SOL     OW 2946   6.031   5.908   7.039 -0.0535 -0.3926 -0.5192
  777SOL    HW1 2947   6.107   5.866   7.080  0.3725  1.0189  0.1920
  777SOL    HW2 2948   6.060   5.930   6.951  0.1486 -0.4291 -0.4612
  778SOL     OW 2949   3.185   5.087   2.893  0.1442  0.1431  0.0944
  778SOL    HW1 2950   3.240   5.118   2.965  0.5008 -2.6081  1.0984
  778SOL    HW2 2951   3.151   5.003   2.922 -1.0490 -0.3088 -2.3135
  779SOL     OW 2952   0.927   6.941   3.266  0.2334  0.9244  0.4695
  779SOL    HW1 2953   0.888   7.007   3.208 -1.4693 -2.2625 -2.3981
  779SOL    HW2 2954   1.002   6.908   3.217  0.3592 -0.0469  1.2921
  780SOL     OW 2955   2.760   3.996   5.655  0.0636  0.3504  0.4499
  780SOL    HW1 2956   2.732   4.087   5.651 -0.9555  0.0294  0.0319
  780SOL    HW2 2957   2.724   3.956   5.576  2.1575  0.0202 -0.3922
  781SOL     OW 2958   2.386   4.776   3.217 -0.1066  0.2163  0.2073
  781SOL    HW1 2959   2.336   4.728   3.283  1.5690 -0.9122  0.7283
  781SOL    HW2 2960   2.365   4.732   3.134  1.7615 -1.8724  0.7314
  782SOL     OW 2961   0.329   1.045   1.882 -0.4664 -0.5699  0.4130
  782SOL    HW1 2962   0.369   0.979   1.939 -1.1234 -2.0134 -0.7490
  782SOL    HW2 2963   0.235   1.034   1.895 -0.5907  0.1086  0.1442
  783SOL     OW 2964   0.541   4.301   6.405  0.2390  0.1017 -0.5577
  783SOL    HW1 2965   0.510   4.318   6.316 -0.8664  0.9670 -0.0365
  783SOL    HW2 2966   0.590   4.380   6.429 -1.8238  1.1485  0.5552
  784SOL     OW 2967   4.155   6.123   6.275  0.1030 -0.0493 -0.6811
  784SOL    HW1 2968   4.179   6.031   6.283  1.4080  0.1213 -2.1168
  784SOL    HW2 2969   4.207   6.167   6.343  0.1583 -0.2552 -0.5899
  785SOL     OW 2970   1.845   7.044   0.576  0.2134 -0.2355 -0.3832
  785SOL    HW1 2971   1.919   7.060   0.635 -1.1864 -1.2045  1.7227
  785SOL    HW2 2972   1.875   6.972   0.520  1.9576  1.4045 -1.7105
  786SOL     OW 2973   0.849   1.883   1.518  0.3860  0.2632  0.2255
  786SOL    HW1 2974   0.930   1.880   1.568  1.3485 -1.8424 -1.3323
  786SOL    HW2 2975   0.873   1.925   1.436  0.2653 -1.5031 -0.7577
  787SOL     OW 2976   6.936   3.389   7.021  0.0663  0.2578  0.2622
  787SOL    HW1 2977   6.876   3.388   6.946  1.6658  3.8684 -1.3434
  787SOL    HW2 2978   6.880   3.398   7.097 -1.5207 -0.2122 -0.8017
  788SOL     OW 2979   3.337   2.186   5.726  0.2802  0.1528 -0.1226
  788SOL    HW1 2980   3.310   2.254   5.664 -0.2994 -0.2917 -0.3670
  788SOL    HW2 2981   3.260   2.172   5.781  0.1626 -0.7802 -0.5071
  789SOL     OW 2982   6.635   2.228   0.635 -0.2237  0.0435 -0.6310
  789SOL    HW1 2983   6.643   2.243   0.730 -1.0457 -0.8231 -0.4081
  789SOL    HW2 2984   6.644   2.315   0.596 -1.6672  0.6811  0.3775
  790SOL     OW 2985   3.446   6.337   0.148 -0.1797 -0.2378 -0.4407
  790SOL    HW1 2986   3.385   6.397   0.105 -0.4057 -0.9753 -1.1818
  790SOL    HW2 2987   3.507   6.394   0.195 -0.5975  0.5557 -0.8346
  791SOL     OW 2988   4.828   3.443   5.919  0.1573 -0.4966 -0.1953
  791SOL    HW1 2989   4.741   3.465   5.953 -0.0387 -3.7471  1.8634
  791SOL    HW2 2990   4.886   3.454   5.994  0.8357 -1.8856 -0.4889
  792SOL     OW 2991   5.587   5.923   6.171 -0.0126  0.3126 -0.0786
  792SOL    HW1 2992   5.658   5.964   6.121  1.1960 -1.1469  0.3564
  792SOL    HW2 2993   5.570   5.841   6.125  0.1779 -0.4195  1.1111
  793SOL     OW 2994   1.695   4.645   2.022  0.4719 -0.1689 -0.0415
  793SOL    HW1 2995   1.667   4.650   1.930 -0.1664 -0.2533  0.1442
  793SOL    HW2 2996   1.622   4.683   2.071  0.6671 -0.4294  0.4542
  794SOL     OW 2997   3.366   1.813   1.133  0.0305  0.2618  0.1748
  794SOL    HW1 2998   3.294   1.876   1.136  1.1429  1.5982 -0.0198
  794SOL    HW2 2999   3.333   1.741   1.078 -0.9932  1.0420 -0.2606
  795SOL     OW 3000   7.056   6.001   1.581  0.3863  0.2350  0.1505
  795SOL    HW1 3001   7.124   5.934   1.582 -0.3022 -0.4940 -0.3651
  795SOL    HW2 3002   7.104   6.084   1.581  1.2999 -0.2653 -0.9248
  796SOL     OW 3003   0.996   4.289   4.714  0.0031  0.1812 -0.4220
  796SOL    HW1 3004   1.050   4.211   4.708  0.3974  0.4244 -0.1293
  796SOL    HW2 3005   1.019   4.340   4.636 -0.5393 -0.1671 -0.8154
  797SOL     OW 3006   2.860   4.382   4.607  0.1838  0.4820  0.1658
  797SOL    HW1 3007   2.780   4.337   4.632  0.2100  0.4269  0.1508
  797SOL    HW2 3008   2.864   4.373   4.512  0.5859 -0.1554  0.2294
  798SOL     OW 3009   3.423   2.095   3.557  0.2892  0.8151 -0.1831
  798SOL    HW1 3010   3.462   2.168   3.508  0.8619  0.9013  0.3901
  798SOL    HW2 3011   3.459   2.104   3.645  0.8758 -0.5425 -0.2657
  799SOL     OW 3012   5.180   4.816   4.653  0.0506  0.5927 -0.2185
  799SOL    HW1 3013   5.089   4.843   4.644  0.0334  0.2732 -1.1223
  799SOL    HW2 3014   5.226   4.863   4.584  1.0780  2.8206  1.8653
  800SOL     OW 3015   0.231   6.937   5.033  0.6642  0.4257 -0.2901
  800SOL    HW1 3016   0.307   6.984   5.066  0.3955 -0.1415  1.1919
  800SOL    HW2 3017   0.177   7.005   4.992  1.7324  0.8938 -0.9752
  801SOL     OW 3018   0.965   5.115   7.232 -0.2518 -0.3446 -0.0895
  801SOL    HW1 3019   0.895   5.178   7.248 -0.8913 -1.0636 -0.0046
  801SOL    HW2 3020   0.921   5.030   7.230  0.4980 -0.7279 -0.9078
  802SOL     OW 3021   3.096   3.539   4.425 -0.3350 -0.1061  0.1229
  802SOL    HW1 3022   3.085   3.580   4.511 -0.2549  1.2698 -0.5007
  802SOL    HW2 3023   3.014   3.557   4.379  0.6978  1.7769 -1.1126
  803SOL     OW 3024   3.128   6.061   3.272  0.1293 -0.2281  0.2780
  803SOL    HW1 3025   3.111   6.032   3.183  1.1376  0.8135 -0.2868
  803SOL    HW2 3026   3.044   6.095   3.303  0.1309  0.9412 -0.9015
  804SOL     OW 3027   4.531   1.699   5.080 -0.0837  0.0546  0.0580
  804SOL    HW1 3028   4.479   1.723   5.003  1.4924  0.7384 -0.8528
  804SOL    HW2 3029   4.546   1.781   5.126  2.3259  0.3840 -1.1342
  805SOL     OW 3030   3.686   0.893   4.477 -0.0455  0.1116  0.0185
  805SOL    HW1 3031   3.635   0.972   4.496 -2.1973 -1.0796 -0.4551
  805SOL    HW2 3032   3.776   0.918   4.494 -0.6639  2.6407 -0.0107
  806SOL     OW 3033   1.366   0.099   3.652 -0.4899  0.2775 -0.0681
  806SOL    HW1 3034   1.395   0.120   3.563 -0.8502 -0.1912 -0.3003
  806SOL    HW2 3035   1.277   0.066   3.641 -0.4834  0.0774  0.4542
  807SOL     OW 3036   7.086   5.939   4.608  0.0874 -0.3081  0.0231
  807SOL    HW1 3037   7.083   5.969   4.699  2.3302  1.7934 -0.4803
  807SOL    HW2 3038   7.118   5.849   4.613  2.0729  0.4103  1.2798
  808SOL     OW 3039   4.114   0.014   4.775 -0.3017  0.1521  0.3265
  808SOL    HW1 3040   4.173   0.071   4.823 -0.3041  0.6149 -0.2100
  808SOL    HW2 3041   4.096  -0.059   4.835  2.3196 -1.0198 -0.1530
  809SOL     OW 3042   5.178   5.682   3.445  0.8394  0.3017 -0.2438
  809SOL    HW1 3043   5.267   5.650   3.459  0.3520 -0.8640  0.4370
  809SOL    HW2 3044   5.166   5.678   3.351  1.0550 -0.9364 -0.2474
  810SOL     OW 3045   1.135   3.486   0.150 -0.5193  0.3744 -0.6812
  810SOL    HW1 3046   1.053   3.517   0.188  0.1880  0.5892  0.7432
  810SOL    HW2 3047   1.201   3.549   0.182  0.0306  1.0118 -2.8919
  811SOL     OW 3048   5.734   4.092   1.564  0.1245 -0.0841 -0.5712
  811SOL    HW1 3049   5.772   4.111   1.650 -1.6952  0.4007  0.1754
  811SOL    HW2 3050   5.806   4.055   1.514  0.7383 -2.5175  1.8480
  812SOL     OW 3051   1.607   5.883   0.781  0.3084 -0.4227  0.2242
  812SOL    HW1 3052   1.663   5.954   0.814  0.8430 -0.1753 -1.1503
  812SOL    HW2 3053   1.567   5.920   0.703 -0.7222 -1.0840  0.4272
  813SOL     OW 3054   1.218   7.083   3.658 -0.4758  0.0724 -0.0084
  813SOL    HW1 3055   1.199   7.106   3.567  2.4607  1.0981 -0.4747
  813SOL    HW2 3056   1.199   6.989   3.664 -0.3299 -0.1069 -1.8060
  814SOL     OW 3057   6.109   4.155   5.228  0.1789 -0.2578  0.2901
  814SOL    HW1 3058   6.193   4.196   5.248 -0.8650  1.7094  0.9505
  814SOL    HW2 3059   6.122   4.062   5.246  2.8195 -0.3950 -1.7201
  815SOL     OW 3060   0.376   6.557   3.546 -0.5582 -0.2806  0.4492
  815SOL    HW1 3061   0.398   6.467   3.522 -2.2485 -0.9803  1.3521
  815SOL    HW2 3062   0.292   6.573   3.502 -1.8229 -0.2866  2.7283
  816SOL     OW 3063   1.464   2.506   1.188  0.2308 -0.3303 -0.1579
  816SOL    HW1 3064   1.540   2.468   1.232  1.2396  2.2628  0.5007
  816SOL    HW2 3065   1.426   2.566   1.252 -0.6923  0.5001 -1.4240
  817SOL     OW 3066   6.530   3.294   5.520  0.3085 -0.0467  0.1215
  817SOL    HW1 3067   6.451   3.270   5.471  0.1409  2.1014 -0.7851
  817SOL    HW2 3068   6.601   3.250   5.473  0.0044  0.9693 -1.3809
  818SOL     OW 3069   5.776   0.570   4.131  0.1339 -0.0550 -0.4976
  818SOL    HW1 3070   5.690   0.543   4.165 -0.0220  0.6211 -0.3410
  818SOL    HW2 3071   5.771   0.555   4.037  0.5492 -1.9039 -0.2541
  819SOL     OW 3072   2.820   6.011   0.402  0.0213  0.0508  0.0289
  819SOL    HW1 3073   2.904   5.977   0.371 -0.0524 -0.6613  0.5962
  819SOL    HW2 3074   2.818   5.989   0.495 -0.8420 -0.0135  0.0018
  820SOL     OW 3075   4.885   5.769   0.228  0.5728  0.0493  0.2663
  820SOL    HW1 3076   4.963   5.757   0.174  0.7229 -0.4051  0.5842
  820SOL    HW2 3077   4.874   5.686   0.274 -1.7565 -0.9798 -1.9385
  821SOL     OW 3078   3.337   6.306   0.686 -0.1883  0.3404  0.3962
  821SOL    HW1 3079   3.344   6.351   0.602  2.3024 -0.2305  0.2092
  821SOL    HW2 3080   3.367   6.217   0.667  1.0062  0.3717  1.9977
  822SOL     OW 3081   3.250   3.163   5.367  0.0222  0.3732 -0.2808
  822SOL    HW1 3082   3.340   3.131   5.366 -0.7204 -2.1178  1.6742
  822SOL    HW2 3083   3.257   3.257   5.348  2.9598  0.2010 -0.4148
  823SOL     OW 3084   4.734   0.475   6.802 -0.7018  0.0486 -0.3642
  823SOL    HW1 3085   4.706   0.494   6.891 -0.9952  1.6939 -0.7767
  823SOL    HW2 3086   4.826   0.452   6.809  0.0509  2.9207  0.0850
  824SOL     OW 3087   5.569   6.199   2.837 -0.2002 -0.0593  0.3352
  824SOL    HW1 3088   5.510   6.188   2.910 -0.5979 -0.2944 -0.0163
  824SOL    HW2 3089   5.656   6.185   2.874 -0.3062  0.8875  0.9785
  825SOL     OW 3090   1.130   3.178   3.774  0.1268  0.5164 -0.1730
  825SOL    HW1 3091   1.099   3.265   3.798  0.3417  0.3419  0.7862
  825SOL    HW2 3092   1.212   3.168   3.822 -0.7168 -0.8546  1.0583
  826SOL     OW 3093   6.413   4.812   0.425  0.0549 -0.2161  0.5385
  826SOL    HW1 3094   6.326   4.803   0.464  0.8585 -0.2890  2.3765
  826SOL    HW2 3095   6.398   4.800   0.331 -1.7765 -1.2209  0.9164
  827SOL     OW 3096   0.631   3.063   3.170  0.6106  0.1786  0.2569
  827SOL    HW1 3097   0.575   3.117   3.225  0.6881  0.6617 -0.1234
  827SOL    HW2 3098   0.641   2.981   3.218 -0.0569  0.2519  0.5334
  828SOL     OW 3099   2.403   6.062   4.292 -0.0616 -0.1551  0.2018
  828SOL    HW1 3100   2.339   6.054   4.221 -0.2988  1.0231  0.2539
  828SOL    HW2 3101   2.464   6.129   4.262 -0.0351  0.1962  1.0052
  829SOL     OW 3102   5.053   3.654   1.024  0.4127 -0.5838 -0.1035
  829SOL    HW1 3103   4.979   3.649   0.964 -0.2043 -1.2083  0.6870
  829SOL    HW2 3104   5.117   3.709   0.979 -0.2614 -0.5802 -1.0811
  830SOL     OW 3105   4.014   5.588   3.414 -0.0628  0.0116 -0.2005
  830SOL    HW1 3106   4.029   5.510   3.466 -0.7068  0.4148  0.6088
  830SOL    HW2 3107   3.930   5.623   3.446 -0.6694  0.0698 -1.7499
  831SOL     OW 3108   1.547   4.831   5.318 -0.4147 -0.0224  0.1763
  831SOL    HW1 3109   1.642   4.845   5.312 -0.1854 -1.8562 -1.7222
  831SOL    HW2 3110   1.510   4.894   5.256 -0.2586 -0.5024 -0.4198
  832SOL     OW 3111   1.685   0.489   1.492 -0.7320  0.2793 -0.1040
  832SOL    HW1 3112   1.777   0.465   1.508 -0.4157  1.2049 -0.4018
  832SOL    HW2 3113   1.690   0.582   1.467 -1.6786  0.1292 -0.8675
  833SOL     OW 3114   3.480   7.134   5.291 -0.3719 -0.4268 -0.4180
  833SOL    HW1 3115   3.414   7.101   5.231 -1.5557 -0.7628  1.0145
  833SOL    HW2 3116   3.439   7.131   5.377  0.5008  2.0186  0.1846
  834SOL     OW 3117   6.114   4.228   2.794  0.6352  0.1317 -0.0047
  834SOL    HW1 3118   6.133   4.155   2.854  0.5510  0.4107  0.3642
  834SOL    HW2 3119   6.178   4.295   2.817  0.5302  0.2850 -0.1566
  835SOL     OW 3120   3.304   1.696   6.001 -0.5253  0.3728  0.6733
  835SOL    HW1 3121   3.344   1.612   6.022  1.9214  1.4453  0.6536
  835SOL    HW2 3122   3.229   1.674   5.946  0.4663 -1.7489  0.0609
  836SOL     OW 3123   1.437   7.249   2.328 -0.4769  0.3063  0.4362
  836SOL    HW1 3124   1.352   7.288   2.309 -0.1705  0.7004 -0.1139
  836SOL    HW2 3125   1.416   7.170   2.378 -1.1410  0.6400  0.6934
  837SOL     OW 3126   6.099   5.224   5.772 -0.0343 -0.0195 -0.6155
  837SOL    HW1 3127   6.195   5.217   5.770  0.2515  2.6930 -1.6114
  837SOL    HW2 3128   6.083   5.310   5.812 -2.1108 -0.6465  0.0200
  838SOL     OW 3129   2.863   3.174   6.533  0.2138  0.9370 -0.2871
  838SOL    HW1 3130   2.931   3.237   6.557  1.1775 -0.4299  0.7650
  838SOL    HW2 3131   2.842   3.193   6.442  2.0610  1.3662 -0.6481
  839SOL     OW 3132   1.523   3.392   5.551  0.3921  0.1481 -0.2593
  839SOL    HW1 3133   1.493   3.413   5.639  0.0548 -3.8515  0.7520
  839SOL    HW2 3134   1.619   3.388   5.558  0.3098 -1.3381  0.2964
  840SOL     OW 3135   6.088   4.596   5.809  0.2867 -0.1558  0.8092
  840SOL    HW1 3136   6.074   4.681   5.851  1.3230  0.7959 -0.6497
  840SOL    HW2 3137   6.000   4.564   5.789 -0.1064  0.8880  0.8070
  841SOL     OW 3138   4.620   3.305   2.476  0.0882 -0.4286  0.2730
  841SOL    HW1 3139   4.620   3.229   2.534 -0.4227  0.0247  0.8913
  841SOL    HW2 3140   4.697   3.355   2.503 -0.3112 -0.0730  0.7639
  842SOL     OW 3141   2.004   5.827   5.908  0.1420  0.0774  0.4493
  842SOL    HW1 3142   1.916   5.789   5.903 -0.3767  1.2187  0.5232
  842SOL    HW2 3143   1.993   5.917   5.878  0.9988  0.6791  1.8479
  843SOL     OW 3144   4.393   6.675   3.071  0.6009  0.0226 -0.5022
  843SOL    HW1 3145   4.399   6.619   2.994  0.6150  0.2475 -0.6663
  843SOL    HW2 3146   4.447   6.631   3.137  1.5683  0.4286 -0.9964
  844SOL     OW 3147   4.709   2.637   4.131 -0.1115  0.2098 -0.2017
  844SOL    HW1 3148   4.741   2.727   4.144 -0.8409  0.5458 -0.6574
  844SOL    HW2 3149   4.631   2.647   4.077  0.9888 -0.8464 -2.1237
  845SOL     OW 3150   1.695   6.858   7.029 -0.1704  0.0133  0.6857
  845SOL    HW1 3151   1.777   6.905   7.045  0.8279 -1.7210  0.9903
  845SOL    HW2 3152   1.670   6.881   6.940  0.5865  0.6621  0.6315
  846SOL     OW 3153   0.823   1.441   1.832  0.0680 -0.3389  0.1107
  846SOL    HW1 3154   0.743   1.391   1.846  0.4743 -0.3884  2.8727
  846SOL    HW2 3155   0.890   1.376   1.812 -0.0777 -0.5746  0.3860
  847SOL     OW 3156   1.265   6.693   2.712  0.1035 -0.0482  0.1414
  847SOL    HW1 3157   1.277   6.613   2.763 -1.2004  0.8499  1.9537
  847SOL    HW2 3158   1.174   6.717   2.726  0.0156  0.8848 -1.7330
  848SOL     OW 3159   1.598   0.935   1.721  0.1126  0.0948  0.2125
  848SOL    HW1 3160   1.691   0.922   1.740 -0.0605 -1.9112 -0.1495
  848SOL    HW2 3161   1.556   0.935   1.807  0.3330 -0.0367  0.3213
  849SOL     OW 3162   6.341   1.712   1.171 -0.3431 -0.1102 -0.1468
  849SOL    HW1 3163   6.418   1.662   1.199  0.2274  1.5364  1.4006
  849SOL    HW2 3164   6.346   1.712   1.075  0.9514 -0.9984 -0.0991
  850SOL     OW 3165   3.995   4.862   0.444  0.4656 -0.6980 -0.1040
  850SOL    HW1 3166   4.005   4.914   0.364  0.9456 -1.9291 -0.8847
  850SOL    HW2 3167   3.916   4.810   0.429  0.9749 -1.4890 -0.1266
  851SOL     OW 3168   1.848   3.298   0.596 -0.1371  0.3787 -0.1917
  851SOL    HW1 3169   1.854   3.210   0.634  0.5018  0.6791  0.4154
  851SOL    HW2 3170   1.905   3.294   0.519  0.5529  0.4973  0.3046
  852SOL     OW 3171   1.522   6.043   6.452  0.2117  0.5196  0.3510
  852SOL    HW1 3172   1.566   5.968   6.491 -0.8677  0.1330  0.8729
  852SOL    HW2 3173   1.432   6.038   6.486 -0.0480  1.6660 -0.1345
  853SOL     OW 3174   5.959   5.473   3.159 -0.8484 -0.4149 -0.5387
  853SOL    HW1 3175   5.920   5.420   3.229 -0.1924 -0.7737 -0.4473
  853SOL    HW2 3176   6.030   5.521   3.202 -1.7398  0.9305 -0.5019
  854SOL     OW 3177   7.124   4.544   5.826  0.0956 -0.5331 -0.4519
  854SOL    HW1 3178   7.030   4.548   5.845 -0.2682  0.1784 -2.2566
  854SOL    HW2 3179   7.133   4.576   5.736  2.0535 -0.7752 -0.4012
  855SOL     OW 3180   1.571   4.475   0.142 -0.0488  0.2114 -0.6789
  855SOL    HW1 3181   1.564   4.561   0.101  0.8583  1.0860  0.9138
  855SOL    HW2 3182   1.569   4.493   0.236  0.5847 -1.4735 -0.3095
  856SOL     OW 3183   1.618   3.206   5.237 -0.5071  0.0961 -0.5736
  856SOL    HW1 3184   1.564   3.256   5.297  0.5147  0.9375 -0.3210
  856SOL    HW2 3185   1.704   3.247   5.242 -0.4190  0.2877 -2.7164
  857SOL     OW 3186   2.086   5.083   3.708 -0.1424 -0.4762 -0.4617
  857SOL    HW1 3187   2.054   5.125   3.627  0.0824  0.6587  0.0221
  857SOL    HW2 3188   2.112   5.156   3.764 -1.2112 -1.1911  1.0373
  858SOL     OW 3189   1.093   3.432   3.903  0.3160 -0.0405  0.3389
  858SOL    HW1 3190   1.145   3.464   3.977  1.2083  0.2111 -0.3816
  858SOL    HW2 3191   1.076   3.510   3.850  0.1048 -0.3032  0.0185
  859SOL     OW 3192   4.466   0.149   3.619 -0.3093 -0.4151  0.6806
  859SOL    HW1 3193   4.457   0.211   3.547  0.7860 -1.0768 -0.0562
  859SOL    HW2 3194   4.505   0.200   3.690  1.2011 -0.3864 -0.1370
  860SOL     OW 3195   4.955   4.972   7.019 -0.1399  0.0845 -0.3878
  860SOL    HW1 3196   5.030   4.987   7.077 -0.5401  0.1751  0.1136
  860SOL    HW2 3197   4.982   4.899   6.963 -0.2959 -1.0121  0.9034
  861SOL     OW 3198   5.517   5.573   0.921  0.3157 -0.5022  0.2525
  861SOL    HW1 3199   5.467   5.498   0.953  2.4840 -2.2763 -0.3112
  861SOL    HW2 3200   5.543   5.548   0.832  2.3957  0.2059  0.6058
  862SOL     OW 3201   2.340   2.477   6.282  0.3528 -0.1353 -0.1898
  862SOL    HW1 3202   2.303   2.443   6.201  1.3442 -0.7321 -0.4018
  862SOL    HW2 3203   2.337   2.403   6.343 -0.4056  0.3143  0.3368
  863SOL     OW 3204   6.462   2.738   2.354 -0.0935  0.7392 -0.0017
  863SOL    HW1 3205   6.547   2.719   2.394 -0.0627 -0.4791 -0.5764
  863SOL    HW2 3206   6.481   2.803   2.287  0.3719  0.5503 -0.0566
  864SOL     OW 3207   4.907   1.325   7.037 -0.8028  0.1698  0.3494
  864SOL    HW1 3208   4.885   1.304   6.946  0.2715  2.0157 -0.3834
  864SOL    HW2 3209   4.825   1.359   7.074 -1.2766 -0.6989  0.1333
  865SOL     OW 3210   5.081   2.747   3.867  0.2733  0.3366 -0.0869
  865SOL    HW1 3211   5.015   2.814   3.888  0.5430  1.3621 -2.1931
  865SOL    HW2 3212   5.164   2.785   3.895  0.2544  0.2220  0.1203
  866SOL     OW 3213   5.380   4.799   7.250  0.3125 -0.1165 -0.0825
  866SOL    HW1 3214   5.285   4.797   7.237  0.1453 -2.5165  1.0347
  866SOL    HW2 3215   5.391   4.814   7.344  1.1303  2.1383 -0.4926
  867SOL     OW 3216   6.414   0.513   3.210 -0.7780 -0.0644 -0.7716
  867SOL    HW1 3217   6.341   0.568   3.178  0.2770  0.9190 -1.5971
  867SOL    HW2 3218   6.464   0.572   3.266 -0.1609 -0.4805 -0.8864
  868SOL     OW 3219   4.525   4.400   2.613 -0.5283  0.8600  0.3402
  868SOL    HW1 3220   4.468   4.467   2.652 -0.8474  0.7265  0.1038
  868SOL    HW2 3221   4.476   4.318   2.622  0.7019  0.2841  2.4760
  869SOL     OW 3222   4.287   4.496   1.345 -0.3424 -0.0989  0.6327
  869SOL    HW1 3223   4.301   4.525   1.255  1.5542 -0.9465  0.6066
  869SOL    HW2 3224   4.259   4.405   1.338 -0.2998 -0.1344  0.8918
  870SOL     OW 3225   3.976   1.176   7.219  0.9029  0.2803 -0.4758
  870SOL    HW1 3226   4.024   1.203   7.141  1.0426 -0.3036 -0.6007
  870SOL    HW2 3227   4.021   1.218   7.291  1.3504  0.0674 -0.6313
  871SOL     OW 3228   5.632   0.306   0.701 -0.5355  0.0514  0.2721
  871SOL    HW1 3229   5.724   0.317   0.677 -0.2751 -0.9716  0.7635
  871SOL    HW2 3230   5.593   0.258   0.628  0.4939 -4.0162  2.1025
  872SOL     OW 3231   1.221   1.328   0.722 -0.0102 -0.5533 -0.0132
  872SOL    HW1 3232   1.169   1.383   0.780 -0.0898  1.5231 -1.9074
  872SOL    HW2 3233   1.293   1.295   0.776 -0.2381  1.0575  1.3204
  873SOL     OW 3234   6.609   1.970   1.811 -0.1317  0.4005  0.2526
  873SOL    HW1 3235   6.618   1.948   1.903 -0.2524  0.7264  0.3444
  873SOL    HW2 3236   6.627   1.888   1.764  2.0571  0.7202  0.4623
  874SOL     OW 3237   0.061   1.236   0.768 -0.3645 -0.1838 -0.9402
  874SOL    HW1 3238  -0.032   1.225   0.789 -0.7501  0.5942 -2.1202
  874SOL    HW2 3239   0.090   1.305   0.827 -0.5691 -0.3340 -0.6588
  875SOL     OW 3240   4.565   3.948   2.698  0.2272  0.1557  0.3267
  875SOL    HW1 3241   4.540   3.868   2.745 -2.2535  1.7006  1.8553
  875SOL    HW2 3242   4.635   3.986   2.752 -0.7590  0.5718  1.3390
  876SOL     OW 3243   3.084   5.842   2.739 -0.2555 -0.2642 -0.0003
  876SOL    HW1 3244   3.033   5.827   2.820  1.0643 -0.2523  0.8607
  876SOL    HW2 3245   3.048   5.923   2.703 -0.6597 -0.1043  0.7363
  877SOL     OW 3246   1.252   2.122   4.560 -0.0323  0.4196 -0.2553
  877SOL    HW1 3247   1.314   2.098   4.628  0.4580  1.6503 -0.2443
  877SOL    HW2 3248   1.166   2.098   4.595  0.1541  1.5648  1.0504
  878SOL     OW 3249   1.488   3.177   0.474 -0.1199 -0.1080  0.2557
  878SOL    HW1 3250   1.493   3.234   0.550 -1.5730  0.8332 -0.3048
  878SOL    HW2 3251   1.567   3.123   0.479  2.5839  3.3978 -0.3546
  879SOL     OW 3252   0.296   1.987   5.855 -0.6102  0.3557  0.4180
  879SOL    HW1 3253   0.268   2.029   5.936 -3.1287 -0.0572 -0.1566
  879SOL    HW2 3254   0.260   1.898   5.860  0.7337 -0.2748 -0.3843
  880SOL     OW 3255   0.244   4.882   3.393 -0.0775 -0.0662  0.4460
  880SOL    HW1 3256   0.200   4.826   3.329 -0.3760  2.8758 -2.2177
  880SOL    HW2 3257   0.176   4.901   3.459 -1.0649 -0.0618 -0.5420
  881SOL     OW 3258   5.625   5.324   2.056  0.2302  0.8003 -0.0064
  881SOL    HW1 3259   5.532   5.303   2.057  0.1589  0.5665 -2.6903
  881SOL    HW2 3260   5.664   5.255   2.002  2.0297  0.7522  1.2664
  882SOL     OW 3261   2.098   0.003   5.227  0.0167 -0.0104 -0.2876
  882SOL    HW1 3262   2.023   0.009   5.286 -0.5987  0.2627 -1.0832
  882SOL    HW2 3263   2.060  -0.016   5.142  0.7954  0.8746 -0.8486
  883SOL     OW 3264   6.368   2.796   2.789  0.9686  0.3021 -0.3123
  883SOL    HW1 3265   6.400   2.800   2.879  0.9008  0.2242 -0.2851
  883SOL    HW2 3266   6.326   2.881   2.775 -0.3591 -0.2394  0.2303
  884SOL     OW 3267   4.030   6.521   0.601 -0.0603  0.2055 -0.1623
  884SOL    HW1 3268   3.981   6.451   0.557 -0.2667  0.6559 -0.6628
  884SOL    HW2 3269   4.045   6.488   0.689  1.0005 -1.0237 -0.7791
  885SOL     OW 3270   6.433   6.496   2.233  0.3687 -0.1114  0.3778
  885SOL    HW1 3271   6.392   6.445   2.163 -2.5850  2.9324 -0.4156
  885SOL    HW2 3272   6.479   6.566   2.187  1.5964 -0.1749  1.4622
  886SOL     OW 3273   6.360   6.018   0.716  0.4488 -0.2305  0.1874
  886SOL    HW1 3274   6.319   5.994   0.799  2.0290 -0.0282  1.0659
  886SOL    HW2 3275   6.328   6.107   0.699  0.6595  0.0028  0.9517
  887SOL     OW 3276   0.383   1.503   1.938 -0.0269 -0.1546  0.0404
  887SOL    HW1 3277   0.440   1.571   1.975  1.4018 -0.8143 -0.8740
  887SOL    HW2 3278   0.387   1.517   1.844 -1.2893 -0.3167 -0.0478
  888SOL     OW 3279   2.710   2.120   5.017 -0.5586  0.0792  0.3767
  888SOL    HW1 3280   2.733   2.123   5.110  0.8778  1.0656  0.0299
  888SOL    HW2 3281   2.753   2.042   4.984 -1.1569 -0.3290  0.5604
  889SOL     OW 3282   0.931   5.064   4.843 -0.2611 -0.1346 -0.3988
  889SOL    HW1 3283   0.928   4.978   4.884  0.6764  0.3597  0.7674
  889SOL    HW2 3284   1.024   5.086   4.840 -0.4709  0.7371 -0.8997
  890SOL     OW 3285   5.702   0.341   2.033  0.6423  0.0278  0.3345
  890SOL    HW1 3286   5.762   0.274   2.064  0.7465 -0.1537 -0.2407
  890SOL    HW2 3287   5.718   0.416   2.090  0.8046 -0.3023  0.7292
  891SOL     OW 3288   5.665   1.953   2.868  0.6436  0.1684  0.3315
  891SOL    HW1 3289   5.623   1.925   2.786  0.2456  0.6264  0.3724
  891SOL    HW2 3290   5.727   1.883   2.889  0.3594 -0.2096 -0.0790
  892SOL     OW 3291   3.677   0.848   3.341  0.7362 -0.3186  0.6389
  892SOL    HW1 3292   3.585   0.873   3.335  0.9464  0.3661  0.1574
  892SOL    HW2 3293   3.687   0.817   3.431 -0.2493 -1.6163  0.3384
  893SOL     OW 3294   7.104   5.211   3.104  0.3720 -0.5698 -0.2391
  893SOL    HW1 3295   7.079   5.284   3.047  1.0765 -1.1914 -1.3881
  893SOL    HW2 3296   7.028   5.153   3.103  0.4855 -0.7228 -0.8194
  894SOL     OW 3297   3.394   1.781   7.220  0.2988 -0.2033 -0.2285
  894SOL    HW1 3298   3.388   1.784   7.316  0.1488  1.0014 -0.2696
  894SOL    HW2 3299   3.486   1.759   7.203  0.0975 -1.4717  0.1869
  895SOL     OW 3300   6.934   3.639   4.421  0.3238 -0.4984  0.0592
  895SOL    HW1 3301   6.876   3.690   4.478 -0.2449  0.2762 -1.1608
  895SOL    HW2 3302   6.884   3.629   4.340  2.0042  0.4904 -1.1596
  896SOL     OW 3303   2.578   6.623   3.327  0.3839  0.5377  0.3059
  896SOL    HW1 3304   2.534   6.707   3.316  1.4495  1.1420  0.4782
  896SOL    HW2 3305   2.569   6.579   3.242 -0.0817  0.8622  0.1851
  897SOL     OW 3306   1.383   1.076   5.595 -0.5630  0.0817 -0.0525
  897SOL    HW1 3307   1.392   1.106   5.686  2.5912 -0.7517  0.0464
  897SOL    HW2 3308   1.419   0.987   5.596  0.6794  0.5028 -2.2915
  898SOL     OW 3309   2.092   7.017   6.090 -0.0547  0.1929 -0.3161
  898SOL    HW1 3310   2.036   7.090   6.064 -1.4944 -0.7209  0.1010
  898SOL    HW2 3311   2.046   6.940   6.057  0.4731 -0.6516  0.8627
  899SOL     OW 3312   2.900   5.405   2.621  0.2263  0.1929  0.2438
  899SOL    HW1 3313   2.839   5.429   2.691  0.0721  0.5021 -0.0003
  899SOL    HW2 3314   2.952   5.334   2.660  1.2165  1.4146  1.2455
  900SOL     OW 3315   1.346   0.724   6.675  0.2255 -0.0072 -0.3638
  900SOL    HW1 3316   1.433   0.744   6.711  0.1235 -2.1148  1.2606
  900SOL    HW2 3317   1.350   0.755   6.585  2.5812  0.2234 -0.2538
  901SOL     OW 3318   7.234   4.044   4.986 -0.0863  0.5636  0.2243
  901SOL    HW1 3319   7.152   4.092   4.994 -0.4784 -0.2989  1.8693
  901SOL    HW2 3320   7.215   3.958   5.025  1.3474  0.0348 -0.1865
  902SOL     OW 3321   3.253   1.877   3.279  0.5732 -0.3574  0.0092
  902SOL    HW1 3322   3.337   1.836   3.257  0.6610 -0.5659  0.6963
  902SOL    HW2 3323   3.190   1.836   3.220  0.6345 -1.6070  0.7699
  903SOL     OW 3324   1.931   2.260   3.612  0.0634  0.3875  0.5704
  903SOL    HW1 3325   2.011   2.230   3.569 -0.7347 -0.4618 -0.3857
  903SOL    HW2 3326   1.876   2.182   3.617 -0.9740  1.0990  0.6051
  904SOL     OW 3327   3.045   3.180   0.218 -0.3180  0.3241  0.0585
  904SOL    HW1 3328   3.036   3.206   0.127  1.4485 -0.6762 -0.4445
  904SOL    HW2 3329   3.069   3.260   0.264 -2.5157  1.1300 -0.0543
  905SOL     OW 3330   0.131   1.074   3.085  0.1006 -0.1652 -0.4774
  905SOL    HW1 3331   0.045   1.113   3.104  0.2706 -0.7762  1.9936
  905SOL    HW2 3332   0.174   1.136   3.027 -2.1115 -0.0011 -2.0776
  906SOL     OW 3333   3.220   3.175   2.733  0.6469  0.3637  0.0757
  906SOL    HW1 3334   3.203   3.165   2.826 -0.1006 -0.0630 -0.1005
  906SOL    HW2 3335   3.148   3.229   2.701  0.9661  0.6124 -0.2369
  907SOL     OW 3336   0.061   4.944   3.588  0.7249  0.0409  0.1343
  907SOL    HW1 3337   0.042   4.936   3.681 -0.7340  1.1234 -0.0480
  907SOL    HW2 3338  -0.020   4.977   3.549  0.7914 -1.8317 -1.7663
  908SOL     OW 3339   4.266   6.475   5.791  0.2982  0.1860  0.5608
  908SOL    HW1 3340   4.347   6.524   5.777  0.4509 -0.3225 -0.3966
  908SOL    HW2 3341   4.201   6.518   5.736  0.2287 -0.1649  0.3616
  909SOL     OW 3342   1.101   0.123   5.037 -0.8249 -0.0454 -0.3723
  909SOL    HW1 3343   1.106   0.137   5.132  2.4004  0.8203 -0.5396
  909SOL    HW2 3344   1.136   0.034   5.025  0.0535  0.3495 -0.8076
  910SOL     OW 3345   5.862   2.040   1.425  0.0488 -0.5851 -0.3501
  910SOL    HW1 3346   5.915   2.116   1.451 -0.9308  0.4411 -1.2457
  910SOL    HW2 3347   5.899   1.967   1.475  1.1098  0.4452  0.4331
  911SOL     OW 3348   3.661   5.049   0.023 -0.2066 -0.2277 -0.2297
  911SOL    HW1 3349   3.570   5.078   0.029 -0.0935  0.2364 -0.6915
  911SOL    HW2 3350   3.686   5.027   0.113 -0.7089 -0.1492 -0.0728
  912SOL     OW 3351   2.386   4.907   4.697 -0.1527 -0.3698 -0.2988
  912SOL    HW1 3352   2.476   4.893   4.727 -0.7782 -1.2565  1.2711
  912SOL    HW2 3353   2.383   4.866   4.610  0.6721 -1.3030  0.0906
  913SOL     OW 3354   0.226   1.580   2.972  0.3463  0.3538  0.0633
  913SOL    HW1 3355   0.261   1.506   3.022  1.0096  0.3139 -0.4491
  913SOL    HW2 3356   0.216   1.546   2.883 -1.3317  0.2607  0.2406
  914SOL     OW 3357   6.239   1.029   1.670 -0.0079 -0.1426  0.2620
  914SOL    HW1 3358   6.165   1.046   1.729 -1.2136 -2.6218 -0.3896
  914SOL    HW2 3359   6.198   1.018   1.584  0.9371 -2.3919  0.0242
  915SOL     OW 3360   6.840   5.052   2.542  0.1397 -0.0281 -0.0023
  915SOL    HW1 3361   6.822   4.964   2.510 -1.5832 -0.0623  0.9448
  915SOL    HW2 3362   6.934   5.063   2.529  0.0814 -1.2482 -1.9384
  916SOL     OW 3363   6.241   5.522   5.620 -0.6558  0.1362  0.0696
  916SOL    HW1 3364   6.234   5.493   5.711  1.3981 -2.6151 -0.5153
  916SOL    HW2 3365   6.270   5.613   5.626 -0.7716  0.0938  2.1572
  917SOL     OW 3366   0.992   4.293   1.135  0.2819 -0.4850 -0.2087
  917SOL    HW1 3367   0.907   4.269   1.098 -0.3023  0.6653  0.3521
  917SOL    HW2 3368   1.043   4.323   1.060 -0.0857 -0.3844 -0.4201
  918SOL     OW 3369   6.130   2.285   3.264 -0.3292 -0.4592 -0.4831
  918SOL    HW1 3370   6.071   2.307   3.192 -0.7859  1.0467  0.3093
  918SOL    HW2 3371   6.214   2.267   3.222 -0.7430 -0.2226 -1.4340
  919SOL     OW 3372   5.996   2.252   1.573  0.6669  0.5923  0.3523
  919SOL    HW1 3373   6.037   2.321   1.521  0.4690  0.1472 -0.4098
  919SOL    HW2 3374   5.937   2.299   1.632 -0.3759  1.0284 -0.9814
  920SOL     OW 3375   4.338   0.324   1.686  0.2662  0.1077  0.6724
  920SOL    HW1 3376   4.298   0.285   1.764 -2.7220 -0.8460 -1.1509
  920SOL    HW2 3377   4.289   0.405   1.673 -0.5966 -0.6384 -1.1382
  921SOL     OW 3378   1.150   6.817   7.122  0.5143  0.2705  0.1964
  921SOL    HW1 3379   1.067   6.793   7.162 -0.0324 -0.4253 -1.3069
  921SOL    HW2 3380   1.129   6.893   7.066  0.7761 -0.2058 -0.5612
  922SOL     OW 3381   7.136   3.918   2.736  0.3337  0.0252 -0.2627
  922SOL    HW1 3382   7.211   3.969   2.706 -0.1980  0.3618 -1.0375
  922SOL    HW2 3383   7.106   3.964   2.814  1.4855 -0.6359  0.5970
  923SOL     OW 3384   5.093   0.296   7.105 -0.3382 -0.2934  0.1662
  923SOL    HW1 3385   5.139   0.379   7.095 -0.4756 -0.1318  0.8415
  923SOL    HW2 3386   5.153   0.241   7.156  0.5639 -1.2762 -1.8080
  924SOL     OW 3387   3.942   5.310   5.288 -0.2807  0.5224  0.7033
  924SOL    HW1 3388   3.971   5.398   5.313  1.0759  0.3616 -0.2144
  924SOL    HW2 3389   4.016   5.254   5.307 -0.6414 -0.2064  0.0120
  925SOL     OW 3390   4.245   4.239   4.040  0.1944 -0.1146  0.1328
  925SOL    HW1 3391   4.253   4.310   4.104 -1.1825  0.0701  0.1365
  925SOL    HW2 3392   4.241   4.159   4.093  1.0140 -0.1427  0.1643
  926SOL     OW 3393   0.173   5.043   0.953 -0.3614 -0.0707  0.6212
  926SOL    HW1 3394   0.186   5.138   0.953  1.1026 -0.2519  1.0680
  926SOL    HW2 3395   0.099   5.029   0.894 -0.5139  1.3307  0.4439
  927SOL     OW 3396   1.853   1.425   6.894  0.7479  0.2521 -0.1993
  927SOL    HW1 3397   1.772   1.433   6.844  0.1224 -1.4020  0.4571
  927SOL    HW2 3398   1.827   1.442   6.984  1.1176 -0.2855  0.0136
  928SOL     OW 3399   3.948   6.772   5.247 -0.0723  1.1947  0.4626
  928SOL    HW1 3400   3.909   6.797   5.164  1.3838 -2.1272 -1.3923
  928SOL    HW2 3401   4.027   6.826   5.253  0.9974 -0.0282 -1.5207
  929SOL     OW 3402   6.892   0.018   7.200  0.1452 -0.3437 -0.5159
  929SOL    HW1 3403   6.871   0.009   7.107 -0.3659 -0.7053 -0.3692
  929SOL    HW2 3404   6.955   0.090   7.203  1.7691 -1.6409 -1.3649
  930SOL     OW 3405   7.073   3.565   0.559  0.1700 -0.3811  0.2563
  930SOL    HW1 3406   7.063   3.528   0.647  3.7748  0.8386  1.3808
  930SOL    HW2 3407   7.144   3.515   0.520 -1.7788 -1.3096 -2.3313
  931SOL     OW 3408   6.501   2.431   1.137 -0.6886  0.4327 -0.2954
  931SOL    HW1 3409   6.592   2.456   1.125 -0.5820  0.3903  0.4278
  931SOL    HW2 3410   6.502   2.367   1.208 -1.2287  0.0959 -0.5793
  932SOL     OW 3411   6.102   5.788   2.993 -0.0722  0.3699 -0.1480
  932SOL    HW1 3412   6.080   5.820   2.905  2.5078  0.9389 -0.6703
  932SOL    HW2 3413   6.182   5.737   2.980 -0.2740 -0.5005  1.7316
  933SOL     OW 3414   1.069   4.077   5.543 -0.0562  0.2933  1.1847
  933SOL    HW1 3415   1.084   3.984   5.560  0.3731  0.3492  1.1359
  933SOL    HW2 3416   1.112   4.094   5.459 -2.6538 -0.1059 -0.3267
  934SOL     OW 3417   3.742   1.236   6.208 -0.1777  0.3460 -0.4888
  934SOL    HW1 3418   3.764   1.317   6.255  0.1879  0.0008 -0.0645
  934SOL    HW2 3419   3.764   1.166   6.269  0.5173 -0.1193 -1.2663
  935SOL     OW 3420   5.667   5.380   2.656  0.3817 -1.2655 -0.6107
  935SOL    HW1 3421   5.706   5.312   2.601  1.2040 -0.6762 -0.7695
  935SOL    HW2 3422   5.662   5.457   2.600  2.0239 -0.4088  0.3432
  936SOL     OW 3423   0.247   6.093   3.580 -0.0231 -0.4874  0.0182
  936SOL    HW1 3424   0.159   6.128   3.567 -0.2716 -1.5971 -1.4299
  936SOL    HW2 3425   0.241   6.041   3.660 -0.1106  1.1804  1.1466
  937SOL     OW 3426   6.417   5.179   6.373 -0.5789  0.3787 -0.0646
  937SOL    HW1 3427   6.500   5.160   6.330  1.3392 -0.2176  3.5256
  937SOL    HW2 3428   6.356   5.113   6.338  1.3938 -1.4107 -0.3217
  938SOL     OW 3429   6.562   5.815   6.847 -0.7513 -0.2390  0.4862
  938SOL    HW1 3430   6.626   5.877   6.812 -0.1153  0.6178  2.9387
  938SOL    HW2 3431   6.610   5.733   6.856 -0.6871 -0.2387  0.1667
  939SOL     OW 3432   2.668   1.011   1.864 -0.0613  0.2843  0.0738
  939SOL    HW1 3433   2.584   1.055   1.847 -0.3724  0.1685  1.1856
  939SOL    HW2 3434   2.695   0.976   1.779 -1.6884 -0.5957 -0.1298
  940SOL     OW 3435   6.103   1.488   7.095  0.4608  0.3965 -0.9516
  940SOL    HW1 3436   6.155   1.412   7.121  0.7195  0.8986  0.0669
  940SOL    HW2 3437   6.157   1.531   7.027  0.2920 -0.3323 -1.5623
  941SOL     OW 3438   2.152   2.595   2.678  0.1600  0.0400  0.6417
  941SOL    HW1 3439   2.131   2.588   2.584  0.6871  1.2661  0.4081
  941SOL    HW2 3440   2.228   2.538   2.689 -0.2226 -0.5257  0.4474
  942SOL     OW 3441   5.259   4.470   4.902 -1.1616 -0.2373  0.2469
  942SOL    HW1 3442   5.336   4.437   4.855 -0.9459 -0.7547  0.9469
  942SOL    HW2 3443   5.283   4.464   4.995 -1.6403  0.6209  0.4357
  943SOL     OW 3444   4.783   6.689   6.130  0.3751 -0.1135 -0.3748
  943SOL    HW1 3445   4.714   6.715   6.069  0.0729 -0.5323 -0.2141
  943SOL    HW2 3446   4.741   6.692   6.216  1.7268  4.2250  0.4098
  944SOL     OW 3447   5.873   5.761   2.354  0.4300 -0.4752 -0.0381
  944SOL    HW1 3448   5.920   5.833   2.394 -1.0979  0.5118  0.0750
  944SOL    HW2 3449   5.938   5.717   2.299  2.0359 -0.5949  1.8403
  945SOL     OW 3450   3.329   4.834   2.455  0.7841  0.4016  0.2681
  945SOL    HW1 3451   3.314   4.793   2.369  0.3900 -0.4411  0.7269
  945SOL    HW2 3452   3.242   4.842   2.494  1.0816 -0.4872  1.1508
  946SOL     OW 3453   5.558   7.035   6.063  0.1522 -0.4585  0.1045
  946SOL    HW1 3454   5.558   6.947   6.100 -0.5266 -0.0695  1.0648
  946SOL    HW2 3455   5.551   7.093   6.139  0.6609  0.4266 -0.5089
  947SOL     OW 3456   5.753   6.171   4.978  0.8053  0.2307 -0.0874
  947SOL    HW1 3457   5.768   6.257   4.940  0.8830 -0.3539 -1.4295
  947SOL    HW2 3458   5.807   6.111   4.926  1.1766 -0.5650  1.1662
  948SOL     OW 3459   6.046   4.176   0.622  0.3229  0.1940 -0.0813
  948SOL    HW1 3460   6.115   4.242   0.611 -0.5514  1.0697 -0.4455
  948SOL    HW2 3461   5.980   4.219   0.676 -0.8802  0.1118 -1.4311
  949SOL     OW 3462   6.574   5.086   3.441  0.0179 -0.0546  0.0160
  949SOL    HW1 3463   6.547   5.072   3.532 -1.1418 -1.4701 -0.5021
  949SOL    HW2 3464   6.580   4.998   3.405  0.5886  0.4916 -1.2594
  950SOL     OW 3465   5.576   5.147   6.724 -0.7491 -0.3125  0.2314
  950SOL    HW1 3466   5.596   5.191   6.807  0.8956  0.2265 -0.4164
  950SOL    HW2 3467   5.502   5.196   6.688 -0.3041  0.6015  0.5240
  951SOL     OW 3468   3.398   0.238   0.326  0.0948 -0.3882 -0.2118
  951SOL    HW1 3469   3.421   0.188   0.247  0.1680  0.7407 -0.9200
  951SOL    HW2 3470   3.480   0.276   0.356  0.0731 -0.8362  0.4402
  952SOL     OW 3471   2.605   0.639   6.036 -0.1807 -0.3936  0.3218
  952SOL    HW1 3472   2.649   0.673   6.115  1.3431  0.5612 -0.8631
  952SOL    HW2 3473   2.570   0.717   5.994 -1.6885 -0.9866  0.4168
  953SOL     OW 3474   5.939   1.995   6.814  0.4410  0.6397  0.2827
  953SOL    HW1 3475   5.928   1.937   6.889 -0.4836  0.4460  0.0010
  953SOL    HW2 3476   5.978   1.940   6.747 -0.4599  0.3250  0.0069
  954SOL     OW 3477   1.705   4.130   5.788 -0.2995 -0.3626  0.0407
  954SOL    HW1 3478   1.800   4.130   5.799  0.0634 -0.5167 -2.5895
  954SOL    HW2 3479   1.677   4.214   5.826  0.6948 -0.7716  1.8116
  955SOL     OW 3480   1.093   4.469   6.195  0.1368  0.7038 -0.0423
  955SOL    HW1 3481   1.003   4.490   6.218  0.1400  0.4305  0.2251
  955SOL    HW2 3482   1.089   4.378   6.164  0.5221  0.2672  1.1454
  956SOL     OW 3483   0.092   0.863   0.725  0.2295  0.0831  0.0425
  956SOL    HW1 3484   0.088   0.770   0.745 -1.0493 -0.1363 -1.1147
  956SOL    HW2 3485   0.174   0.892   0.766  0.6068 -1.5119  0.5072
  957SOL     OW 3486   1.986   4.189   0.746 -0.1302 -0.3761 -0.6475
  957SOL    HW1 3487   1.999   4.106   0.700 -0.0418  0.7286 -2.7781
  957SOL    HW2 3488   2.065   4.240   0.725 -1.6199  1.4245 -2.2619
  958SOL     OW 3489   5.094   5.466   3.575  0.2997  0.0232 -0.0837
  958SOL    HW1 3490   5.123   5.536   3.515 -0.5781  0.2137 -0.3074
  958SOL    HW2 3491   5.055   5.513   3.649 -0.4813 -0.2152 -0.3311
  959SOL     OW 3492   0.203   2.129   4.855 -0.0914 -0.3792  0.2385
  959SOL    HW1 3493   0.164   2.045   4.832  0.0471 -0.5454  0.6083
  959SOL    HW2 3494   0.146   2.165   4.922 -2.9445  2.0301 -3.1077
  960SOL     OW 3495   2.460   2.694   4.957  0.2728 -0.8031  0.3269
  960SOL    HW1 3496   2.540   2.680   5.007  2.0797  0.2080 -2.0775
  960SOL    HW2 3497   2.438   2.607   4.922  0.8246 -0.9293  0.2926
  961SOL     OW 3498   5.891   4.799   0.938 -0.3956 -0.3846 -0.1228
  961SOL    HW1 3499   5.810   4.766   0.976 -0.2763 -0.9862 -0.3842
  961SOL    HW2 3500   5.918   4.732   0.875 -0.5907  0.5723 -1.2760
  962SOL     OW 3501   5.486   4.889   1.461  0.2531  0.3775  0.6728
  962SOL    HW1 3502   5.412   4.828   1.460  1.0056 -0.6158  2.1288
  962SOL    HW2 3503   5.450   4.970   1.425 -1.2121 -0.4225  0.2187
  963SOL     OW 3504   0.589   2.086   0.106 -0.4482  0.2122  0.4735
  963SOL    HW1 3505   0.498   2.092   0.135 -0.5847 -0.6085  0.2463
  963SOL    HW2 3506   0.612   1.994   0.120  0.1750  0.2960  0.0340
  964SOL     OW 3507   0.222   3.259   5.708  0.6282 -0.1658  0.5844
  964SOL    HW1 3508   0.274   3.302   5.776  2.4318  0.3836 -1.0334
  964SOL    HW2 3509   0.206   3.328   5.643 -1.0024 -0.6812  0.4064
  965SOL     OW 3510   2.137   0.047   1.611  0.1381  0.5477 -0.2040
  965SOL    HW1 3511   2.054   0.003   1.591  0.2470  0.9234 -1.5928
  965SOL    HW2 3512   2.202  -0.022   1.605 -0.0033  0.3554  0.3829
  966SOL     OW 3513   3.169   2.379   4.269 -0.1502 -0.0885 -0.0472
  966SOL    HW1 3514   3.101   2.391   4.336  0.0774 -0.3491  0.2305
  966SOL    HW2 3515   3.232   2.449   4.286 -0.1635 -0.0676 -0.0820
  967SOL     OW 3516   4.879   2.677   0.682 -0.1547  0.0262 -0.0619
  967SOL    HW1 3517   4.871   2.688   0.776  0.0500 -1.5025  0.1589
  967SOL    HW2 3518   4.790   2.687   0.648 -0.5120 -1.0251  0.5073
  968SOL     OW 3519   2.428   0.034   3.234 -0.0913  0.3900  0.1672
  968SOL    HW1 3520   2.367   0.010   3.304 -0.4148 -0.1568 -0.3040
  968SOL    HW2 3521   2.502   0.074   3.280  0.5813 -1.6818  1.0121
  969SOL     OW 3522   7.176   2.115   2.866  0.8271 -0.5081 -0.0549
  969SOL    HW1 3523   7.127   2.096   2.946  1.5521  0.7673  0.7324
  969SOL    HW2 3524   7.190   2.030   2.825 -1.5466 -0.9656 -0.0353
  970SOL     OW 3525   1.676   3.103   4.533 -0.6820 -0.8732  0.2764
  970SOL    HW1 3526   1.758   3.059   4.511 -0.8887 -1.6628  1.0221
  970SOL    HW2 3527   1.703   3.181   4.581 -0.2720  0.3761 -1.8978
  971SOL     OW 3528   3.380   6.266   6.860  0.3419 -0.0564  0.2582
  971SOL    HW1 3529   3.361   6.333   6.795 -1.0682 -1.2811 -0.6892
  971SOL    HW2 3530   3.438   6.204   6.815  0.9951  0.1164  0.8504
  972SOL     OW 3531   5.795   1.180   0.548 -0.3173  0.2344  0.0116
  972SOL    HW1 3532   5.838   1.265   0.559 -0.6117  0.3627  0.1928
  972SOL    HW2 3533   5.783   1.172   0.453  1.1640 -0.3394 -0.1430
  973SOL     OW 3534   4.268   2.850   0.772  0.1726  0.3887  0.6711
  973SOL    HW1 3535   4.175   2.831   0.775  0.0681  0.9462  0.9355
  973SOL    HW2 3536   4.293   2.830   0.681  0.2713 -1.9005  1.1371
  974SOL     OW 3537   2.329   1.781   3.113 -0.7642 -0.8807 -0.1745
  974SOL    HW1 3538   2.259   1.766   3.176 -1.0728  0.0335 -0.2848
  974SOL    HW2 3539   2.394   1.833   3.160 -1.5187  0.8161 -0.8843
  975SOL     OW 3540   4.791   0.569   4.010  0.5542 -0.0038  0.0311
  975SOL    HW1 3541   4.791   0.569   4.105 -1.4735  0.0830  0.0777
  975SOL    HW2 3542   4.784   0.477   3.985 -1.6618  0.1110  0.0679
  976SOL     OW 3543   3.150   2.390   1.567  0.2441  0.0099  0.2146
  976SOL    HW1 3544   3.217   2.322   1.577 -0.1485 -0.4861 -0.4032
  976SOL    HW2 3545   3.082   2.366   1.630  0.1629 -0.1064  0.0849
  977SOL     OW 3546   0.296   4.431   4.692 -0.0585 -0.5451 -0.5237
  977SOL    HW1 3547   0.311   4.445   4.598  1.5018 -2.6875 -0.6771
  977SOL    HW2 3548   0.249   4.348   4.697 -1.2787  0.1807  0.5776
  978SOL     OW 3549   0.531   0.645   6.632 -0.1196 -0.1883 -0.2208
  978SOL    HW1 3550   0.594   0.716   6.620 -0.8073  0.9593  2.2626
  978SOL    HW2 3551   0.446   0.686   6.621 -0.5519 -0.3547  1.9739
  979SOL     OW 3552   3.920   6.466   2.558 -0.3014  0.4238  0.1486
  979SOL    HW1 3553   3.992   6.527   2.548  1.9664 -2.0999 -0.0020
  979SOL    HW2 3554   3.922   6.440   2.650 -0.4014 -0.3259 -0.0475
  980SOL     OW 3555   4.806   4.042   2.802 -0.0098 -0.1078  0.4214
  980SOL    HW1 3556   4.860   3.962   2.806 -1.3044 -1.0143  0.4960
  980SOL    HW2 3557   4.748   4.035   2.877  0.3993  1.3505  0.9038
  981SOL     OW 3558   3.580   5.670   5.527  0.1753 -0.0060  0.1857
  981SOL    HW1 3559   3.506   5.635   5.576  0.6250 -1.3343 -0.0325
  981SOL    HW2 3560   3.643   5.598   5.524  1.3765  1.0079  0.1457
  982SOL     OW 3561   2.215   0.831   7.107  0.3800  0.1651 -0.1084
  982SOL    HW1 3562   2.169   0.909   7.075  1.4322  1.0549  0.4821
  982SOL    HW2 3563   2.279   0.810   7.039 -1.0855 -1.2960 -1.1037
  983SOL     OW 3564   3.170   3.781   3.296 -0.3101  0.3389 -0.4603
  983SOL    HW1 3565   3.169   3.689   3.271  1.1780 -0.1028  0.9421
  983SOL    HW2 3566   3.102   3.788   3.363  0.1430  0.0670  0.0325
  984SOL     OW 3567   0.569   1.250   2.177 -0.2270  0.5371  0.3352
  984SOL    HW1 3568   0.613   1.183   2.230 -0.1247 -0.6257 -1.1464
  984SOL    HW2 3569   0.476   1.236   2.195 -0.1340  1.3642  1.5762
  985SOL     OW 3570   5.564   1.764   6.579  0.2479 -0.0140  0.1470
  985SOL    HW1 3571   5.652   1.777   6.543 -0.0871 -0.2129 -0.7673
  985SOL    HW2 3572   5.579   1.728   6.667  1.0819 -0.1838 -0.0576
  986SOL     OW 3573   3.660   3.888   5.863 -0.7226  0.2143  0.5887
  986SOL    HW1 3574   3.750   3.870   5.893 -0.5171  0.7175  0.2778
  986SOL    HW2 3575   3.605   3.851   5.932 -0.3064 -1.2516  0.1775
  987SOL     OW 3576   6.158   1.236   4.435 -0.3629 -0.2174 -0.3133
  987SOL    HW1 3577   6.234   1.208   4.486 -0.4802 -0.3293 -0.2016
  987SOL    HW2 3578   6.177   1.327   4.412 -0.6052  0.0476  0.4925
  988SOL     OW 3579   3.286   6.211   6.467  0.6209 -0.5026  0.2406
  988SOL    HW1 3580   3.355   6.156   6.429  0.3932  0.0462 -1.0252
  988SOL    HW2 3581   3.333   6.275   6.521  1.2714  0.6973 -1.6338
  989SOL     OW 3582   1.817   3.079   3.398 -0.1066  0.4236  0.1926
  989SOL    HW1 3583   1.909   3.079   3.373 -0.5691  0.5048 -1.6368
  989SOL    HW2 3584   1.797   2.986   3.413 -0.0941  0.2310 -0.9165
  990SOL     OW 3585   3.877   1.231   3.011  0.0059 -0.4148  0.0718
  990SOL    HW1 3586   3.841   1.319   2.999  1.3379  0.1886  0.2815
  990SOL    HW2 3587   3.961   1.233   2.965  1.2410 -0.7340  2.1654
  991SOL     OW 3588   5.021   5.175   5.173 -0.4283 -0.2545  0.1175
  991SOL    HW1 3589   4.976   5.259   5.165  0.0413 -0.0453 -0.3751
  991SOL    HW2 3590   5.113   5.198   5.187 -0.5137 -0.6716  1.4755
  992SOL     OW 3591   4.311   3.615   5.422  0.1526  0.1679 -0.1559
  992SOL    HW1 3592   4.281   3.557   5.492  0.6490 -2.0195 -1.6736
  992SOL    HW2 3593   4.247   3.602   5.351  1.2095  0.1672 -1.1364
  993SOL     OW 3594   4.934   3.547   6.179 -0.3348 -0.1081  0.1242
  993SOL    HW1 3595   4.840   3.559   6.194 -0.5179 -0.1081 -0.9320
  993SOL    HW2 3596   4.960   3.483   6.245 -1.4259 -1.3557 -0.6090
  994SOL     OW 3597   1.550   2.036   2.659  0.1080 -0.3543 -0.2141
  994SOL    HW1 3598   1.529   1.948   2.626  0.6312 -0.3440 -0.5884
  994SOL    HW2 3599   1.627   2.062   2.609 -1.0249  1.0103 -1.3091
  995SOL     OW 3600   6.681   4.995   0.392  0.6937 -0.1540  0.2479
  995SOL    HW1 3601   6.694   5.082   0.432  1.2198 -0.7751  1.4970
  995SOL    HW2 3602   6.603   4.961   0.435 -1.2193  0.7769 -2.2672
  996SOL     OW 3603   6.671   4.789   3.961  0.1243 -0.0628  0.4552
  996SOL    HW1 3604   6.663   4.703   4.002  2.4153 -0.1086  0.9202
  996SOL    HW2 3605   6.602   4.790   3.895  0.9321 -2.8608 -0.5826
  997SOL     OW 3606   2.861   1.758   5.322  0.0885 -0.0026 -0.2359
  997SOL    HW1 3607   2.833   1.722   5.238  0.9310  0.3725 -0.6905
  997SOL    HW2 3608   2.949   1.791   5.306  0.0744  0.5191  0.6694
  998SOL     OW 3609   3.847   4.015   5.455  0.2582 -0.4474  0.3002
  998SOL    HW1 3610   3.795   3.958   5.513 -1.8245  0.5987 -0.4753
  998SOL    HW2 3611   3.881   3.956   5.388 -1.0352 -0.9823  0.0833
  999SOL     OW 3612   2.569   1.130   2.945  0.8261 -0.1951  0.0262
  999SOL    HW1 3613   2.545   1.070   3.016 -0.3207  0.7687  0.4860
  999SOL    HW2 3614   2.663   1.116   2.932  0.5270 -2.3441 -0.1338
 1000SOL     OW 3615   4.479   2.738   3.954 -0.1212 -0.4491 -0.1790
 1000SOL    HW1 3616   4.390   2.723   3.987  0.4602  0.9524  2.2927
 1000SOL    HW2 3617   4.481   2.832   3.935  1.1284 -0.2437  0.8780
 1001SOL     OW 3618   0.325   6.731   3.049  0.1226  0.3037 -0.6245
 1001SOL    HW1 3619   0.338   6.823   3.025 -2.0099  0.1016 -2.9092
 1001SOL    HW2 3620   0.238   6.729   3.089 -0.0519 -0.7956 -1.0344
 1002SOL     OW 3621   1.502   5.853   4.058 -0.2796  0.0795 -0.0256
 1002SOL    HW1 3622   1.495   5.768   4.016  0.4111 -0.9941  1.9052
 1002SOL    HW2 3623   1.511   5.833   4.151 -1.7661  2.3332  0.6856
 1003SOL     OW 3624   4.075   6.788   0.669 -0.2692  0.3066 -0.1792
 1003SOL    HW1 3625   4.056   6.695   0.656  1.3282 -0.0871  0.0957
 1003SOL    HW2 3626   4.109   6.794   0.758 -1.2711  1.3275  0.1620
 1004SOL     OW 3627   6.171   3.741   2.153  0.4402 -0.4675 -0.0281
 1004SOL    HW1 3628   6.258   3.760   2.118  0.3795  0.2124  0.1844
 1004SOL    HW2 3629   6.124   3.701   2.080  0.9453 -0.8979 -0.1260
 1005SOL     OW 3630   6.095   5.774   0.257  0.7693 -0.5018  0.3102
 1005SOL    HW1 3631   6.057   5.728   0.181  1.5912 -0.7474  0.0386
 1005SOL    HW2 3632   6.032   5.844   0.275  0.9840  0.1202 -1.1623
 1006SOL     OW 3633   2.314   0.143   2.268 -0.1742  0.5681  0.0326
 1006SOL    HW1 3634   2.364   0.138   2.350 -1.1809 -0.8770  0.5989
 1006SOL    HW2 3635   2.374   0.184   2.206  0.8379  1.1132  1.3207
 1007SOL     OW 3636   5.284   0.972   1.478  0.0251 -0.2556 -0.0207
 1007SOL    HW1 3637   5.238   0.927   1.407 -0.1218  1.0128 -0.7410
 1007SOL    HW2 3638   5.354   1.020   1.435 -0.3971  0.9743  0.6109
 1008SOL     OW 3639   6.424   0.177   3.670 -0.3614  0.8336  0.0630
 1008SOL    HW1 3640   6.411   0.199   3.578 -3.5017  0.4410  0.3064
 1008SOL    HW2 3641   6.456   0.258   3.709 -1.5262  1.8126 -0.9326
 1009SOL     OW 3642   5.730   3.527   4.866  0.2477  0.3911 -0.4222
 1009SOL    HW1 3643   5.716   3.614   4.902  1.4772  1.5710 -2.5940
 1009SOL    HW2 3644   5.646   3.483   4.877 -0.8731  2.3773 -0.5949
 1010SOL     OW 3645   3.057   1.298   0.096 -0.0034  0.3864  0.3451
 1010SOL    HW1 3646   3.028   1.246   0.171 -0.4679  0.3767  0.1588
 1010SOL    HW2 3647   3.114   1.364   0.134  0.8064 -0.4106  0.5644
 1011SOL     OW 3648   0.563   4.918   6.950  0.1417  0.9545  0.3288
 1011SOL    HW1 3649   0.622   4.843   6.944 -1.2972 -0.3847  1.9455
 1011SOL    HW2 3650   0.488   4.894   6.896 -0.6642  0.8278  1.4502
 1012SOL     OW 3651   4.995   3.661   4.660  0.2087  0.0627 -0.2170
 1012SOL    HW1 3652   4.967   3.724   4.726 -2.6819 -1.2181 -0.0826
 1012SOL    HW2 3653   4.954   3.579   4.687  3.3437 -1.8388 -0.6990
 1013SOL     OW 3654   5.503   4.436   3.577  0.1033 -0.7077  0.1805
 1013SOL    HW1 3655   5.598   4.442   3.585 -0.0156 -0.2748  1.6625
 1013SOL    HW2 3656   5.487   4.358   3.524  1.2844 -0.7822 -0.0793
 1014SOL     OW 3657   0.776   6.689   5.124 -0.4483  0.0645 -0.3087
 1014SOL    HW1 3658   0.777   6.663   5.032  0.2219 -0.7782 -0.0786
 1014SOL    HW2 3659   0.808   6.779   5.124  0.2814 -0.1811 -0.8371
 1015SOL     OW 3660   4.579   0.414   6.376 -0.1941 -0.6080 -0.2243
 1015SOL    HW1 3661   4.569   0.327   6.338 -0.6737 -1.1857  1.1649
 1015SOL    HW2 3662   4.663   0.445   6.343  0.5561 -2.0990  0.1899
 1016SOL     OW 3663   1.158   6.425   1.220  0.0984 -0.5527 -0.0398
 1016SOL    HW1 3664   1.121   6.339   1.239 -1.9980 -0.1085 -1.7845
 1016SOL    HW2 3665   1.247   6.406   1.189 -0.2762 -2.0769 -0.2549
 1017SOL     OW 3666   0.393   1.725   5.692 -0.4015 -0.1426  0.5702
 1017SOL    HW1 3667   0.399   1.632   5.670 -0.3488 -0.2202  0.9191
 1017SOL    HW2 3668   0.455   1.767   5.632 -0.5797 -0.3062  0.2679
 1018SOL     OW 3669   1.287   4.387   0.256 -0.0694  0.2285  0.1923
 1018SOL    HW1 3670   1.359   4.420   0.203  1.2452 -0.8692  1.2464
 1018SOL    HW2 3671   1.211   4.438   0.226  1.2686  2.0031 -0.3724
 1019SOL     OW 3672   1.296   2.630   2.164  0.6194 -0.7727  0.3274
 1019SOL    HW1 3673   1.299   2.535   2.166  2.3104 -0.8508 -2.1004
 1019SOL    HW2 3674   1.223   2.653   2.222  1.0858 -3.4246  2.1411
 1020SOL     OW 3675   5.257   3.525   3.837  0.0204  0.3564  0.3682
 1020SOL    HW1 3676   5.175   3.487   3.869  0.3445 -1.5929 -0.9506
 1020SOL    HW2 3677   5.231   3.584   3.767 -0.4190  1.8760  1.7637
 1021SOL     OW 3678   7.204   1.879   0.412  0.1648  0.2690 -0.2220
 1021SOL    HW1 3679   7.170   1.802   0.368  1.2343 -2.2304  2.9239
 1021SOL    HW2 3680   7.277   1.908   0.357 -0.3936 -0.8103 -1.5879
 1022SOL     OW 3681   4.989   5.521   2.881 -0.1004  0.4051  0.2322
 1022SOL    HW1 3682   4.973   5.607   2.918 -2.2347 -0.9186  2.7031
 1022SOL    HW2 3683   5.008   5.465   2.957  0.8592 -1.3969 -1.2456
 1023SOL     OW 3684   4.855   2.684   5.408  0.0714  0.2096  0.5101
 1023SOL    HW1 3685   4.930   2.628   5.391 -1.6339 -1.6320 -1.4650
 1023SOL    HW2 3686   4.820   2.653   5.491 -0.9136 -1.8118 -0.6102
 1024SOL     OW 3687   6.566   0.068   7.066 -0.0666  0.3875  0.3010
 1024SOL    HW1 3688   6.569   0.049   7.160 -0.3514  0.2426  0.2826
 1024SOL    HW2 3689   6.623   0.144   7.055 -0.6333  0.8892  0.7100
 1025SOL     OW 3690   2.191   1.556   5.521  0.0615 -0.2576 -0.1047
 1025SOL    HW1 3691   2.259   1.594   5.465 -0.4732  0.7163 -0.1172
 1025SOL    HW2 3692   2.204   1.598   5.606 -1.6677  1.4318 -0.5828
 1026SOL     OW 3693   4.377   0.418   0.407 -0.4229 -0.3108  0.1011
 1026SOL    HW1 3694   4.377   0.487   0.340 -0.8579 -0.8697 -0.4844
 1026SOL    HW2 3695   4.319   0.452   0.475  0.7746  0.6871  0.6663
 1027SOL     OW 3696   1.622   2.263   3.948 -0.2107  0.3813 -0.0910
 1027SOL    HW1 3697   1.563   2.255   3.874  1.1625 -1.2475 -1.0961
 1027SOL    HW2 3698   1.611   2.182   3.998 -0.4670  1.0632  0.9993
 1028SOL     OW 3699   6.838   6.837   0.873  0.2924 -0.1872  0.2126
 1028SOL    HW1 3700   6.792   6.755   0.889  0.0690  0.3251  2.5099
 1028SOL    HW2 3701   6.925   6.810   0.843 -1.2165 -1.1554 -3.8454
 1029SOL     OW 3702   4.937   6.508   1.305  0.0462  0.3786 -0.1491
 1029SOL    HW1 3703   4.966   6.423   1.339  0.1205  0.4484 -0.0361
 1029SOL    HW2 3704   4.898   6.551   1.381 -0.7773  0.1024 -0.4010
 1030SOL     OW 3705   5.752   3.697   3.079 -0.3485 -0.1129  0.0841
 1030SOL    HW1 3706   5.750   3.757   3.004 -0.6203 -0.5943 -0.2969
 1030SOL    HW2 3707   5.803   3.744   3.145 -1.2302  0.8743  0.0845
 1031SOL     OW 3708   2.402   5.967   5.925  0.6259 -0.2928  0.1491
 1031SOL    HW1 3709   2.405   6.013   5.841 -0.5658 -0.2668  0.1146
 1031SOL    HW2 3710   2.431   6.033   5.988  1.3847 -0.2684 -0.2108
 1032SOL     OW 3711   5.042   2.662   6.594  0.3440 -0.7518  0.3792
 1032SOL    HW1 3712   4.955   2.627   6.615 -0.1639  0.5894  0.6277
 1032SOL    HW2 3713   5.024   2.747   6.554  1.5650 -0.1881  0.9927
 1033SOL     OW 3714   4.895   4.715   0.886 -0.1005  0.1465 -0.3757
 1033SOL    HW1 3715   4.862   4.651   0.823  1.0274 -0.1853 -0.6460
 1033SOL    HW2 3716   4.860   4.799   0.855 -0.1576 -0.1105 -1.0189
 1034SOL     OW 3717   6.504   2.435   4.915 -0.1311  0.1320  0.1032
 1034SOL    HW1 3718   6.502   2.363   4.852  3.7806 -1.4683  1.5304
 1034SOL    HW2 3719   6.580   2.488   4.889  0.8566  0.1020  2.6997
 1035SOL     OW 3720   2.323   2.124   3.005  0.7175 -0.1137  0.2342
 1035SOL    HW1 3721   2.252   2.186   3.024  0.7587  0.1795 -0.5416
 1035SOL    HW2 3722   2.279   2.050   2.964  1.0906  1.2221 -2.8907
 1036SOL     OW 3723   4.588   0.906   0.135  0.1091  0.4911 -0.0956
 1036SOL    HW1 3724   4.671   0.881   0.176 -0.5927 -0.4135  0.8488
 1036SOL    HW2 3725   4.522   0.855   0.182 -0.6476 -1.9496 -3.4048
 1037SOL     OW 3726   2.730   2.497   0.920 -0.3373 -0.1466 -0.5305
 1037SOL    HW1 3727   2.737   2.520   0.827  2.5458  1.9125  0.0720
 1037SOL    HW2 3728   2.678   2.568   0.959  0.8504  0.5226 -0.1382
 1038SOL     OW 3729   5.300   2.820   3.368 -0.3092  0.1350  0.3110
 1038SOL    HW1 3730   5.216   2.774   3.365 -0.2716 -0.0755  1.7522
 1038SOL    HW2 3731   5.297   2.870   3.450  0.2696  1.5306 -0.4696
 1039SOL     OW 3732   5.718   2.896   5.607 -0.4826  0.3253  0.4198
 1039SOL    HW1 3733   5.712   2.889   5.511 -1.6274  0.5864  0.4650
 1039SOL    HW2 3734   5.796   2.844   5.629 -0.5960 -0.3121 -0.5842
 1040SOL     OW 3735   2.055   4.649   2.303  0.2878  0.1607 -0.1396
 1040SOL    HW1 3736   2.019   4.693   2.381 -0.1030  0.0005 -0.2293
 1040SOL    HW2 3737   2.025   4.559   2.311  1.6978 -0.2916  0.4276
 1041SOL     OW 3738   1.657   4.523   3.281 -0.1094  0.1426  0.0294
 1041SOL    HW1 3739   1.626   4.441   3.243  0.6589 -0.1531  0.0130
 1041SOL    HW2 3740   1.693   4.571   3.206 -0.3362  0.3913  0.0786
 1042SOL     OW 3741   2.120   4.488   5.529  0.0023  0.2120  0.1872
 1042SOL    HW1 3742   2.143   4.580   5.541  3.4427 -0.7610  2.3427
 1042SOL    HW2 3743   2.078   4.463   5.611 -1.6328 -0.0383 -0.6787
 1043SOL     OW 3744   6.527   2.556   2.058  0.3986 -1.1994 -0.2128
 1043SOL    HW1 3745   6.466   2.621   2.024 -0.7008 -1.9229  0.3195
 1043SOL    HW2 3746   6.476   2.475   2.062  1.0550 -1.5665  1.3568
 1044SOL     OW 3747   6.219   4.583   4.497  0.4863  0.0291 -0.1077
 1044SOL    HW1 3748   6.221   4.612   4.405 -1.3844 -1.0803 -0.5472
 1044SOL    HW2 3749   6.146   4.522   4.501  1.1954 -0.7541  1.9171
 1045SOL     OW 3750   2.221   3.720   7.000 -0.2278 -0.6444 -0.3222
 1045SOL    HW1 3751   2.220   3.711   7.095 -1.7765 -1.7233 -0.3941
 1045SOL    HW2 3752   2.297   3.670   6.971  0.6767  0.2907  0.3694
 1046SOL     OW 3753   7.213   3.729   1.646  0.0392  0.3106 -0.4411
 1046SOL    HW1 3754   7.282   3.793   1.658  0.9369 -0.5540 -0.8846
 1046SOL    HW2 3755   7.176   3.717   1.733  1.0684  0.0946 -0.0231
 1047SOL     OW 3756   6.208   1.115   5.673  0.2358 -0.4222 -0.2719
 1047SOL    HW1 3757   6.238   1.065   5.597  2.6160 -0.7260  0.7657
 1047SOL    HW2 3758   6.289   1.138   5.720 -1.0919  0.3855  1.7751
 1048SOL     OW 3759   3.616   5.072   1.291  0.4512 -0.4735 -0.3347
 1048SOL    HW1 3760   3.662   5.153   1.314  3.4480 -2.3052  0.5521
 1048SOL    HW2 3761   3.651   5.048   1.205 -0.0369 -1.0986 -0.3655
 1049SOL     OW 3762   2.407   2.310   5.986 -0.1197  0.0649  0.5780
 1049SOL    HW1 3763   2.472   2.379   5.972  2.0994 -1.2090  3.6207
 1049SOL    HW2 3764   2.422   2.249   5.913  0.1439  1.1142 -0.2825
 1050SOL     OW 3765   3.224   4.830   4.730 -0.3031 -0.7921 -0.0895
 1050SOL    HW1 3766   3.248   4.895   4.795 -0.2019  0.1115 -1.0035
 1050SOL    HW2 3767   3.305   4.812   4.682 -0.4894 -1.0258 -0.3215
 1051SOL     OW 3768   0.478   0.701   6.022 -0.2518 -0.5026  0.1179
 1051SOL    HW1 3769   0.400   0.723   5.971 -2.0265 -1.2090  2.3535
 1051SOL    HW2 3770   0.551   0.734   5.969 -2.1114  1.4856 -1.4177
 1052SOL     OW 3771   1.298   3.771   2.496 -0.5887 -0.2206  0.6237
 1052SOL    HW1 3772   1.216   3.771   2.544 -1.0756 -1.0704 -0.1814
 1052SOL    HW2 3773   1.348   3.698   2.532 -0.6914 -0.4647  0.2723
 1053SOL     OW 3774   2.329   7.117   1.317 -0.0703  0.1364  0.4804
 1053SOL    HW1 3775   2.278   7.087   1.392  0.4794 -0.4880  0.6158
 1053SOL    HW2 3776   2.351   7.208   1.338  0.3319 -0.1204  1.2251
 1054SOL     OW 3777   5.065   5.377   2.668  0.0655  0.2171 -0.4636
 1054SOL    HW1 3778   5.055   5.450   2.730 -0.2917 -0.0197 -0.2377
 1054SOL    HW2 3779   5.004   5.311   2.700  1.2368 -0.6613  0.0484
 1055SOL     OW 3780   6.827   3.243   6.205 -0.0808  0.5012 -0.1646
 1055SOL    HW1 3781   6.878   3.318   6.237 -1.1155  0.9981  0.3850
 1055SOL    HW2 3782   6.888   3.194   6.150  0.6407  1.7101 -0.4810
 1056SOL     OW 3783   2.588   0.428   5.673  0.1378  0.4441  0.1773
 1056SOL    HW1 3784   2.549   0.374   5.742 -0.6182  1.9211  0.9518
 1056SOL    HW2 3785   2.546   0.398   5.593 -1.3406  0.8017  0.7738
 1057SOL     OW 3786   6.750   6.522   0.874  0.3113 -0.4563  0.3042
 1057SOL    HW1 3787   6.706   6.545   0.956 -1.3450 -0.9053 -0.4213
 1057SOL    HW2 3788   6.811   6.453   0.898 -0.1334 -0.5610  1.1623
 1058SOL     OW 3789   6.967   0.713   3.700  0.3098 -0.7276  0.5285
 1058SOL    HW1 3790   6.922   0.788   3.661 -1.9032 -1.1878  2.0002
 1058SOL    HW2 3791   7.020   0.751   3.770  0.3886 -0.3766  0.2767
 1059SOL     OW 3792   2.816   5.775   1.853  0.1663  0.4929 -0.2656
 1059SOL    HW1 3793   2.849   5.685   1.845  0.1001  0.0174  3.2549
 1059SOL    HW2 3794   2.887   5.829   1.818  1.6052 -0.8404  0.4247
 1060SOL     OW 3795   2.133   0.432   6.141  0.4210 -0.3748  0.2815
 1060SOL    HW1 3796   2.162   0.351   6.183 -0.9121 -0.8970  0.2408
 1060SOL    HW2 3797   2.202   0.452   6.077  0.9806 -1.2348  0.5979
 1061SOL     OW 3798   7.034   6.978   5.131  0.1580 -0.0035 -0.4770
 1061SOL    HW1 3799   7.101   6.911   5.148 -1.5739 -1.9998 -1.0509
 1061SOL    HW2 3800   7.020   6.973   5.036 -1.0347  0.1294 -0.3141
 1062SOL     OW 3801   1.928   2.876   0.995  0.2829  0.1893  0.6373
 1062SOL    HW1 3802   1.842   2.899   0.959 -1.2651 -0.5537  3.5729
 1062SOL    HW2 3803   1.908   2.833   1.078  3.4494 -1.9634  0.4445
 1063SOL     OW 3804   2.302   3.446   4.274  0.4666  0.2654 -0.1713
 1063SOL    HW1 3805   2.211   3.417   4.283  0.6941 -0.5568 -0.5223
 1063SOL    HW2 3806   2.295   3.535   4.239 -0.1891 -0.0318 -0.8141
 1064SOL     OW 3807   3.812   6.243   5.694  0.3280  0.2833 -0.0803
 1064SOL    HW1 3808   3.776   6.270   5.779 -1.1173  0.7642 -0.8000
 1064SOL    HW2 3809   3.898   6.284   5.689  0.6109 -0.1025  1.3220
 1065SOL     OW 3810   6.395   0.186   1.539 -0.0534 -0.3524 -0.2744
 1065SOL    HW1 3811   6.466   0.208   1.479  0.4466  1.0229  0.7909
 1065SOL    HW2 3812   6.419   0.100   1.574  0.1563 -0.7050 -1.2517
 1066SOL     OW 3813   1.320   2.341   3.887  0.2013 -0.1041  0.0948
 1066SOL    HW1 3814   1.307   2.284   3.963  1.9512 -1.3718 -0.5013
 1066SOL    HW2 3815   1.381   2.294   3.831  0.3389  1.5948 -1.2833
 1067SOL     OW 3816   7.160   1.647   3.778  0.5041 -0.0910  0.3895
 1067SOL    HW1 3817   7.079   1.677   3.819  1.0227 -0.5035  1.8007
 1067SOL    HW2 3818   7.219   1.723   3.783  0.1217  0.3131 -0.9319
 1068SOL     OW 3819   1.269   6.890   3.374 -0.2936  0.1102 -0.6076
 1068SOL    HW1 3820   1.219   6.809   3.384  2.1108 -1.4598 -0.4983
 1068SOL    HW2 3821   1.342   6.881   3.436 -0.6052  2.9434  0.2881
 1069SOL     OW 3822   2.915   6.496   3.781 -0.5156  0.2128  0.0829
 1069SOL    HW1 3823   2.960   6.418   3.748 -0.7727  0.7085 -1.5127
 1069SOL    HW2 3824   2.871   6.533   3.705 -0.5496  1.8301  0.8396
 1070SOL     OW 3825   6.371   5.846   6.120 -0.4228  0.2734 -0.2810
 1070SOL    HW1 3826   6.350   5.763   6.163 -2.0114 -0.0726 -1.6262
 1070SOL    HW2 3827   6.307   5.909   6.156  1.0001  1.0447  1.0015
 1071SOL     OW 3828   4.011   5.144   2.049 -0.3082 -0.6655  0.0716
 1071SOL    HW1 3829   3.982   5.224   2.092 -0.6901 -1.1129  0.6678
 1071SOL    HW2 3830   4.078   5.173   1.987 -0.3378  0.0952  0.3808
 1072SOL     OW 3831   0.709   5.504   3.805  0.4850 -0.3514  0.4235
 1072SOL    HW1 3832   0.686   5.448   3.879  0.9185  0.3981  1.1334
 1072SOL    HW2 3833   0.714   5.443   3.730  1.0350 -1.2800  1.1907
 1073SOL     OW 3834   4.267   3.140   3.276  0.5192  0.5505 -0.5536
 1073SOL    HW1 3835   4.173   3.160   3.278  0.6298  1.0692  1.4101
 1073SOL    HW2 3836   4.307   3.220   3.243  0.2414  0.0148 -2.2868
 1074SOL     OW 3837   1.927   6.464   1.063 -0.4450 -0.4692 -0.4376
 1074SOL    HW1 3838   1.944   6.555   1.088 -2.3894 -0.0540 -0.4278
 1074SOL    HW2 3839   1.993   6.445   0.996 -0.2769  1.1105 -0.7628
 1075SOL     OW 3840   5.487   5.347   3.549 -0.0869 -0.0997 -0.1861
 1075SOL    HW1 3841   5.507   5.299   3.469  0.3890 -0.1892 -0.0199
 1075SOL    HW2 3842   5.571   5.352   3.595 -0.4370 -0.4185  0.5006
 1076SOL     OW 3843   0.613   7.088   1.041 -0.2212 -0.1958 -0.4895
 1076SOL    HW1 3844   0.532   7.126   1.076  0.8633  0.9394  0.9532
 1076SOL    HW2 3845   0.613   6.998   1.072  0.1502  0.4621  1.6146
 1077SOL     OW 3846   4.384   4.945   0.055  0.0724  0.2223  0.1618
 1077SOL    HW1 3847   4.395   4.867   0.001  1.1538 -0.3066  1.1008
 1077SOL    HW2 3848   4.290   4.963   0.052 -0.4685 -2.0697  1.2227
 1078SOL     OW 3849   2.410   1.190   1.758  0.0875  0.5804  0.2953
 1078SOL    HW1 3850   2.350   1.206   1.831 -0.6905  0.0883 -0.2256
 1078SOL    HW2 3851   2.369   1.235   1.683 -0.2736 -0.7873 -0.3504
 1079SOL     OW 3852   3.311   3.347   4.353  0.0901  0.6248 -0.2498
 1079SOL    HW1 3853   3.259   3.302   4.287  0.7772 -0.2298 -0.2236
 1079SOL    HW2 3854   3.253   3.415   4.388 -0.9446 -0.2070 -0.3228
 1080SOL     OW 3855   1.007   4.452   1.865 -0.0724  0.2672  0.1552
 1080SOL    HW1 3856   0.926   4.476   1.821 -0.5314  2.5900  2.0209
 1080SOL    HW2 3857   0.991   4.472   1.958  2.0904 -0.7587  0.8259
 1081SOL     OW 3858   2.015   5.877   5.287  0.0315  0.1582  0.2957
 1081SOL    HW1 3859   1.942   5.815   5.279  0.0447  0.2826 -1.1455
 1081SOL    HW2 3860   2.087   5.834   5.240  0.5914  0.4685  0.8651
 1082SOL     OW 3861   7.096   6.851   1.942  0.1346 -0.6666 -0.2257
 1082SOL    HW1 3862   7.041   6.929   1.952 -0.2903 -1.0220  0.3156
 1082SOL    HW2 3863   7.036   6.783   1.914  0.6850 -0.5729 -1.6936
 1083SOL     OW 3864   0.497   5.083   3.805  0.3068  0.6745 -0.3637
 1083SOL    HW1 3865   0.412   5.116   3.832 -0.5985  0.1739 -2.3767
 1083SOL    HW2 3866   0.525   5.027   3.877  0.1155  2.7292  1.4097
 1084SOL     OW 3867   2.324   6.529   2.122 -0.6700 -0.1217  0.5254
 1084SOL    HW1 3868   2.308   6.619   2.092  0.2541 -0.1861 -0.2223
 1084SOL    HW2 3869   2.238   6.496   2.147 -1.5174  0.0110 -1.9233
 1085SOL     OW 3870   6.601   1.924   2.094 -0.4244 -0.0292 -0.8926
 1085SOL    HW1 3871   6.532   1.983   2.126  0.2254 -0.8708  2.5029
 1085SOL    HW2 3872   6.603   1.853   2.158  0.6939 -2.3549 -3.3154
 1086SOL     OW 3873   3.270   4.249   4.337  0.1195  0.2505  0.4125
 1086SOL    HW1 3874   3.227   4.322   4.293 -1.7930  0.1450  1.9518
 1086SOL    HW2 3875   3.263   4.176   4.275  1.7992  1.2200 -1.0152
 1087SOL     OW 3876   0.515   4.356   3.351  0.7383 -0.7679 -0.5797
 1087SOL    HW1 3877   0.603   4.382   3.380  1.3605 -1.8271 -1.4496
 1087SOL    HW2 3878   0.511   4.384   3.260  0.1791 -0.7487 -0.5510
 1088SOL     OW 3879   1.550   6.589   4.503  0.1945  0.1514  0.0795
 1088SOL    HW1 3880   1.545   6.669   4.451 -0.5630  0.7641  1.0486
 1088SOL    HW2 3881   1.629   6.545   4.473  0.5639  1.2120 -0.5440
 1089SOL     OW 3882   4.189   4.690   1.031 -0.1774  0.0960 -0.2807
 1089SOL    HW1 3883   4.229   4.662   0.948  1.1534 -0.8990  0.6647
 1089SOL    HW2 3884   4.120   4.625   1.046  0.3190 -0.3897 -0.0620
 1090SOL     OW 3885   0.644   6.572   0.970  0.0839  0.4158  0.3946
 1090SOL    HW1 3886   0.572   6.511   0.953 -0.2303  0.5961  1.0557
 1090SOL    HW2 3887   0.634   6.640   0.903  0.5628 -0.3475 -0.4860
 1091SOL     OW 3888   0.967   2.919   5.601  0.3117  0.8330  0.6536
 1091SOL    HW1 3889   0.906   2.956   5.665 -0.7846 -0.3318  0.3250
 1091SOL    HW2 3890   0.932   2.944   5.516 -0.7353 -1.2529  0.4001
 1092SOL     OW 3891   6.848   7.195   5.030 -0.4600 -0.1631  0.1090
 1092SOL    HW1 3892   6.924   7.181   5.087 -1.3857 -3.2282  0.7609
 1092SOL    HW2 3893   6.795   7.259   5.075 -0.0027 -0.7318  1.5033
 1093SOL     OW 3894   1.742   1.247   1.247 -0.1065 -0.0523  0.2285
 1093SOL    HW1 3895   1.740   1.325   1.302  1.4124  0.5515 -0.5043
 1093SOL    HW2 3896   1.658   1.247   1.201 -0.3414  0.8310  0.6521
 1094SOL     OW 3897   2.614   6.397   2.531  1.0257  0.0298 -0.4477
 1094SOL    HW1 3898   2.564   6.375   2.453 -1.1928  2.0448  0.2883
 1094SOL    HW2 3899   2.637   6.490   2.520  1.4329  0.1148  0.8956
 1095SOL     OW 3900   3.134   5.355   4.333 -0.0281 -0.2178  0.1737
 1095SOL    HW1 3901   3.155   5.442   4.299 -1.0170  0.4784  1.2662
 1095SOL    HW2 3902   3.163   5.358   4.424  1.2525 -1.5506 -0.1528
 1096SOL     OW 3903   2.079   1.306   6.878 -0.7902 -0.2977 -0.4084
 1096SOL    HW1 3904   2.116   1.303   6.966  0.1799  1.1320 -0.7394
 1096SOL    HW2 3905   1.990   1.340   6.890 -0.5040  0.3214 -0.0205
 1097SOL     OW 3906   0.955   2.582   3.394 -0.4923 -0.0367 -0.5793
 1097SOL    HW1 3907   0.920   2.663   3.358 -1.3256 -0.2892 -0.3764
 1097SOL    HW2 3908   0.879   2.539   3.434  0.1619 -0.3435  0.3891
 1098SOL     OW 3909   6.097   0.175   2.014 -0.3917 -0.5465 -0.0190
 1098SOL    HW1 3910   6.106   0.269   2.027  0.0606 -0.7710  1.4646
 1098SOL    HW2 3911   6.006   0.156   2.038 -0.0346 -0.7031  1.2965
 1099SOL     OW 3912   4.019   2.324   4.150  0.2633 -0.5020  0.1663
 1099SOL    HW1 3913   3.986   2.375   4.076  1.1894  1.3441  0.9617
 1099SOL    HW2 3914   3.947   2.324   4.213  0.7696  1.2462  0.8066
 1100SOL     OW 3915   5.425   6.479   5.187  0.2600 -0.5769 -0.3983
 1100SOL    HW1 3916   5.500   6.423   5.203 -0.9272 -1.9572  0.6387
 1100SOL    HW2 3917   5.362   6.423   5.141 -0.3354  0.3845 -0.7972
 1101SOL     OW 3918   1.050   4.904   3.189  0.0801 -1.0416  0.1997
 1101SOL    HW1 3919   1.143   4.926   3.184 -0.3763  0.8043 -0.8621
 1101SOL    HW2 3920   1.011   4.978   3.235 -1.0171 -1.3053 -0.2923
 1102SOL     OW 3921   6.951   0.758   0.529  0.4848  0.2729 -0.3484
 1102SOL    HW1 3922   6.863   0.723   0.542  0.7850 -1.3234 -2.0196
 1102SOL    HW2 3923   7.002   0.722   0.602  0.0836 -0.1841 -0.2861
 1103SOL     OW 3924   1.328   2.749   5.111 -0.6952 -0.3351 -0.2472
 1103SOL    HW1 3925   1.267   2.735   5.183 -0.9110  0.4080 -0.2880
 1103SOL    HW2 3926   1.275   2.785   5.040 -0.5900 -1.5428 -0.9818
 1104SOL     OW 3927   2.187   4.481   4.974 -0.1505 -0.0194 -0.1080
 1104SOL    HW1 3928   2.099   4.468   4.938 -0.3294 -0.6277  0.5319
 1104SOL    HW2 3929   2.215   4.565   4.937 -0.6569 -0.2225 -0.9892
 1105SOL     OW 3930   3.658   0.714   0.562 -0.2069  0.3256 -0.4040
 1105SOL    HW1 3931   3.617   0.672   0.486 -1.1657  0.7493 -0.1455
 1105SOL    HW2 3932   3.681   0.802   0.532 -1.0941  0.6862 -0.0666
 1106SOL     OW 3933   6.921   3.054   7.155 -0.7644 -0.3008  0.0288
 1106SOL    HW1 3934   6.944   3.108   7.230  0.7160  0.8242 -1.1555
 1106SOL    HW2 3935   6.884   3.116   7.092  2.7470 -0.0903 -2.1260
 1107SOL     OW 3936   4.458   6.580   5.495  0.2814 -0.3440  0.0362
 1107SOL    HW1 3937   4.460   6.485   5.483 -1.0234 -0.1404 -2.3357
 1107SOL    HW2 3938   4.545   6.608   5.465  0.7141 -0.7627  0.8467
 1108SOL     OW 3939   3.133   4.041   4.201 -0.0718  0.2996  0.3078
 1108SOL    HW1 3940   3.086   3.963   4.172 -0.0371 -0.3615  1.9191
 1108SOL    HW2 3941   3.069   4.088   4.254  0.4567  0.4260  0.8458
 1109SOL     OW 3942   2.016   7.008   4.432  0.6520 -0.2518 -0.1906
 1109SOL    HW1 3943   1.983   7.090   4.469  0.0325 -0.9479  0.8384
 1109SOL    HW2 3944   2.043   6.957   4.508  0.9007 -1.0647 -0.8132
 1110SOL     OW 3945   1.021   4.526   0.196 -0.0291  0.0612  0.2645
 1110SOL    HW1 3946   1.017   4.611   0.239  0.1194 -0.1842  0.7685
 1110SOL    HW2 3947   0.978   4.466   0.256 -4.0114  0.4364 -1.8670
 1111SOL     OW 3948   4.538   3.449   2.797  0.0234  0.2312  0.5052
 1111SOL    HW1 3949   4.629   3.443   2.827 -0.2237  0.6143  1.3589
 1111SOL    HW2 3950   4.509   3.358   2.791 -0.2149  0.1495  2.4129
 1112SOL     OW 3951   6.303   2.994   5.859 -0.2692  0.1936 -0.3951
 1112SOL    HW1 3952   6.378   3.053   5.868  0.6089 -0.6578 -1.7440
 1112SOL    HW2 3953   6.341   2.912   5.828 -1.4895 -1.0650  1.2930
 1113SOL     OW 3954   4.095   2.037   5.346 -0.1317  0.5029 -0.5631
 1113SOL    HW1 3955   4.126   2.049   5.257  1.0330 -1.5396 -0.4915
 1113SOL    HW2 3956   4.066   2.125   5.374  2.5965  1.9001 -1.7686
 1114SOL     OW 3957   4.505   2.806   6.306 -0.7089 -0.6258  0.3508
 1114SOL    HW1 3958   4.533   2.819   6.215 -2.1054 -0.0089 -0.0100
 1114SOL    HW2 3959   4.560   2.867   6.355  1.9067 -2.7785  0.3235
 1115SOL     OW 3960   2.276   7.065   2.819  0.4087  0.0231  0.2664
 1115SOL    HW1 3961   2.291   6.971   2.826 -0.0622 -0.3649 -2.5677
 1115SOL    HW2 3962   2.190   7.078   2.860  0.9470 -0.5620  1.6415
 1116SOL     OW 3963   6.301   1.917   4.399 -0.0977 -0.0708  0.3643
 1116SOL    HW1 3964   6.360   1.883   4.332 -0.0987  1.3637 -0.4097
 1116SOL    HW2 3965   6.229   1.854   4.402 -0.3117  0.0430 -1.3148
 1117SOL     OW 3966   6.945   3.023   6.100 -0.1305  0.1717 -0.3785
 1117SOL    HW1 3967   7.016   2.960   6.088  0.5800  1.0439 -0.8310
 1117SOL    HW2 3968   6.865   2.969   6.103  0.5885 -0.8857  0.8154
 1118SOL     OW 3969   1.554   2.268   0.347  0.0133  0.1016 -0.1930
 1118SOL    HW1 3970   1.480   2.297   0.293 -0.6351 -0.3074  0.4466
 1118SOL    HW2 3971   1.513   2.214   0.416  0.6834  1.4150  1.2924
 1119SOL     OW 3972   3.537   3.973   0.867 -0.1689  0.4754 -0.0925
 1119SOL    HW1 3973   3.581   3.994   0.785 -1.9333 -0.6986 -1.4032
 1119SOL    HW2 3974   3.459   3.924   0.841 -0.0571 -1.1932  2.3578
 1120SOL     OW 3975   3.048   2.315   6.569 -0.8524  0.0528 -0.2470
 1120SOL    HW1 3976   3.133   2.273   6.557 -0.6400  0.6208 -0.7499
 1120SOL    HW2 3977   3.020   2.339   6.481 -1.5199 -0.0884 -0.0799
 1121SOL     OW 3978   4.399   4.423   1.102 -0.2265  0.1684 -0.0109
 1121SOL    HW1 3979   4.484   4.424   1.058 -0.5722  1.5434 -0.7244
 1121SOL    HW2 3980   4.337   4.454   1.035 -1.1684 -0.0942  0.7150
 1122SOL     OW 3981   0.958   1.160   5.043  0.1015  0.4917  0.1047
 1122SOL    HW1 3982   0.896   1.102   5.088  1.2865  0.5905  1.9470
 1122SOL    HW2 3983   0.976   1.230   5.105  2.7086  0.0161  0.0119
 1123SOL     OW 3984   7.044   4.103   2.931 -0.1493  0.2010  0.3141
 1123SOL    HW1 3985   6.977   4.073   2.992 -1.9723  1.1801 -1.1326
 1123SOL    HW2 3986   7.088   4.175   2.976 -0.4011 -0.1144  1.0696
 1124SOL     OW 3987   3.502   2.469   7.083  0.1941  0.3147 -0.6183
 1124SOL    HW1 3988   3.454   2.530   7.027 -1.3502  1.0283  1.3419
 1124SOL    HW2 3989   3.592   2.500   7.081 -0.1378  1.2618 -1.4475
 1125SOL     OW 3990   1.172   6.973   1.644 -0.3318  0.0457 -0.0543
 1125SOL    HW1 3991   1.143   7.057   1.607  1.0225  0.9490  0.8254
 1125SOL    HW2 3992   1.215   6.928   1.572 -0.1347  0.5759 -0.2679
 1126SOL     OW 3993   3.535   2.865   5.185  0.4003  0.1259  0.0492
 1126SOL    HW1 3994   3.566   2.826   5.267 -0.3712  1.0566  0.8208
 1126SOL    HW2 3995   3.444   2.836   5.178 -0.1578  1.6296  0.5898
 1127SOL     OW 3996   4.930   6.697   3.383 -0.2234 -0.0766  0.2184
 1127SOL    HW1 3997   4.877   6.775   3.393  0.3634  0.1761  1.5842
 1127SOL    HW2 3998   4.959   6.699   3.292  0.3095  1.6410  0.3922
 1128SOL     OW 3999   1.019   1.500   3.044  0.2717 -0.3585  0.2200
 1128SOL    HW1 4000   0.930   1.527   3.021  0.3897  0.8265  1.0447
 1128SOL    HW2 4001   1.015   1.486   3.139  0.9701 -0.2329  0.2687
 1129SOL     OW 4002   0.253   6.256   1.033  0.2150 -0.2062  0.4339
 1129SOL    HW1 4003   0.334   6.290   0.995 -0.1791 -0.9466 -1.1419
 1129SOL    HW2 4004   0.207   6.334   1.065  1.5553  0.2160  1.4350
 1130SOL     OW 4005   2.198   6.180   1.338  0.1244 -0.6593 -0.6798
 1130SOL    HW1 4006   2.243   6.139   1.412 -1.3353  1.0931  1.2762
 1130SOL    HW2 4007   2.264   6.184   1.269  1.7608 -1.6901  0.7553
 1131SOL     OW 4008   7.138   6.075   6.695 -0.4093 -0.5134  0.3683
 1131SOL    HW1 4009   7.069   6.111   6.750 -0.7949  0.1680 -0.5357
 1131SOL    HW2 4010   7.100   6.072   6.607  0.3718 -1.0771  0.0352
 1132SOL     OW 4011   1.871   2.124   6.014 -0.0197  0.1290  0.4404
 1132SOL    HW1 4012   1.907   2.045   5.974 -0.3757  0.4404 -0.5177
 1132SOL    HW2 4013   1.886   2.194   5.950 -2.8842  0.1543 -0.3716
 1133SOL     OW 4014   0.077   4.999   6.009 -0.1507 -0.2219 -0.2721
 1133SOL    HW1 4015   0.069   4.931   6.076 -2.9984 -0.6033 -0.8489
 1133SOL    HW2 4016   0.121   5.072   6.053  0.1475 -1.2984  1.2817
 1134SOL     OW 4017   2.136   1.710   2.533 -0.4315 -0.0677  0.2702
 1134SOL    HW1 4018   2.091   1.752   2.606 -0.0435 -1.1158  1.1374
 1134SOL    HW2 4019   2.072   1.714   2.461 -2.1500 -1.8510  1.5708
 1135SOL     OW 4020   5.539   1.975   4.780 -0.2273 -0.4697 -0.3075
 1135SOL    HW1 4021   5.478   2.028   4.729  0.5342  0.2866 -0.4555
 1135SOL    HW2 4022   5.484   1.914   4.828 -0.9401 -1.7264 -2.5687
 1136SOL     OW 4023   6.790   0.664   6.288 -0.0895 -0.0225  0.1871
 1136SOL    HW1 4024   6.790   0.635   6.379  2.3167 -1.0170 -0.0652
 1136SOL    HW2 4025   6.795   0.759   6.293  0.6285 -0.0990  1.1056
 1137SOL     OW 4026   5.020   4.488   3.155  0.2693  0.7168  0.1624
 1137SOL    HW1 4027   5.084   4.448   3.097  0.6159 -0.0772  1.0689
 1137SOL    HW2 4028   5.021   4.581   3.132  2.3553  0.8718  0.7167
 1138SOL     OW 4029   4.803   5.520   3.415  0.5893  0.6599 -0.1547
 1138SOL    HW1 4030   4.727   5.509   3.473 -0.6840 -0.2464 -1.9002
 1138SOL    HW2 4031   4.839   5.432   3.406  1.4687  0.9838  0.1475
 1139SOL     OW 4032   0.411   5.550   4.572 -0.0642  0.5010 -0.2467
 1139SOL    HW1 4033   0.506   5.539   4.581  0.3066  2.2531 -1.5837
 1139SOL    HW2 4034   0.384   5.474   4.520  0.6357  0.0996 -0.0400
 1140SOL     OW 4035   0.635   0.893   0.486 -0.0478 -0.0984 -0.6740
 1140SOL    HW1 4036   0.695   0.845   0.429 -1.0300 -0.1678 -1.7019
 1140SOL    HW2 4037   0.622   0.977   0.442 -0.5121  0.0048 -0.3503
 1141SOL     OW 4038   3.832   4.141   4.548  0.7379 -0.1503  0.0394
 1141SOL    HW1 4039   3.772   4.210   4.520 -0.8294 -1.1533  0.7499
 1141SOL    HW2 4040   3.914   4.186   4.567 -0.0835  1.4381 -0.0132
 1142SOL     OW 4041   2.703   2.817   2.523  0.2326  0.0947  0.8218
 1142SOL    HW1 4042   2.622   2.790   2.567 -1.6386 -0.6532 -2.7061
 1142SOL    HW2 4043   2.723   2.746   2.463  0.6664  2.3221 -1.9013
 1143SOL     OW 4044   3.999   0.513   0.716  0.4365 -0.4460 -0.2142
 1143SOL    HW1 4045   3.975   0.426   0.746 -1.8418  0.3149  0.4125
 1143SOL    HW2 4046   4.022   0.561   0.795 -0.0959  0.0169 -0.3340
 1144SOL     OW 4047   6.467   4.032   3.591 -0.0296 -0.2832 -0.6174
 1144SOL    HW1 4048   6.491   4.053   3.501  3.0611 -1.0993 -0.1208
 1144SOL    HW2 4049   6.443   3.939   3.589 -0.5426 -0.1505 -0.6861
 1145SOL     OW 4050   5.538   0.546   5.947  0.6193 -0.3939  0.2580
 1145SOL    HW1 4051   5.443   0.545   5.959  0.5019  0.5382 -0.4687
 1145SOL    HW2 4052   5.551   0.584   5.860  1.6799  0.6399  0.8317
 1146SOL     OW 4053   2.618   6.899   3.003 -0.0686  0.5367  0.1144
 1146SOL    HW1 4054   2.587   6.854   3.081  0.4136  1.2214  0.7151
 1146SOL    HW2 4055   2.565   6.979   2.998 -0.8386 -0.0196 -0.8734
 1147SOL     OW 4056   2.901   3.153   3.178  0.8562  0.7481 -0.1342
 1147SOL    HW1 4057   2.846   3.077   3.197 -0.1095  1.4718  0.1001
 1147SOL    HW2 4058   2.960   3.159   3.253 -0.9595  1.8527  1.3101
 1148SOL     OW 4059   3.438   2.734   6.679 -0.5023 -0.3024  0.4952
 1148SOL    HW1 4060   3.348   2.769   6.677 -0.0255  1.0192 -1.5595
 1148SOL    HW2 4061   3.488   2.800   6.727 -0.3465 -0.1970  0.1931
 1149SOL     OW 4062   2.244   6.161   4.720 -0.3190 -0.1097 -0.1622
 1149SOL    HW1 4063   2.205   6.218   4.654  1.6620  2.8277  1.0258
 1149SOL    HW2 4064   2.320   6.122   4.676  0.6328  1.3568  0.0997
 1150SOL     OW 4065   0.407   0.244   5.947 -0.1554 -0.3114 -0.2942
 1150SOL    HW1 4066   0.473   0.216   6.010 -0.4885 -0.8241 -0.1654
 1150SOL    HW2 4067   0.337   0.280   6.001 -1.3229 -2.5417 -0.1934
 1151SOL     OW 4068   1.543   5.356   0.948 -0.1864 -0.2641 -0.5101
 1151SOL    HW1 4069   1.601   5.432   0.942 -1.0179  0.5517  1.1278
 1151SOL    HW2 4070   1.487   5.362   0.871 -2.1331  2.4573  0.9591
 1152SOL     OW 4071   7.117   3.824   6.505 -0.4576 -0.0547  0.2852
 1152SOL    HW1 4072   7.158   3.892   6.558 -1.2500 -0.8919  2.0687
 1152SOL    HW2 4073   7.183   3.800   6.441 -0.3312  2.7117 -0.7519
 1153SOL     OW 4074   0.175   0.321   3.519  0.6186 -0.3704 -0.5473
 1153SOL    HW1 4075   0.118   0.381   3.568 -1.0444 -0.2998 -2.4547
 1153SOL    HW2 4076   0.162   0.345   3.428  3.3821 -0.7147 -1.1167
 1154SOL     OW 4077   0.847   1.907   7.230  0.0526  0.0262 -0.5182
 1154SOL    HW1 4078   0.792   1.972   7.186 -3.7443 -2.3468  0.2565
 1154SOL    HW2 4079   0.880   1.852   7.158 -0.8883 -0.0979 -0.8752
 1155SOL     OW 4080   4.183   2.249   6.972 -0.1350  0.5681 -0.0444
 1155SOL    HW1 4081   4.126   2.173   6.980 -1.1645  0.9621 -2.6766
 1155SOL    HW2 4082   4.242   2.228   6.900  1.9247  0.9137  1.4567
 1156SOL     OW 4083   6.560   1.401   3.092 -0.7935 -0.4604  0.5677
 1156SOL    HW1 4084   6.523   1.355   3.168  2.1200  0.5981  2.8269
 1156SOL    HW2 4085   6.534   1.492   3.104 -3.3255 -0.7426 -1.8137
 1157SOL     OW 4086   3.535   6.054   1.377 -0.0464 -0.2453 -0.2840
 1157SOL    HW1 4087   3.629   6.045   1.394  0.1113  0.6178 -0.6555
 1157SOL    HW2 4088   3.521   6.010   1.293  0.5474  2.0035 -1.6244
 1158SOL     OW 4089   0.966   1.098   5.363  0.0209  0.5644 -0.7683
 1158SOL    HW1 4090   1.003   1.172   5.316  0.7992  0.9708  0.4392
 1158SOL    HW2 4091   0.932   1.135   5.444 -0.3672 -0.2769 -0.5291
 1159SOL     OW 4092   5.448   2.380   1.044 -0.0437  0.0072  0.2814
 1159SOL    HW1 4093   5.382   2.346   1.105  0.4919 -1.0990  0.2737
 1159SOL    HW2 4094   5.415   2.356   0.957  0.9633 -1.7340  0.3333
 1160SOL     OW 4095   5.329   1.846   2.903  0.0680 -0.3663  0.1600
 1160SOL    HW1 4096   5.357   1.925   2.858  0.9044 -0.0086  1.2579
 1160SOL    HW2 4097   5.238   1.834   2.877 -0.3492  1.4644  0.6431
 1161SOL     OW 4098   2.376   3.046   6.746  0.0009 -0.2175  0.2362
 1161SOL    HW1 4099   2.429   3.013   6.818  1.6857  1.3361 -0.1929
 1161SOL    HW2 4100   2.410   3.135   6.730  1.2681 -1.2073 -3.8746
 1162SOL     OW 4101   5.631   1.400   0.937 -0.4699  0.0884 -0.4063
 1162SOL    HW1 4102   5.586   1.483   0.955  1.3289  0.9651  0.2939
 1162SOL    HW2 4103   5.579   1.334   0.983 -1.2550  0.9900  0.0358
 1163SOL     OW 4104   6.931   0.109   1.197  0.0465  0.2343 -0.2279
 1163SOL    HW1 4105   6.892   0.043   1.255  1.3078 -0.5499 -0.2417
 1163SOL    HW2 4106   6.891   0.092   1.112 -1.0473  0.7342  0.1606
 1164SOL     OW 4107   6.505   6.637   1.234  0.4041 -0.3808 -0.1643
 1164SOL    HW1 4108   6.597   6.656   1.255  0.4321  0.4592 -0.9641
 1164SOL    HW2 4109   6.455   6.691   1.295  0.4734  0.5713 -0.9125
 1165SOL     OW 4110   5.908   3.766   1.476  0.1727 -0.7215  0.1173
 1165SOL    HW1 4111   5.924   3.837   1.413  1.5334 -1.6814 -0.6743
 1165SOL    HW2 4112   5.940   3.688   1.432 -1.5732 -1.9073  0.8613
 1166SOL     OW 4113   6.997   1.700   6.161  0.1539  0.1039 -0.0758
 1166SOL    HW1 4114   7.049   1.708   6.081  0.2230 -1.9820 -0.2777
 1166SOL    HW2 4115   6.906   1.702   6.130  0.1819 -1.3916 -0.3255
 1167SOL     OW 4116   3.387   2.833   1.610 -0.4580 -0.1508  0.2283
 1167SOL    HW1 4117   3.345   2.819   1.525  1.7648  0.5403 -1.0752
 1167SOL    HW2 4118   3.350   2.916   1.641 -1.1794 -0.3340 -0.1145
 1168SOL     OW 4119   4.518   1.958   5.270 -0.8102  0.2934  0.1752
 1168SOL    HW1 4120   4.509   1.983   5.362  0.1440  1.0857  0.0737
 1168SOL    HW2 4121   4.454   2.012   5.224 -0.0012  1.2721  0.1707
 1169SOL     OW 4122   6.590   4.737   5.199 -0.5325  0.3035 -0.3564
 1169SOL    HW1 4123   6.657   4.772   5.258  0.0688  0.8925 -1.3594
 1169SOL    HW2 4124   6.518   4.800   5.205 -0.2018  0.7326 -0.7356
 1170SOL     OW 4125   2.022   5.145   5.625  0.3925  0.2035  0.0961
 1170SOL    HW1 4126   2.049   5.237   5.636  0.1789  0.3643 -0.6832
 1170SOL    HW2 4127   2.105   5.098   5.614  0.5153  0.2700  0.6907
 1171SOL     OW 4128   0.157   2.378   2.319 -0.5765 -0.3770  0.0872
 1171SOL    HW1 4129   0.136   2.443   2.253  0.3617  0.9787  1.0828
 1171SOL    HW2 4130   0.078   2.374   2.374 -0.1404  0.9590  0.8339
 1172SOL     OW 4131   2.895   6.298   1.678  1.0082  0.3828  0.4083
 1172SOL    HW1 4132   2.824   6.333   1.625  0.7680 -0.9084 -0.1549
 1172SOL    HW2 4133   2.972   6.347   1.651  1.2874 -1.4172 -2.5509
 1173SOL     OW 4134   4.914   1.001   7.198  0.1238  0.0463 -0.1233
 1173SOL    HW1 4135   4.904   1.054   7.120  1.0300  0.6307  0.1496
 1173SOL    HW2 4136   4.909   1.063   7.271  0.9552 -0.2578  0.2081
 1174SOL     OW 4137   1.747   5.267   1.929 -0.2152 -0.3516 -0.0142
 1174SOL    HW1 4138   1.685   5.207   1.970 -0.7960  0.8646  0.9468
 1174SOL    HW2 4139   1.831   5.245   1.970 -0.8273  1.0327  2.1362
 1175SOL     OW 4140   3.985   3.345   6.249 -0.1354 -0.2824  0.4869
 1175SOL    HW1 4141   3.958   3.424   6.295  0.4763 -0.1692  0.6541
 1175SOL    HW2 4142   4.070   3.367   6.210 -0.4323 -0.5219 -0.3139
 1176SOL     OW 4143   2.266   4.376   4.405  0.1128  0.4440  0.5696
 1176SOL    HW1 4144   2.271   4.307   4.471  0.6971 -0.3715 -0.2970
 1176SOL    HW2 4145   2.176   4.369   4.371 -0.7432  1.9389  2.3528
 1177SOL     OW 4146   1.536   1.891   6.868 -0.0722 -0.7462 -0.5270
 1177SOL    HW1 4147   1.477   1.956   6.905  1.2052  2.4271 -3.4571
 1177SOL    HW2 4148   1.480   1.838   6.810 -0.8133 -0.9849  0.3938
 1178SOL     OW 4149   0.054   3.427   3.357  0.5967  0.5799  0.3190
 1178SOL    HW1 4150   0.090   3.511   3.385  0.9474 -0.0462  1.8251
 1178SOL    HW2 4151  -0.041   3.440   3.359  0.5805  0.4481  2.2886
 1179SOL     OW 4152   4.491   3.140   0.813  0.4219 -0.3186 -0.3605
 1179SOL    HW1 4153   4.585   3.144   0.797  0.7046  1.8240  1.3282
 1179SOL    HW2 4154   4.481   3.086   0.891  0.3128 -0.0516 -0.1874
 1180SOL     OW 4155   3.813   6.616   0.437  0.1014 -0.0252 -0.0257
 1180SOL    HW1 4156   3.797   6.595   0.529  1.2033  1.2423  0.4926
 1180SOL    HW2 4157   3.733   6.591   0.393 -1.2980  1.2908  1.6139
 1181SOL     OW 4158   5.658   6.685   2.569 -0.3449  0.5443 -0.7986
 1181SOL    HW1 4159   5.693   6.721   2.487 -1.3167  0.6573 -1.1725
 1181SOL    HW2 4160   5.713   6.609   2.587  0.4669  1.0523 -1.0556
 1182SOL     OW 4161   1.388   4.392   0.635 -0.7486 -0.1501  0.0744
 1182SOL    HW1 4162   1.363   4.472   0.681  0.9770  0.8313 -0.6018
 1182SOL    HW2 4163   1.433   4.339   0.701  1.7273  1.2566 -0.3856
 1183SOL     OW 4164   5.401   1.620   0.013 -0.0990  0.2177  0.5314
 1183SOL    HW1 4165   5.369   1.667  -0.064 -0.6099 -1.3702 -0.2780
 1183SOL    HW2 4166   5.426   1.689   0.075  0.9945  1.5646 -1.2951
 1184SOL     OW 4167   0.611   0.687   3.521 -0.2274 -0.0184  0.3661
 1184SOL    HW1 4168   0.547   0.618   3.538 -1.7611  1.1361 -0.4164
 1184SOL    HW2 4169   0.660   0.696   3.603 -1.3152 -0.6978  1.1159
 1185SOL     OW 4170   0.752   6.809   1.430  1.1001  0.1375 -0.1783
 1185SOL    HW1 4171   0.760   6.861   1.510 -1.4664  1.2652 -0.5644
 1185SOL    HW2 4172   0.790   6.865   1.361  0.3810  0.5804 -0.2295
 1186SOL     OW 4173   0.702   0.757   2.902 -0.4434  0.6468 -0.1220
 1186SOL    HW1 4174   0.651   0.833   2.931  0.6428  0.9647  1.0434
 1186SOL    HW2 4175   0.703   0.698   2.978  0.0289  0.1775 -0.4838
 1187SOL     OW 4176   5.413   5.290   1.788  0.4682 -0.0822 -0.4429
 1187SOL    HW1 4177   5.355   5.363   1.807 -0.7427 -0.5019 -2.2480
 1187SOL    HW2 4178   5.482   5.329   1.733  0.8571  0.0461  0.1287
 1188SOL     OW 4179   0.632   3.155   0.266  0.1876 -0.7911  0.1415
 1188SOL    HW1 4180   0.680   3.175   0.347  0.3796 -0.0114 -0.1519
 1188SOL    HW2 4181   0.541   3.142   0.295  0.2884 -0.6940  0.5106
 1189SOL     OW 4182   2.614   4.786   3.947 -0.4158  0.2528 -0.2110
 1189SOL    HW1 4183   2.644   4.809   4.035 -0.5189  0.5722 -0.2608
 1189SOL    HW2 4184   2.688   4.807   3.890 -1.0915  2.0932 -0.4842
 1190SOL     OW 4185   4.327   1.639   6.393  0.1608 -0.0949  0.2306
 1190SOL    HW1 4186   4.421   1.639   6.411  0.2000 -1.8869  0.2603
 1190SOL    HW2 4187   4.295   1.560   6.438 -1.5628  1.0879  1.1886
 1191SOL     OW 4188   3.548   2.585   3.498  0.6592 -0.0465 -0.7180
 1191SOL    HW1 4189   3.627   2.639   3.498  0.7290 -0.1459 -1.4634
 1191SOL    HW2 4190   3.524   2.577   3.406  0.0725 -0.4493 -0.5341
 1192SOL     OW 4191   1.943   0.685   3.670  0.6568 -0.4021 -0.4906
 1192SOL    HW1 4192   1.941   0.732   3.587  1.2697 -1.7696 -1.3179
 1192SOL    HW2 4193   2.023   0.633   3.666  0.8350 -0.2973  1.0794
 1193SOL     OW 4194   4.610   7.183   5.108 -0.2791 -0.6632  0.1822
 1193SOL    HW1 4195   4.704   7.190   5.125  0.0077 -0.3999 -1.3542
 1193SOL    HW2 4196   4.572   7.257   5.155  0.5790  0.5801 -0.9849
 1194SOL     OW 4197   0.684   6.540   0.184 -0.5084  0.0602 -0.7045
 1194SOL    HW1 4198   0.712   6.455   0.150  0.4468  0.5937 -1.2629
 1194SOL    HW2 4199   0.620   6.572   0.120 -0.6334 -0.0880 -0.6551
 1195SOL     OW 4200   1.646   6.579   4.769  0.3576  0.2949 -0.3683
 1195SOL    HW1 4201   1.615   6.618   4.687  2.8777 -0.8650 -2.0400
 1195SOL    HW2 4202   1.668   6.488   4.745  1.0531 -0.1184  1.6327
 1196SOL     OW 4203   2.866   2.222   3.045  0.1024  0.1018  0.5669
 1196SOL    HW1 4204   2.886   2.145   3.099  0.8747 -0.0528  0.0701
 1196SOL    HW2 4205   2.884   2.296   3.103  2.0306 -0.0323  0.2108
 1197SOL     OW 4206   3.541   3.273   4.022 -0.4830  0.0757 -0.7687
 1197SOL    HW1 4207   3.450   3.296   4.036 -0.1396  0.3809  1.2510
 1197SOL    HW2 4208   3.540   3.178   4.007 -1.0116 -0.2648  1.1340
 1198SOL     OW 4209   6.015   6.527   0.434  0.1733 -0.4239 -0.3783
 1198SOL    HW1 4210   6.102   6.501   0.403  0.3803 -0.2576  0.0583
 1198SOL    HW2 4211   5.989   6.455   0.492  0.7990  0.3740  0.9315
 1199SOL     OW 4212   3.880   0.324   3.246  0.4951 -0.1712  0.5906
 1199SOL    HW1 4213   3.869   0.377   3.324 -1.5365  2.2645 -1.1782
 1199SOL    HW2 4214   3.798   0.275   3.238  0.6325 -0.3085 -0.0679
 1200SOL     OW 4215   1.551   4.267   1.761  0.2678 -0.0219 -0.0397
 1200SOL    HW1 4216   1.507   4.324   1.824 -0.4030  0.9549 -1.3519
 1200SOL    HW2 4217   1.640   4.302   1.756  0.0212  0.5723 -0.4074
 1201SOL     OW 4218   2.918   4.700   1.522  0.1662  0.4106 -0.0769
 1201SOL    HW1 4219   2.972   4.621   1.525 -1.7392 -0.9281  1.1341
 1201SOL    HW2 4220   2.941   4.742   1.439  1.1449 -1.4808 -0.8167
 1202SOL     OW 4221   0.434   2.387   0.939  0.3815 -0.0865 -0.0615
 1202SOL    HW1 4222   0.474   2.325   1.000  0.6301  1.1819  1.1237
 1202SOL    HW2 4223   0.508   2.437   0.904  0.1129  0.1122 -0.3455
 1203SOL     OW 4224   2.717   4.102   5.226  0.1843 -0.0295  0.0169
 1203SOL    HW1 4225   2.665   4.025   5.249  0.3823 -0.2233 -0.1785
 1203SOL    HW2 4226   2.667   4.176   5.261  0.4268 -0.3050  0.9772
 1204SOL     OW 4227   0.723   4.124   4.853  0.1034 -0.2415 -0.0003
 1204SOL    HW1 4228   0.758   4.209   4.881  0.8745 -1.1508  1.9727
 1204SOL    HW2 4229   0.699   4.137   4.761  0.9776  1.8642  0.0191
 1205SOL     OW 4230   0.123   4.040   2.634  0.1246 -0.0298 -0.0826
 1205SOL    HW1 4231   0.144   3.976   2.701  0.2323  0.0491 -0.0413
 1205SOL    HW2 4232   0.192   4.030   2.568  0.5952  0.5924  0.3047
 1206SOL     OW 4233   1.466   5.711   1.984  0.2740  0.1931 -0.6051
 1206SOL    HW1 4234   1.530   5.772   1.949  1.3670  0.7971  2.2141
 1206SOL    HW2 4235   1.518   5.638   2.017 -0.7729 -0.7758 -1.0106
 1207SOL     OW 4236   2.324   5.559   0.536  0.4520  0.6004 -0.4057
 1207SOL    HW1 4237   2.304   5.530   0.625  1.3368 -0.3355 -0.4953
 1207SOL    HW2 4238   2.261   5.629   0.519 -1.3018 -0.7934  0.0833
 1208SOL     OW 4239   4.380   6.659   1.796 -0.3641 -0.1660  0.0004
 1208SOL    HW1 4240   4.286   6.674   1.810 -0.2617 -0.2392  0.8198
 1208SOL    HW2 4241   4.384   6.596   1.724 -0.8820  1.4650 -1.5277
 1209SOL     OW 4242   0.869   0.537   6.395  0.0775 -0.4737 -0.2267
 1209SOL    HW1 4243   0.888   0.557   6.487  0.2841  0.1472 -0.4000
 1209SOL    HW2 4244   0.955   0.516   6.357  0.0973 -0.0191 -0.4434
 1210SOL     OW 4245   6.757   3.465   5.622 -0.0506  0.2354 -0.0602
 1210SOL    HW1 4246   6.686   3.425   5.572 -1.0560  1.2814  0.4896
 1210SOL    HW2 4247   6.810   3.391   5.652 -1.0558 -0.5860 -0.2507
 1211SOL     OW 4248   3.407   6.005   0.394 -0.4058 -0.5090 -0.0214
 1211SOL    HW1 4249   3.450   5.968   0.317  0.8423 -1.7910  1.2270
 1211SOL    HW2 4250   3.333   5.946   0.411  0.0026 -0.9019  0.4166
 1212SOL     OW 4251   5.763   4.592   4.513 -0.3712 -0.8406  0.6143
 1212SOL    HW1 4252   5.703   4.617   4.442 -1.0115 -1.8033  0.8025
 1212SOL    HW2 4253   5.729   4.639   4.589 -0.7234 -1.1559  0.6555
 1213SOL     OW 4254   6.390   3.619   3.206  0.3040 -0.3818  0.3866
 1213SOL    HW1 4255   6.374   3.536   3.250 -0.7536 -2.4048 -3.3659
 1213SOL    HW2 4256   6.481   3.613   3.176  0.1273 -0.3769 -0.1649
 1214SOL     OW 4257   3.910   5.978   4.123 -0.6693  0.1024 -0.0354
 1214SOL    HW1 4258   4.003   5.958   4.114 -0.6516  0.4228 -0.5907
 1214SOL    HW2 4259   3.897   6.057   4.072 -1.4246 -0.4526 -0.7267
 1215SOL     OW 4260   2.879   0.664   2.582  0.0769  0.0907  0.2535
 1215SOL    HW1 4261   2.974   0.671   2.580 -0.0023  1.1795 -0.2396
 1215SOL    HW2 4262   2.859   0.634   2.671  0.8449  0.4986  0.5705
 1216SOL     OW 4263   6.100   1.239   6.879 -0.7497 -0.4790  0.3218
 1216SOL    HW1 4264   6.070   1.187   6.953  0.9339 -0.7591  0.8611
 1216SOL    HW2 4265   6.196   1.239   6.887 -0.6163  3.1456  0.6615
 1217SOL     OW 4266   6.196   0.398   0.835 -0.0666 -0.1885 -0.3942
 1217SOL    HW1 4267   6.222   0.479   0.878 -0.1381 -0.2295 -0.2713
 1217SOL    HW2 4268   6.170   0.340   0.907 -1.4906  0.2048 -0.5788
 1218SOL     OW 4269   3.107   5.394   6.505 -0.0583  0.1041  0.0769
 1218SOL    HW1 4270   3.017   5.421   6.487 -0.5149  0.8961  2.9981
 1218SOL    HW2 4271   3.099   5.322   6.568  1.3531 -0.6722 -0.5771
 1219SOL     OW 4272   3.043   0.840   0.895 -0.0962  0.0923  0.2193
 1219SOL    HW1 4273   2.995   0.880   0.967  0.1962 -1.7812  1.5233
 1219SOL    HW2 4274   3.129   0.819   0.931 -0.3119 -1.9034 -0.2617
 1220SOL     OW 4275   5.179   1.557   3.039 -0.2912 -0.5331 -0.3347
 1220SOL    HW1 4276   5.241   1.630   3.036 -0.1739 -0.6393 -0.4912
 1220SOL    HW2 4277   5.175   1.533   3.132 -2.1958  1.2630  0.1155
 1221SOL     OW 4278   1.617   6.036   5.046  0.0456 -0.2266 -0.6469
 1221SOL    HW1 4279   1.702   6.039   5.002 -0.0564  0.0998 -0.8283
 1221SOL    HW2 4280   1.637   6.007   5.135  0.3354 -0.2496 -0.7175
 1222SOL     OW 4281   3.987   1.780   5.815 -0.0870  0.4471 -0.0720
 1222SOL    HW1 4282   4.044   1.854   5.840  0.6984 -0.2762  0.3467
 1222SOL    HW2 4283   4.031   1.703   5.853 -0.7199 -0.2728 -0.7817
 1223SOL     OW 4284   3.406   4.321   5.540  0.2848  0.3567 -0.0466
 1223SOL    HW1 4285   3.460   4.247   5.567  1.0736  0.7725 -0.4569
 1223SOL    HW2 4286   3.369   4.295   5.456 -0.8762 -0.2806  0.6339
 1224SOL     OW 4287   4.066   2.548   1.961  0.0908  0.0283  0.3095
 1224SOL    HW1 4288   4.030   2.622   1.912 -0.6208  0.2823  1.1798
 1224SOL    HW2 4289   4.159   2.549   1.941 -0.1087  0.3861 -0.6784
 1225SOL     OW 4290   4.541   2.233   5.843  0.2617 -0.5700  0.2275
 1225SOL    HW1 4291   4.516   2.324   5.857  1.3395 -0.1157 -0.7134
 1225SOL    HW2 4292   4.469   2.197   5.790  0.6597  0.2279 -0.8935
 1226SOL     OW 4293   5.730   7.009   3.289  0.5232 -0.3488  0.5160
 1226SOL    HW1 4294   5.816   7.051   3.278  0.0970  0.2161 -0.8085
 1226SOL    HW2 4295   5.673   7.053   3.226 -0.8479 -0.4698  1.6344
 1227SOL     OW 4296   0.484   1.189   5.245 -0.1623  0.0087  0.1186
 1227SOL    HW1 4297   0.526   1.221   5.325  0.7039  0.9416 -0.6816
 1227SOL    HW2 4298   0.508   1.253   5.178 -1.8502 -0.1166 -0.6506
 1228SOL     OW 4299   5.373   6.185   3.028  0.3308 -0.3353 -0.7079
 1228SOL    HW1 4300   5.351   6.125   3.100  0.7509  1.8816  1.4222
 1228SOL    HW2 4301   5.289   6.204   2.987 -0.0818 -0.8924 -0.1471
 1229SOL     OW 4302   3.777   3.344   5.339  0.0809 -0.0019 -0.3722
 1229SOL    HW1 4303   3.682   3.348   5.334  0.0447 -0.0507  0.3281
 1229SOL    HW2 4304   3.800   3.258   5.303 -0.2586 -0.7537  1.1394
 1230SOL     OW 4305   0.833   0.403   3.650 -0.3442 -0.7266  0.0608
 1230SOL    HW1 4306   0.760   0.341   3.654 -0.5858 -0.3917  1.1838
 1230SOL    HW2 4307   0.905   0.353   3.610 -0.7047 -1.5561  0.4295
 1231SOL     OW 4308   6.856   3.610   2.835  0.3409  0.5636  0.9578
 1231SOL    HW1 4309   6.866   3.555   2.757 -1.1578 -0.6095  1.5421
 1231SOL    HW2 4310   6.861   3.700   2.802  0.6644  0.0920 -0.3388
 1232SOL     OW 4311   0.959   2.698   3.738 -0.1291  0.2916 -0.1999
 1232SOL    HW1 4312   1.023   2.630   3.760  0.1910  0.7941  0.4301
 1232SOL    HW2 4313   0.874   2.654   3.744  0.1497 -0.4271 -1.2134
 1233SOL     OW 4314   1.609   3.700   2.829 -0.1169  0.0412 -0.0227
 1233SOL    HW1 4315   1.636   3.781   2.785 -0.3366 -0.5427 -1.3003
 1233SOL    HW2 4316   1.560   3.652   2.762 -0.5453 -0.8648  0.9135
 1234SOL     OW 4317   5.237   5.008   4.472  0.2426 -0.3744  0.5944
 1234SOL    HW1 4318   5.196   4.952   4.407  0.6597 -2.6105  2.1261
 1234SOL    HW2 4319   5.269   5.084   4.423 -0.4141 -1.4368 -1.5770
 1235SOL     OW 4320   1.263   2.810   4.258  0.2291  0.0304  0.4295
 1235SOL    HW1 4321   1.225   2.760   4.330  0.1372 -1.0967 -0.3769
 1235SOL    HW2 4322   1.354   2.824   4.285 -0.0495  0.4572  1.1861
 1236SOL     OW 4323   5.278   3.545   3.540  0.5621 -0.9030 -0.5868
 1236SOL    HW1 4324   5.350   3.515   3.484 -0.0533 -0.9081 -1.3973
 1236SOL    HW2 4325   5.276   3.639   3.527  0.4803 -0.8924 -0.4944
 1237SOL     OW 4326   1.688   0.267   6.964 -0.3744 -0.6487 -0.0997
 1237SOL    HW1 4327   1.622   0.209   6.927 -0.0440 -0.8457 -0.3846
 1237SOL    HW2 4328   1.770   0.217   6.958 -0.4265 -1.0166  1.6173
 1238SOL     OW 4329   0.146   6.644   5.073 -0.3859  0.1923  0.3075
 1238SOL    HW1 4330   0.197   6.647   4.992  0.2969 -0.8662  0.6745
 1238SOL    HW2 4331   0.115   6.554   5.078  0.9197 -0.2064  2.0204
 1239SOL     OW 4332   3.848   0.148   6.699 -0.0065 -0.5071 -0.2016
 1239SOL    HW1 4333   3.785   0.084   6.730 -0.4335  0.3267  0.7022
 1239SOL    HW2 4334   3.915   0.152   6.767  0.9390 -1.2390 -1.0605
 1240SOL     OW 4335   2.776   0.420   4.984 -0.4971 -0.3730 -0.5349
 1240SOL    HW1 4336   2.817   0.362   5.049 -0.6002 -1.6405 -1.5516
 1240SOL    HW2 4337   2.821   0.399   4.902 -1.1037  0.4197 -1.0842
 1241SOL     OW 4338   5.297   6.565   3.715  0.2252 -0.1264  0.2066
 1241SOL    HW1 4339   5.311   6.550   3.621  0.9042  1.8560 -0.0595
 1241SOL    HW2 4340   5.237   6.639   3.719 -0.9614 -1.1088  1.3826
 1242SOL     OW 4341   3.700   1.092   4.715  0.0728  0.1499 -0.2714
 1242SOL    HW1 4342   3.768   1.155   4.691  0.2506 -0.5593 -1.7661
 1242SOL    HW2 4343   3.630   1.107   4.652  0.8342 -2.2530 -1.8445
 1243SOL     OW 4344   4.382   3.425   5.632  0.1805  0.4127 -0.0785
 1243SOL    HW1 4345   4.345   3.352   5.582  1.0287  1.0537 -1.7012
 1243SOL    HW2 4346   4.337   3.421   5.717 -1.0059 -0.9551 -0.7309
 1244SOL     OW 4347   0.454   7.016   1.960  0.3007 -0.0586 -0.8872
 1244SOL    HW1 4348   0.461   6.924   1.932  0.4095 -0.0271 -0.9632
 1244SOL    HW2 4349   0.535   7.056   1.931  0.3827 -0.0067 -0.5947
 1245SOL     OW 4350   7.083   0.514   4.600 -0.3979  0.1848  0.0372
 1245SOL    HW1 4351   7.170   0.552   4.595 -0.7000  0.7787 -1.8570
 1245SOL    HW2 4352   7.076   0.460   4.521 -1.5689 -0.2407  0.4047
 1246SOL     OW 4353   0.633   5.595   0.686  0.0644 -0.5492 -0.1365
 1246SOL    HW1 4354   0.625   5.591   0.782  0.1254 -3.4718 -0.1622
 1246SOL    HW2 4355   0.544   5.611   0.656  0.0920  0.7072  0.3836
 1247SOL     OW 4356   1.758   3.582   0.021 -0.2148  0.2685  0.4593
 1247SOL    HW1 4357   1.747   3.506   0.078 -2.9997  1.0147  1.0578
 1247SOL    HW2 4358   1.826   3.634   0.063  2.3750 -2.1417 -0.3974
 1248SOL     OW 4359   4.808   1.868   7.182  0.1153 -0.7339 -0.0784
 1248SOL    HW1 4360   4.847   1.887   7.097 -0.0013  1.8838  0.3641
 1248SOL    HW2 4361   4.714   1.862   7.164  0.0321  0.4003 -0.0713
 1249SOL     OW 4362   3.754   1.994   4.337  0.1738  0.1776 -0.2935
 1249SOL    HW1 4363   3.821   2.022   4.399 -0.3853 -1.1193  0.9317
 1249SOL    HW2 4364   3.768   1.900   4.326 -1.8673 -0.2912  0.5918
 1250SOL     OW 4365   0.544   5.964   2.917 -0.5873  0.3706 -0.0117
 1250SOL    HW1 4366   0.518   5.872   2.923 -1.1395  0.5662  0.9562
 1250SOL    HW2 4367   0.480   6.009   2.972 -0.2916  1.3286 -0.4432
 1251SOL     OW 4368   6.657   6.766   3.163 -0.5410  0.5166 -0.8843
 1251SOL    HW1 4369   6.608   6.684   3.164 -1.2854  0.9575 -0.6406
 1251SOL    HW2 4370   6.592   6.834   3.182  0.2519  1.0674 -0.0077
 1252SOL     OW 4371   5.797   6.605   6.807  0.5293  0.0760  0.9993
 1252SOL    HW1 4372   5.748   6.684   6.787 -2.2700 -2.0186 -1.0912
 1252SOL    HW2 4373   5.868   6.636   6.865 -0.1441  4.0865  0.0195
 1253SOL     OW 4374   2.195   0.779   2.522  0.3600 -0.2306 -0.1647
 1253SOL    HW1 4375   2.206   0.786   2.617 -1.1829 -0.7709  0.0789
 1253SOL    HW2 4376   2.250   0.704   2.497 -1.1349 -1.6907  0.7107
 1254SOL     OW 4377   1.037   7.243   0.719  0.0449 -0.3674 -0.4625
 1254SOL    HW1 4378   0.973   7.172   0.720 -0.8716  0.3423 -2.5249
 1254SOL    HW2 4379   1.122   7.199   0.711 -0.3795 -1.2693 -0.1042
 1255SOL     OW 4380   1.565   0.612   5.251 -0.2637  0.3020 -0.5138
 1255SOL    HW1 4381   1.534   0.530   5.214  0.8822 -0.8660  0.9487
 1255SOL    HW2 4382   1.486   0.659   5.276 -0.9515 -1.1164  0.1200
 1256SOL     OW 4383   0.384   4.006   1.157 -0.8157  0.0366  0.0299
 1256SOL    HW1 4384   0.468   3.959   1.148 -1.4712 -0.9252 -1.4618
 1256SOL    HW2 4385   0.344   3.968   1.235  0.4447  1.0596  1.2240
 1257SOL     OW 4386   2.042   2.340   4.619 -0.3604  0.6643 -0.3735
 1257SOL    HW1 4387   2.069   2.331   4.710 -1.0208  0.6915 -0.1670
 1257SOL    HW2 4388   2.117   2.379   4.575  0.3934 -0.4084 -0.0827
 1258SOL     OW 4389   0.652   2.696   1.440  0.4335 -0.6005 -0.0649
 1258SOL    HW1 4390   0.596   2.742   1.503  2.1790 -0.7468  1.6766
 1258SOL    HW2 4391   0.701   2.765   1.397 -0.7097 -0.5063 -1.2835
 1259SOL     OW 4392   1.077   6.669   5.492 -0.3742 -0.1484  0.5745
 1259SOL    HW1 4393   1.066   6.741   5.431  2.1830  0.4804  0.7534
 1259SOL    HW2 4394   1.106   6.595   5.438 -2.2214 -0.8713  0.5018
 1260SOL     OW 4395   1.763   4.259   4.523  0.0842 -0.4317  0.3460
 1260SOL    HW1 4396   1.698   4.276   4.455  0.6131  0.7149  0.1101
 1260SOL    HW2 4397   1.712   4.251   4.604 -0.4685 -0.9642 -0.0477
 1261SOL     OW 4398   4.856   5.431   6.268 -0.2206 -0.3555  0.8651
 1261SOL    HW1 4399   4.866   5.476   6.184 -0.6594 -0.9956  0.4493
 1261SOL    HW2 4400   4.768   5.455   6.298  0.4762  1.0477  1.8882
 1262SOL     OW 4401   4.651   4.075   3.798  0.2822  0.1134 -0.4216
 1262SOL    HW1 4402   4.614   4.014   3.863 -0.1365  1.1339  0.3291
 1262SOL    HW2 4403   4.587   4.145   3.792 -0.1782 -0.4169 -2.7239
 1263SOL     OW 4404   6.356   1.891   5.866 -0.0998 -0.6004 -0.5418
 1263SOL    HW1 4405   6.449   1.901   5.845  0.1301  0.8427  0.9671
 1263SOL    HW2 4406   6.329   1.978   5.893 -1.4661 -1.3885  0.7136
 1264SOL     OW 4407   7.157   7.162   6.972 -0.2726  0.4489 -0.7991
 1264SOL    HW1 4408   7.063   7.162   6.951 -0.8286  0.9837  1.3777
 1264SOL    HW2 4409   7.160   7.130   7.062  1.7518 -0.4182 -1.1304
 1265SOL     OW 4410   5.828   0.266   1.120  0.4467 -0.4459 -0.1883
 1265SOL    HW1 4411   5.779   0.325   1.064 -0.0562  0.2396  0.9286
 1265SOL    HW2 4412   5.770   0.250   1.194  1.2769 -0.9081  0.3774
 1266SOL     OW 4413   2.758   1.372   3.510  0.5396  0.8279  0.0005
 1266SOL    HW1 4414   2.815   1.409   3.443 -0.2975  2.4241  0.1164
 1266SOL    HW2 4415   2.733   1.286   3.475  1.6912  0.7828 -0.7876
 1267SOL     OW 4416   2.198   5.247   0.202  0.5343  0.3354 -0.5360
 1267SOL    HW1 4417   2.276   5.298   0.224  0.0606  0.7064  0.3483
 1267SOL    HW2 4418   2.226   5.188   0.132  1.3741  1.0636 -0.8227
 1268SOL     OW 4419   4.457   0.392   5.023 -0.2467  0.0438 -0.3264
 1268SOL    HW1 4420   4.521   0.416   5.089  0.3673  1.6304 -1.4237
 1268SOL    HW2 4421   4.502   0.330   4.966 -0.7879 -1.3512  0.7107
 1269SOL     OW 4422   1.471   6.622   1.666  0.0097 -0.1109  0.1224
 1269SOL    HW1 4423   1.562   6.605   1.641 -0.4470 -1.8917 -0.4891
 1269SOL    HW2 4424   1.434   6.670   1.591  0.3652  0.3635  0.2484
 1270SOL     OW 4425   5.015   0.705   3.892 -0.6810 -0.0197 -0.3186
 1270SOL    HW1 4426   4.942   0.659   3.932 -1.7196 -0.6663 -2.7665
 1270SOL    HW2 4427   5.069   0.635   3.853 -0.1170  0.5969 -0.6696
 1271SOL     OW 4428   4.499   3.413   0.416  0.0108  0.4112  0.4848
 1271SOL    HW1 4429   4.555   3.416   0.494 -0.3724 -1.0137  0.8581
 1271SOL    HW2 4430   4.511   3.498   0.374  0.0257  1.3203  2.2402
 1272SOL     OW 4431   1.901   6.999   3.863  0.3489  0.1736 -0.1656
 1272SOL    HW1 4432   1.974   6.966   3.915 -0.5441 -2.0829 -0.2028
 1272SOL    HW2 4433   1.861   6.920   3.826 -1.2079  1.4498 -1.3437
 1273SOL     OW 4434   3.828   6.752   1.427 -0.5314 -0.4477 -0.0077
 1273SOL    HW1 4435   3.770   6.815   1.385 -0.3059  1.5774  2.4486
 1273SOL    HW2 4436   3.770   6.683   1.457 -1.7183  1.2139  1.8117
 1274SOL     OW 4437   6.943   6.525   2.903  0.2186  0.3719 -0.8142
 1274SOL    HW1 4438   6.988   6.606   2.878  0.9344  0.0535 -0.5728
 1274SOL    HW2 4439   6.872   6.517   2.839 -0.0512  1.3432 -0.6628
 1275SOL     OW 4440   0.482   1.194   6.702 -0.4754 -0.3998 -0.2399
 1275SOL    HW1 4441   0.436   1.128   6.651  0.3484 -0.3229 -1.1045
 1275SOL    HW2 4442   0.512   1.147   6.780  0.6268 -1.2257 -1.1238
 1276SOL     OW 4443   3.334   7.022   7.004  0.6711  0.3837 -0.1206
 1276SOL    HW1 4444   3.264   7.045   7.065  1.2556  0.1831  0.6414
 1276SOL    HW2 4445   3.414   7.026   7.056  1.3850  1.7551 -1.2456
 1277SOL     OW 4446   5.623   3.434   1.591  0.4021  0.1568 -0.1608
 1277SOL    HW1 4447   5.660   3.519   1.617 -0.2290  0.1694  0.7537
 1277SOL    HW2 4448   5.654   3.421   1.502 -1.5476  2.5868 -1.3310
 1278SOL     OW 4449   4.855   2.893   3.037  0.2204 -0.0864 -0.7134
 1278SOL    HW1 4450   4.948   2.880   3.018  0.3794  0.4239 -0.2964
 1278SOL    HW2 4451   4.853   2.928   3.126 -0.4080 -0.6190 -0.5095
 1279SOL     OW 4452   7.049   1.108   1.774  0.5532  0.4476  0.1075
 1279SOL    HW1 4453   7.112   1.052   1.820 -0.1177 -0.8709 -0.5427
 1279SOL    HW2 4454   6.969   1.057   1.770 -0.5460  2.0257  0.7415
 1280SOL     OW 4455   3.375   0.020   3.145  0.1085  0.2345  0.6990
 1280SOL    HW1 4456   3.280   0.031   3.145  0.0918  0.5287 -1.6571
 1280SOL    HW2 4457   3.397   0.005   3.237 -2.3273 -1.0542  1.1612
 1281SOL     OW 4458   4.175   1.135   6.074  0.2960  0.3368 -0.3323
 1281SOL    HW1 4459   4.114   1.200   6.039 -0.4694  0.3300  0.9234
 1281SOL    HW2 4460   4.187   1.160   6.166  1.4027 -0.2560 -0.2993
 1282SOL     OW 4461   5.768   7.110   4.160 -0.3301  0.5046  0.0577
 1282SOL    HW1 4462   5.804   7.022   4.144 -0.8467  0.2766  0.1342
 1282SOL    HW2 4463   5.673   7.097   4.163 -0.4133  1.0779  0.0073
 1283SOL     OW 4464   1.281   2.763   3.275  0.3512  0.1520  0.6731
 1283SOL    HW1 4465   1.349   2.790   3.214  1.3268 -0.7695  1.3299
 1283SOL    HW2 4466   1.234   2.845   3.295 -2.0175  0.1109 -3.5714
 1284SOL     OW 4467   2.308   1.371   5.120 -0.4013  0.9718 -0.5669
 1284SOL    HW1 4468   2.343   1.396   5.034 -1.1687 -0.3039 -1.3010
 1284SOL    HW2 4469   2.221   1.411   5.123 -1.2843 -0.7335 -1.3851
 1285SOL     OW 4470   1.459   6.816   7.176  0.0437 -0.9453 -0.2441
 1285SOL    HW1 4471   1.526   6.829   7.109 -0.8944  0.8989 -0.8843
 1285SOL    HW2 4472   1.379   6.851   7.137 -0.5614  0.0357  1.7741
 1286SOL     OW 4473   4.572   1.357   6.521  0.5681  0.4076  0.1844
 1286SOL    HW1 4474   4.521   1.396   6.592 -1.1471 -1.2550 -0.0623
 1286SOL    HW2 4475   4.514   1.358   6.445  1.9440  1.0389 -0.9094
 1287SOL     OW 4476   6.784   3.333   4.849  0.3652 -0.7655 -0.1329
 1287SOL    HW1 4477   6.826   3.281   4.781  1.2808 -0.8422  0.4684
 1287SOL    HW2 4478   6.773   3.419   4.810 -0.4512 -1.1964 -0.8720
 1288SOL     OW 4479   4.348   3.007   6.490 -0.5074 -0.1259  0.2008
 1288SOL    HW1 4480   4.443   3.016   6.483 -0.3615 -0.4301  1.4301
 1288SOL    HW2 4481   4.313   3.067   6.424  0.5244  0.6960  0.3632
 1289SOL     OW 4482   0.732   4.586   1.316  0.2401 -0.2172  0.1659
 1289SOL    HW1 4483   0.737   4.501   1.272 -0.0596  0.0801 -0.4499
 1289SOL    HW2 4484   0.685   4.642   1.255 -0.0553  0.2465  0.8048
 1290SOL     OW 4485   6.123   3.993   2.941 -0.9089  0.0705  0.0848
 1290SOL    HW1 4486   6.181   3.954   3.006 -0.7325  1.0496  0.5461
 1290SOL    HW2 4487   6.040   3.946   2.950 -1.0879  0.5957  1.4802
 1291SOL     OW 4488   3.972   3.238   3.287 -0.0628 -0.2566  0.0956
 1291SOL    HW1 4489   3.879   3.257   3.277  0.3483  0.7677 -2.6180
 1291SOL    HW2 4490   3.998   3.287   3.365 -2.1618 -2.3997  2.2997
 1292SOL     OW 4491   0.686   0.377   1.394 -0.4239 -0.1191 -0.6323
 1292SOL    HW1 4492   0.761   0.330   1.428 -0.9975 -1.7906 -1.5576
 1292SOL    HW2 4493   0.717   0.467   1.383  0.7635 -0.2928  1.0033
 1293SOL     OW 4494   3.129   1.993   4.770  0.9108  0.1660 -0.5047
 1293SOL    HW1 4495   3.175   1.968   4.850  0.2303 -1.3848 -0.5681
 1293SOL    HW2 4496   3.038   1.968   4.786  0.6875  0.2418 -1.5962
 1294SOL     OW 4497   5.722   1.048   5.249  0.1285 -0.3957 -0.4874
 1294SOL    HW1 4498   5.785   0.977   5.261  0.4773 -0.0523 -0.2296
 1294SOL    HW2 4499   5.695   1.041   5.157  0.9892 -0.1971 -0.7718
 1295SOL     OW 4500   5.725   5.527   4.152  0.3882 -0.1851  0.3835
 1295SOL    HW1 4501   5.722   5.599   4.215  3.6639 -0.1062  0.5748
 1295SOL    HW2 4502   5.737   5.569   4.068  0.7542 -0.4656  0.2959
 1296SOL     OW 4503   4.615   6.537   3.232  0.0265 -0.0008  0.4332
 1296SOL    HW1 4504   4.631   6.454   3.187  1.1211 -0.1715  1.1020
 1296SOL    HW2 4505   4.578   6.512   3.317  0.7123  0.1630  0.7891
 1297SOL     OW 4506   1.638   2.131   5.494  0.7054  0.2122 -0.3586
 1297SOL    HW1 4507   1.575   2.177   5.439  0.2173  0.2055  0.1799
 1297SOL    HW2 4508   1.643   2.183   5.574  0.9057 -0.1288 -0.1452
 1298SOL     OW 4509   2.522   4.262   0.654  0.0616  0.0853 -0.0229
 1298SOL    HW1 4510   2.569   4.344   0.667  0.4263  0.1248 -1.4501
 1298SOL    HW2 4511   2.546   4.209   0.730 -0.2384  1.3119  0.9482
 1299SOL     OW 4512   6.445   3.650   3.963  0.4616 -0.3507 -0.1754
 1299SOL    HW1 4513   6.405   3.717   4.019  0.2507  0.0438 -0.7869
 1299SOL    HW2 4514   6.375   3.621   3.906  0.8266 -0.2812 -0.6707
 1300SOL     OW 4515   1.193   5.126   5.299 -0.0729  0.2520 -0.4588
 1300SOL    HW1 4516   1.126   5.192   5.279  0.5348  0.8899 -0.4096
 1300SOL    HW2 4517   1.171   5.096   5.388  0.4362  1.3809  0.0689
 1301SOL     OW 4518   5.323   2.873   1.117  0.4979 -0.2879 -0.4628
 1301SOL    HW1 4519   5.334   2.914   1.031  0.7189 -1.0872 -0.8249
 1301SOL    HW2 4520   5.310   2.781   1.099 -0.3757 -0.3410  0.3283
 1302SOL     OW 4521   2.568   6.830   5.785  0.6589 -0.0095 -0.1799
 1302SOL    HW1 4522   2.584   6.819   5.691  2.3197 -0.8938  0.1729
 1302SOL    HW2 4523   2.608   6.754   5.825 -1.3555 -0.4454  1.1705
 1303SOL     OW 4524   1.536   5.696   2.852  0.7015  0.2391  0.1170
 1303SOL    HW1 4525   1.456   5.674   2.805  0.6219  2.4651 -0.9277
 1303SOL    HW2 4526   1.581   5.758   2.795  1.1369  2.2725  2.4829
 1304SOL     OW 4527   3.195   1.906   1.426  0.5642 -0.3338  0.1974
 1304SOL    HW1 4528   3.179   1.814   1.404 -0.0975  0.2358 -1.9172
 1304SOL    HW2 4529   3.142   1.922   1.504  0.0310 -1.5087  0.0970
 1305SOL     OW 4530   6.835   4.801   1.195 -0.7791  0.5387  0.7604
 1305SOL    HW1 4531   6.850   4.887   1.155  0.3853  1.2169  2.5746
 1305SOL    HW2 4532   6.849   4.814   1.288 -0.6319 -1.6312  1.1014
 1306SOL     OW 4533   4.121   6.350   5.035  0.4058  0.4177 -0.3880
 1306SOL    HW1 4534   4.193   6.329   5.094  0.7809  1.4348 -0.4690
 1306SOL    HW2 4535   4.106   6.270   4.985  2.2136  0.5261 -1.1558
 1307SOL     OW 4536   2.152   1.755   0.266  0.3129 -0.4162  0.3378
 1307SOL    HW1 4537   2.162   1.684   0.329 -1.4767 -0.3405  0.7800
 1307SOL    HW2 4538   2.191   1.721   0.185 -1.1735 -2.2774  0.3047
 1308SOL     OW 4539   0.909   6.971   1.271  0.4504  0.4179 -0.1991
 1308SOL    HW1 4540   0.999   6.989   1.243 -0.1048  1.2485 -1.5392
 1308SOL    HW2 4541   0.864   7.055   1.260 -0.6601 -0.1683 -0.1973
 1309SOL     OW 4542   0.173   6.322   5.933 -0.4419  0.3605 -0.0227
 1309SOL    HW1 4543   0.258   6.356   5.959 -1.5901  3.4069  0.1589
 1309SOL    HW2 4544   0.131   6.296   6.015  0.4113 -1.6097 -0.1547
 1310SOL     OW 4545   1.124   4.081   1.292 -0.2609  0.1067 -0.0590
 1310SOL    HW1 4546   1.176   4.119   1.363  0.8884 -0.4426 -0.5854
 1310SOL    HW2 4547   1.069   4.153   1.261  0.4393  0.7981  0.2888
 1311SOL     OW 4548   4.651   1.764   3.713  0.3834 -0.3603  0.2392
 1311SOL    HW1 4549   4.573   1.761   3.658 -1.3523 -0.7789  2.5512
 1311SOL    HW2 4550   4.722   1.734   3.656 -1.8432 -4.1432 -0.9388
 1312SOL     OW 4551   4.105   6.636   1.939  0.3633 -0.5004  0.2461
 1312SOL    HW1 4552   4.105   6.612   2.032  2.2728 -1.9061 -0.0663
 1312SOL    HW2 4553   4.111   6.553   1.892 -1.5209  0.1124 -1.2356
 1313SOL     OW 4554   0.980   1.266   3.876  0.0598 -0.6316  0.1288
 1313SOL    HW1 4555   0.894   1.274   3.835 -0.4256 -1.2649  1.0111
 1313SOL    HW2 4556   0.976   1.325   3.952  0.7956  0.1827 -0.4391
 1314SOL     OW 4557   2.172   4.229   1.803  0.3781  0.5040 -0.0915
 1314SOL    HW1 4558   2.173   4.147   1.755 -0.5283  0.5552 -0.2207
 1314SOL    HW2 4559   2.102   4.218   1.868  0.5700  0.9940  0.2093
 1315SOL     OW 4560   1.515   1.535   5.936  0.0430  0.2692  0.3415
 1315SOL    HW1 4561   1.423   1.512   5.926  0.4092 -1.4759  0.6207
 1315SOL    HW2 4562   1.538   1.579   5.854 -0.6430 -0.7524 -0.4304
 1316SOL     OW 4563   1.934   3.289   2.822 -0.0021  0.2874  0.1181
 1316SOL    HW1 4564   1.851   3.246   2.802  0.3622  0.7814 -3.0625
 1316SOL    HW2 4565   1.913   3.382   2.824  0.2797  0.3452  0.5012
 1317SOL     OW 4566   4.048   3.897   3.228 -0.2625 -0.1418 -0.2248
 1317SOL    HW1 4567   4.005   3.893   3.142 -1.2330 -0.4874  0.2591
 1317SOL    HW2 4568   4.020   3.981   3.264 -0.1262 -0.1500 -0.1002
 1318SOL     OW 4569   3.463   3.824   7.206 -0.0691 -0.1564  0.0597
 1318SOL    HW1 4570   3.393   3.760   7.192 -0.3259  0.4482 -1.5741
 1318SOL    HW2 4571   3.426   3.886   7.270 -0.4626 -0.6787  0.3420
 1319SOL     OW 4572   5.971   4.595   4.912  0.0335 -0.0915 -0.1919
 1319SOL    HW1 4573   5.984   4.501   4.898  0.2223 -0.0362 -0.3878
 1319SOL    HW2 4574   6.058   4.628   4.934  0.3815  0.3949 -2.1258
 1320SOL     OW 4575   2.832   7.024   5.505 -0.6421 -0.4149 -0.3220
 1320SOL    HW1 4576   2.738   7.025   5.484 -0.8816  0.0862  0.7261
 1320SOL    HW2 4577   2.838   6.975   5.587 -0.0307 -0.1433 -0.1967
 1321SOL     OW 4578   0.657   1.190   4.875 -0.0464  0.4516  0.3191
 1321SOL    HW1 4579   0.599   1.116   4.856  0.1785  0.6280 -1.1768
 1321SOL    HW2 4580   0.721   1.155   4.936 -1.4397  0.1259  1.6724
 1322SOL     OW 4581   7.163   1.190   3.112  0.4636 -0.6508 -0.4050
 1322SOL    HW1 4582   7.144   1.163   3.022 -0.3122  0.6836 -0.6579
 1322SOL    HW2 4583   7.101   1.260   3.130  0.3764 -1.1297  1.3007
 1323SOL     OW 4584   4.833   4.150   4.332 -0.3269  0.8041  0.2907
 1323SOL    HW1 4585   4.866   4.089   4.398  1.1822  1.3852  0.1135
 1323SOL    HW2 4586   4.747   4.115   4.308  0.8545 -1.8128 -0.5059
 1324SOL     OW 4587   1.212   4.674   1.719  0.6142 -0.3862 -0.1294
 1324SOL    HW1 4588   1.204   4.759   1.677  0.0748 -0.9145 -1.1274
 1324SOL    HW2 4589   1.145   4.620   1.678  1.6972 -1.6307 -0.3401
 1325SOL     OW 4590   2.545   0.247   2.172 -0.8830 -0.0885  0.4459
 1325SOL    HW1 4591   2.567   0.341   2.167 -0.4979 -0.2396 -2.8451
 1325SOL    HW2 4592   2.614   0.210   2.226  1.0016  1.0672 -1.0408
 1326SOL     OW 4593   3.892   2.979   5.860  0.0065 -0.0476 -0.6816
 1326SOL    HW1 4594   3.868   3.045   5.925 -0.0228  1.3358 -2.0603
 1326SOL    HW2 4595   3.923   2.905   5.913  2.6759  2.0262  0.9129
 1327SOL     OW 4596   5.521   1.575   5.672  0.5617 -0.3467 -0.3391
 1327SOL    HW1 4597   5.537   1.573   5.578 -1.1532  0.6346 -0.7016
 1327SOL    HW2 4598   5.494   1.665   5.690  1.1372 -0.4359  1.1619
 1328SOL     OW 4599   4.905   4.560   0.601  0.1055  0.1928  0.1011
 1328SOL    HW1 4600   4.841   4.498   0.566  0.9100  0.8392 -2.7093
 1328SOL    HW2 4601   4.990   4.517   0.590  0.7864  2.0268 -2.8289
 1329SOL     OW 4602   6.434   6.280   3.666  0.6971  0.4298 -0.2231
 1329SOL    HW1 4603   6.524   6.270   3.636  0.6502 -2.3514  0.3285
 1329SOL    HW2 4604   6.441   6.339   3.742  1.9986  0.4743 -0.3538
 1330SOL     OW 4605   3.657   4.781   7.146 -0.3121 -0.0251 -0.0845
 1330SOL    HW1 4606   3.572   4.738   7.152 -0.5278  0.1015 -1.8692
 1330SOL    HW2 4607   3.644   4.865   7.189 -0.9212 -0.2279  0.1478
 1331SOL     OW 4608   4.960   5.888   1.720 -0.0380  0.3341  0.8402
 1331SOL    HW1 4609   4.971   5.811   1.776  2.1216  0.3549  0.5254
 1331SOL    HW2 4610   4.957   5.961   1.781 -0.1627  0.1481  1.0574
 1332SOL     OW 4611   1.422   6.770   6.688 -0.3248 -0.2911  0.0944
 1332SOL    HW1 4612   1.376   6.760   6.605 -0.0313  0.9779 -0.2364
 1332SOL    HW2 4613   1.497   6.710   6.681 -1.2782 -1.5298  0.1947
 1333SOL     OW 4614   1.757   3.210   7.077  0.4013  0.6875  0.0703
 1333SOL    HW1 4615   1.686   3.198   7.140 -0.1244 -1.1644 -0.8011
 1333SOL    HW2 4616   1.829   3.157   7.111 -0.1309 -0.9183 -1.1801
 1334SOL     OW 4617   2.426   4.003   1.833 -0.6938  0.3202  0.0274
 1334SOL    HW1 4618   2.331   4.005   1.845 -0.7704 -0.4609 -0.3503
 1334SOL    HW2 4619   2.453   3.918   1.869 -0.1422  0.5194  0.0952
 1335SOL     OW 4620   2.702   7.223   0.552  0.0108  0.1258 -0.1356
 1335SOL    HW1 4621   2.731   7.139   0.515 -1.9453 -1.0742  0.8686
 1335SOL    HW2 4622   2.780   7.257   0.597  0.2651 -2.4481  1.6405
 1336SOL     OW 4623   1.429   0.038   1.890  0.2776  0.1506 -0.3552
 1336SOL    HW1 4624   1.480   0.001   1.962  0.4646  0.1444 -0.4918
 1336SOL    HW2 4625   1.349  -0.014   1.888  1.0059 -0.9671 -1.2505
 1337SOL     OW 4626   6.561   5.647   0.627  0.4371 -0.2222  0.0826
 1337SOL    HW1 4627   6.602   5.566   0.655 -0.0953  0.3901  2.9281
 1337SOL    HW2 4628   6.486   5.658   0.685 -0.0642  1.8465 -0.8372
 1338SOL     OW 4629   1.672   6.638   0.173  0.4870 -0.5289 -0.8259
 1338SOL    HW1 4630   1.648   6.730   0.182  0.6890 -0.3048 -2.3083
 1338SOL    HW2 4631   1.764   6.640   0.146  0.4748 -1.1735 -0.9319
 1339SOL     OW 4632   3.574   6.670   3.358 -0.3705 -0.0311 -0.5643
 1339SOL    HW1 4633   3.601   6.637   3.273  0.3437  2.1527 -1.2524
 1339SOL    HW2 4634   3.630   6.746   3.373  0.1934 -0.9091  2.3229
 1340SOL     OW 4635   3.115   2.677   4.507  0.3071 -0.0175  0.5188
 1340SOL    HW1 4636   3.046   2.729   4.549  0.2457 -0.0121  0.4129
 1340SOL    HW2 4637   3.085   2.587   4.514 -0.2761  0.0782 -0.5530
 1341SOL     OW 4638   6.860   7.226   5.813 -0.3057 -0.5995 -0.2425
 1341SOL    HW1 4639   6.858   7.156   5.879 -0.7960 -0.5513 -0.2036
 1341SOL    HW2 4640   6.881   7.181   5.731 -3.6529 -1.3129 -0.8223
 1342SOL     OW 4641   3.369   6.453   6.696 -0.0530 -0.1871 -0.2079
 1342SOL    HW1 4642   3.457   6.481   6.671 -0.2538  0.5452 -0.1003
 1342SOL    HW2 4643   3.317   6.533   6.695 -0.7099 -0.6064 -0.2206
 1343SOL     OW 4644   2.468   2.148   5.711  0.4369  0.3302  0.2024
 1343SOL    HW1 4645   2.484   2.066   5.666  0.7842  0.5153 -0.0123
 1343SOL    HW2 4646   2.519   2.213   5.663 -2.6298  1.3925 -1.9514
 1344SOL     OW 4647   2.594   1.719   4.526 -0.3076 -0.1601  0.2679
 1344SOL    HW1 4648   2.508   1.749   4.555 -0.9031  0.2692 -1.7479
 1344SOL    HW2 4649   2.577   1.636   4.481  0.0456  0.6352 -1.4254
 1345SOL     OW 4650   4.700   3.455   1.627 -0.4221 -0.0871  0.3815
 1345SOL    HW1 4651   4.747   3.516   1.570  0.9443 -0.9735  0.4968
 1345SOL    HW2 4652   4.611   3.489   1.631 -0.0470  1.1009 -0.6781
 1346SOL     OW 4653   0.906   0.689   2.723 -0.5760 -0.4854 -0.2277
 1346SOL    HW1 4654   0.841   0.710   2.790  0.9145 -1.7712  1.7330
 1346SOL    HW2 4655   0.973   0.639   2.769  0.9712 -0.6977 -2.5261
 1347SOL     OW 4656   6.878   2.783   7.072 -0.1498  0.0151 -0.2647
 1347SOL    HW1 4657   6.903   2.873   7.095  0.3847 -0.5673  1.5884
 1347SOL    HW2 4658   6.786   2.777   7.097  0.1390 -0.2886  0.7854
 1348SOL     OW 4659   4.005   2.818   0.718  0.4119 -0.0988  0.0044
 1348SOL    HW1 4660   3.951   2.741   0.702  0.3636 -0.4603  1.8018
 1348SOL    HW2 4661   3.999   2.868   0.636 -2.0695 -0.4568 -0.1126
 1349SOL     OW 4662   6.883   5.375   1.187 -0.3099  0.0534 -0.3432
 1349SOL    HW1 4663   6.860   5.404   1.099 -2.4663  1.2171  0.5448
 1349SOL    HW2 4664   6.801   5.375   1.236  0.2803 -3.4237  0.9567
 1350SOL     OW 4665   7.190   5.081   2.165 -0.0946 -0.2833  0.0415
 1350SOL    HW1 4666   7.249   5.096   2.239  1.1892 -0.7317 -0.8573
 1350SOL    HW2 4667   7.229   5.131   2.093 -1.3887  0.2368 -0.3186
 1351SOL     OW 4668   5.265   3.144   2.264 -0.0088  0.1898  0.3353
 1351SOL    HW1 4669   5.188   3.191   2.232 -0.3002 -0.2640  0.3587
 1351SOL    HW2 4670   5.328   3.213   2.285  0.1762  0.5060 -1.1577
 1352SOL     OW 4671   4.726   1.992   1.790 -0.0061  0.2126  0.5035
 1352SOL    HW1 4672   4.680   2.056   1.844 -1.1964  0.8849 -1.2255
 1352SOL    HW2 4673   4.706   1.907   1.831 -0.2068  0.7526  1.5583
 1353SOL     OW 4674   2.648   3.754   3.554 -0.0315 -0.0388  0.2475
 1353SOL    HW1 4675   2.721   3.815   3.561  0.0642  0.1379 -1.8720
 1353SOL    HW2 4676   2.689   3.668   3.547  0.2214  0.2439 -3.5925
 1354SOL     OW 4677   2.855   4.094   7.039  0.0281  0.8543 -0.0098
 1354SOL    HW1 4678   2.892   4.142   6.965  1.3782  1.8212  1.2204
 1354SOL    HW2 4679   2.928   4.042   7.072 -1.1595 -1.3661 -0.7212
 1355SOL     OW 4680   0.294   3.080   2.513  0.3649 -0.2256 -0.4306
 1355SOL    HW1 4681   0.205   3.100   2.484  0.1704  0.1067  0.3732
 1355SOL    HW2 4682   0.283   3.015   2.582  0.6263  0.9962  0.7921
 1356SOL     OW 4683   2.381   1.910   0.480  0.5278  0.0682  0.0564
 1356SOL    HW1 4684   2.316   1.842   0.500  0.9960  0.0063  1.4925
 1356SOL    HW2 4685   2.341   1.991   0.512  0.8811  0.1294  0.3472
 1357SOL     OW 4686   5.391   2.563   5.938 -0.6637  0.2914 -0.6675
 1357SOL    HW1 4687   5.458   2.583   5.872 -0.3376  0.7889 -0.1952
 1357SOL    HW2 4688   5.309   2.592   5.898 -0.5294  0.1534 -1.0466
 1358SOL     OW 4689   3.025   0.961   2.651  0.5451 -0.0061  0.0246
 1358SOL    HW1 4690   2.934   0.990   2.643  0.2411 -0.6409  1.0236
 1358SOL    HW2 4691   3.020   0.879   2.701  1.5441 -0.8096 -1.1154
 1359SOL     OW 4692   7.000   1.540   1.250 -0.5344 -0.0786  0.3962
 1359SOL    HW1 4693   7.083   1.568   1.289 -0.1525 -0.7870  0.0969
 1359SOL    HW2 4694   6.984   1.453   1.287  0.5893 -1.4416 -2.0934
 1360SOL     OW 4695   5.030   6.101   7.131  0.1813 -0.2073  0.3675
 1360SOL    HW1 4696   5.111   6.134   7.092  1.0245 -3.9290 -1.4653
 1360SOL    HW2 4697   4.968   6.098   7.059 -0.5012 -0.6417  0.9601
 1361SOL     OW 4698   4.921   2.044   4.857  0.0471 -0.3821  0.0990
 1361SOL    HW1 4699   4.991   1.994   4.898 -0.5183 -1.3353 -0.0538
 1361SOL    HW2 4700   4.868   2.076   4.930 -0.6597 -1.6343  0.1703
 1362SOL     OW 4701   4.854   7.095   1.945 -0.2766 -0.3475  0.4489
 1362SOL    HW1 4702   4.857   7.026   2.011 -1.0357 -0.7093  0.1118
 1362SOL    HW2 4703   4.942   7.132   1.945 -0.1760 -0.5652  1.4302
 1363SOL     OW 4704   2.974   2.207   0.801  0.4486 -0.2808 -0.8614
 1363SOL    HW1 4705   2.938   2.270   0.863  0.2141 -1.6968  0.5144
 1363SOL    HW2 4706   2.931   2.227   0.718 -1.2716 -0.0056  0.0526
 1364SOL     OW 4707   3.431   1.002   6.286 -0.0625  0.3497  0.0679
 1364SOL    HW1 4708   3.368   1.025   6.218 -0.0550  1.9987  0.5601
 1364SOL    HW2 4709   3.380   0.956   6.352 -0.5534  0.8145  0.0171
 1365SOL     OW 4710   0.168   6.348   1.783  0.1259 -0.2922 -0.0729
 1365SOL    HW1 4711   0.192   6.269   1.733 -1.1435 -0.6313 -0.1706
 1365SOL    HW2 4712   0.250   6.398   1.789  0.5188 -0.7002 -1.6553
 1366SOL     OW 4713   2.166   0.909   4.335  0.3507  0.0711  0.6001
 1366SOL    HW1 4714   2.124   0.939   4.416  0.2941 -0.1138  0.6387
 1366SOL    HW2 4715   2.104   0.846   4.297  1.1370 -1.1485  1.2876
 1367SOL     OW 4716   1.088   7.231   1.568 -0.0916 -0.6481 -0.1178
 1367SOL    HW1 4717   1.083   7.285   1.490  1.4966 -0.4102 -0.0915
 1367SOL    HW2 4718   1.093   7.293   1.641  0.1345 -0.8468  0.0390
 1368SOL     OW 4719   5.722   5.211   5.609  0.6583  0.3464  0.4482
 1368SOL    HW1 4720   5.807   5.170   5.623  1.4442  1.2689 -1.3788
 1368SOL    HW2 4721   5.715   5.275   5.681 -0.5632 -2.6877  3.3054
 1369SOL     OW 4722   4.917   4.680   4.271 -0.2740 -0.4175 -0.3067
 1369SOL    HW1 4723   4.909   4.585   4.283  0.0186 -0.5621 -1.1618
 1369SOL    HW2 4724   4.838   4.716   4.312  1.2791 -0.6896  3.2872
 1370SOL     OW 4725   2.164   0.074   7.153  0.1466  0.3045 -0.4741
 1370SOL    HW1 4726   2.231   0.142   7.155  2.6464 -1.9982  2.3818
 1370SOL    HW2 4727   2.184   0.023   7.075  1.3849  0.0468 -0.0171
 1371SOL     OW 4728   1.335   0.268   2.139  0.1553 -0.2758  0.1638
 1371SOL    HW1 4729   1.328   0.302   2.050 -1.0340  0.7288  0.6143
 1371SOL    HW2 4730   1.288   0.184   2.136  0.3848 -0.3979 -0.2058
 1372SOL     OW 4731   6.632   7.132   1.152  0.4610  0.4101 -0.4620
 1372SOL    HW1 4732   6.722   7.121   1.184  1.2975  4.6113 -0.7838
 1372SOL    HW2 4733   6.578   7.085   1.216  2.7160 -0.3241  1.0414
 1373SOL     OW 4734   5.870   6.784   0.656  0.0038 -0.0432 -0.5060
 1373SOL    HW1 4735   5.879   6.833   0.575  2.8540 -1.0628 -0.9253
 1373SOL    HW2 4736   5.791   6.732   0.645 -0.4362  0.8948 -2.0096
 1374SOL     OW 4737   3.063   5.582   1.746  0.3282 -0.7270 -0.4685
 1374SOL    HW1 4738   3.010   5.562   1.669  1.7214 -0.4984 -1.5280
 1374SOL    HW2 4739   3.120   5.654   1.717 -0.7873  1.0585  1.5347
 1375SOL     OW 4740   1.779   7.203   0.876 -0.1411  0.5816 -0.0448
 1375SOL    HW1 4741   1.849   7.230   0.935  0.4414 -0.4081 -0.2654
 1375SOL    HW2 4742   1.767   7.110   0.893 -2.3100  0.9801  0.9065
 1376SOL     OW 4743   6.398   4.010   5.569  0.2356 -0.3810  0.1699
 1376SOL    HW1 4744   6.340   3.958   5.514 -0.8672 -0.2142  1.1483
 1376SOL    HW2 4745   6.344   4.084   5.598  1.3929  0.6253 -0.1484
 1377SOL     OW 4746   0.928   4.587   2.264 -0.3621 -0.7911 -0.0877
 1377SOL    HW1 4747   0.905   4.589   2.357  1.1764  2.0152  0.3472
 1377SOL    HW2 4748   1.008   4.535   2.260  0.1251 -0.0976  0.3511
 1378SOL     OW 4749   4.548   2.643   1.473 -0.2109 -0.0792 -0.0102
 1378SOL    HW1 4750   4.624   2.648   1.531  0.6081  0.4328 -1.0837
 1378SOL    HW2 4751   4.582   2.605   1.392 -1.1376  0.0104 -0.4545
 1379SOL     OW 4752   5.697   2.369   1.629  0.8237  0.7229  0.0776
 1379SOL    HW1 4753   5.611   2.398   1.661  0.2441 -1.7687  1.0191
 1379SOL    HW2 4754   5.711   2.419   1.548 -0.0053  3.5097  1.5433
 1380SOL     OW 4755   5.209   1.172   4.615 -0.1987 -0.0612 -0.0802
 1380SOL    HW1 4756   5.121   1.210   4.609 -1.5546 -3.0193 -0.4545
 1380SOL    HW2 4757   5.246   1.212   4.694 -2.1317  0.7576  0.4895
 1381SOL     OW 4758   2.261   2.718   3.948  0.1142 -0.4442  0.0080
 1381SOL    HW1 4759   2.193   2.706   3.882  0.6564 -0.5087 -0.5400
 1381SOL    HW2 4760   2.233   2.795   3.997  0.0128 -0.0411 -0.6771
 1382SOL     OW 4761   3.342   0.141   3.714  0.5750  0.3687  0.4379
 1382SOL    HW1 4762   3.350   0.234   3.695 -0.1906  0.8838  2.4400
 1382SOL    HW2 4763   3.283   0.136   3.790  0.3022 -1.7648  0.1650
 1383SOL     OW 4764   4.796   2.995   4.922  0.0889  0.3378  0.5912
 1383SOL    HW1 4765   4.858   3.064   4.947  1.4269 -0.3613 -0.6766
 1383SOL    HW2 4766   4.845   2.914   4.930 -0.4994 -0.2003 -0.9181
 1384SOL     OW 4767   6.345   1.233   1.374  0.2058  0.0808 -0.1273
 1384SOL    HW1 4768   6.294   1.310   1.350 -0.7940  0.3547  2.5144
 1384SOL    HW2 4769   6.365   1.246   1.467 -1.7700 -3.7225  1.0326
 1385SOL     OW 4770   2.662   2.753   1.663  0.1254 -0.2028 -0.1382
 1385SOL    HW1 4771   2.625   2.680   1.712  0.7290  0.0189  0.6794
 1385SOL    HW2 4772   2.754   2.756   1.690  0.4860 -0.0818 -1.3113
 1386SOL     OW 4773   5.669   0.652   1.136 -0.1880 -0.7141  0.5821
 1386SOL    HW1 4774   5.687   0.574   1.083  1.2526 -1.4983  2.1121
 1386SOL    HW2 4775   5.679   0.622   1.227 -2.6646  0.5498  1.3528
 1387SOL     OW 4776   7.125   1.588   2.108  0.0531  0.4127 -0.2792
 1387SOL    HW1 4777   7.034   1.577   2.137 -0.9634  3.1175 -2.0355
 1387SOL    HW2 4778   7.132   1.534   2.029  0.0838 -0.0375  0.0286
 1388SOL     OW 4779   3.451   2.668   3.832  0.2217 -0.2803 -0.3724
 1388SOL    HW1 4780   3.438   2.639   3.741 -1.8124 -0.3163 -0.1162
 1388SOL    HW2 4781   3.392   2.613   3.883 -0.4795  1.3300  0.6545
 1389SOL     OW 4782   1.221   0.431   6.043  0.1818 -0.0580 -0.0626
 1389SOL    HW1 4783   1.209   0.340   6.015  0.3982 -0.7137  1.8105
 1389SOL    HW2 4784   1.161   0.482   5.988 -0.6346 -1.4509 -0.5066
 1390SOL     OW 4785   1.552   5.338   6.280 -0.5247  0.2319  0.1773
 1390SOL    HW1 4786   1.619   5.399   6.309 -0.9707 -0.0653  1.9691
 1390SOL    HW2 4787   1.534   5.363   6.189  2.6772 -0.3196 -0.7321
 1391SOL     OW 4788   2.214   1.215   3.132 -0.3548 -0.2315 -0.7875
 1391SOL    HW1 4789   2.302   1.238   3.159 -0.0272 -1.8851 -0.3426
 1391SOL    HW2 4790   2.214   1.227   3.037  0.4140 -0.4254 -0.8154
 1392SOL     OW 4791   6.105   6.192   3.163 -0.2983  0.1852 -0.0089
 1392SOL    HW1 4792   6.034   6.213   3.223 -0.2260 -1.1128  0.5908
 1392SOL    HW2 4793   6.170   6.147   3.218  0.9108  1.1673 -0.5701
 1393SOL     OW 4794   0.674   4.836   5.187 -0.2484 -0.0694  0.3963
 1393SOL    HW1 4795   0.708   4.835   5.097 -1.5167  0.8227 -0.1130
 1393SOL    HW2 4796   0.586   4.800   5.180 -0.3606 -0.0012  1.2935
 1394SOL     OW 4797   0.221   5.141   2.641 -0.3907 -0.2263 -0.1008
 1394SOL    HW1 4798   0.233   5.224   2.688  0.5634  0.6946 -1.8430
 1394SOL    HW2 4799   0.293   5.085   2.672  0.0321  0.2487 -0.2065
 1395SOL     OW 4800   6.804   5.064   1.599 -0.0741 -0.2537  0.0290
 1395SOL    HW1 4801   6.869   5.114   1.549 -1.2564  1.1770 -0.1669
 1395SOL    HW2 4802   6.832   5.073   1.690  0.1829  0.1055 -0.0816
 1396SOL     OW 4803   4.392   1.480   3.509 -0.0936 -0.0703 -0.1368
 1396SOL    HW1 4804   4.410   1.562   3.554  0.2158 -0.2101  0.0013
 1396SOL    HW2 4805   4.378   1.416   3.579  0.0841 -0.2250 -0.2404
 1397SOL     OW 4806   3.004   2.552   0.526 -0.6061  0.2017 -0.1488
 1397SOL    HW1 4807   2.959   2.495   0.464 -0.9873 -1.2012  1.3350
 1397SOL    HW2 4808   2.939   2.570   0.594  0.3277  0.1002  0.8102
 1398SOL     OW 4809   2.895   4.985   6.995  0.2358 -0.1499  0.5308
 1398SOL    HW1 4810   2.971   4.982   6.937  0.6532 -0.6681  1.0835
 1398SOL    HW2 4811   2.931   4.962   7.081 -0.4736  0.0226  0.8746
 1399SOL     OW 4812   6.303   5.192   6.067 -0.1194 -0.5385  0.1665
 1399SOL    HW1 4813   6.354   5.122   6.108  1.7807 -0.1568 -1.3538
 1399SOL    HW2 4814   6.238   5.147   6.014  0.0723 -1.1219  0.4225
 1400SOL     OW 4815   3.863   0.779   0.332  0.0864 -0.8376  0.1752
 1400SOL    HW1 4816   3.881   0.701   0.384  0.7971 -1.0766 -0.4163
 1400SOL    HW2 4817   3.867   0.748   0.241  0.7538 -0.0418 -0.0749
 1401SOL     OW 4818   2.117   3.104   6.041  0.5803  0.1602  0.1077
 1401SOL    HW1 4819   2.168   3.097   5.960  1.0975 -1.1985  0.5318
 1401SOL    HW2 4820   2.124   3.197   6.065  0.5193  0.5602 -1.3284
 1402SOL     OW 4821   0.961   2.979   3.673  0.3422 -0.4647  0.3477
 1402SOL    HW1 4822   0.981   2.897   3.719  3.3409 -0.7088 -1.1308
 1402SOL    HW2 4823   1.038   3.034   3.689 -0.1863  0.8172 -1.2995
 1403SOL     OW 4824   1.965   7.256   4.996 -0.0418 -0.7144 -0.0761
 1403SOL    HW1 4825   1.981   7.263   4.902 -1.9543  0.1884 -0.3854
 1403SOL    HW2 4826   1.883   7.207   5.003 -0.4788  0.1258  1.0332
 1404SOL     OW 4827   3.267   2.406   3.199  0.4536  0.1578  0.1486
 1404SOL    HW1 4828   3.178   2.429   3.174  0.1083 -2.6989 -1.8599
 1404SOL    HW2 4829   3.258   2.363   3.284 -0.2219 -0.6112 -0.2915
 1405SOL     OW 4830   1.684   4.969   6.938  0.1070  0.3837  0.2009
 1405SOL    HW1 4831   1.743   5.027   6.889  2.2827 -0.6126  1.4983
 1405SOL    HW2 4832   1.692   4.997   7.029 -0.2465 -0.7317  0.5992
 1406SOL     OW 4833   1.036   1.971   1.693 -0.0410 -0.1610 -0.1717
 1406SOL    HW1 4834   1.047   1.928   1.778  0.0865 -1.6348 -0.8940
 1406SOL    HW2 4835   1.117   2.021   1.681  0.3815 -0.7533  0.1391
 1407SOL     OW 4836   0.813   0.357   4.137 -0.2061  0.0835 -0.1108
 1407SOL    HW1 4837   0.813   0.325   4.047  2.3165  1.7786 -0.8216
 1407SOL    HW2 4838   0.903   0.344   4.167  0.8121  5.0030 -0.1029
 1408SOL     OW 4839   5.374   0.330   0.968 -0.1105 -0.1616  0.2955
 1408SOL    HW1 4840   5.344   0.311   1.057 -1.0212 -1.3306 -0.2449
 1408SOL    HW2 4841   5.295   0.335   0.915  0.4214  0.4576 -0.4887
 1409SOL     OW 4842   4.088   3.555   5.223  0.1619  0.1894 -0.2272
 1409SOL    HW1 4843   4.005   3.570   5.178 -0.5374  0.1233  0.9971
 1409SOL    HW2 4844   4.148   3.527   5.154 -0.8797  0.0776 -1.1124
 1410SOL     OW 4845   5.278   5.820   0.382  0.1333 -0.0734 -0.2014
 1410SOL    HW1 4846   5.249   5.884   0.317 -0.6316  1.2306  1.3212
 1410SOL    HW2 4847   5.203   5.812   0.442  0.7895 -1.2409  0.5103
 1411SOL     OW 4848   1.745   6.276   5.756  0.2481 -0.4334  0.1408
 1411SOL    HW1 4849   1.838   6.261   5.775  0.4535  0.0151 -0.4607
 1411SOL    HW2 4850   1.746   6.344   5.688 -0.5301 -0.2200  0.3396
 1412SOL     OW 4851   1.354   0.556   0.421  0.2750  0.1151 -0.2653
 1412SOL    HW1 4852   1.288   0.607   0.467 -0.7797 -0.7368 -0.7941
 1412SOL    HW2 4853   1.381   0.490   0.484  0.2479  0.1448 -0.2223
 1413SOL     OW 4854   7.171   5.045   6.343  0.4353 -0.0102 -0.4225
 1413SOL    HW1 4855   7.122   4.978   6.390 -1.2819  1.4586  0.0173
 1413SOL    HW2 4856   7.119   5.060   6.263  1.1222  0.3779 -0.8064
 1414SOL     OW 4857   3.520   5.312   4.851 -0.3131  0.0185 -0.9056
 1414SOL    HW1 4858   3.519   5.247   4.781 -0.0439  0.2002 -1.0815
 1414SOL    HW2 4859   3.438   5.297   4.898 -1.3493  1.0338 -2.2968
 1415SOL     OW 4860   2.793   2.617   6.305  0.0845 -0.1605  0.6647
 1415SOL    HW1 4861   2.839   2.684   6.254 -3.3086  2.3952  0.5938
 1415SOL    HW2 4862   2.733   2.576   6.242 -0.7321 -0.4036  1.5722
 1416SOL     OW 4863   1.571   4.779   4.567  0.0557 -0.3448 -0.0958
 1416SOL    HW1 4864   1.578   4.717   4.495 -1.5344 -1.6092  0.7901
 1416SOL    HW2 4865   1.627   4.742   4.635  1.4581  0.7848 -0.5699
 1417SOL     OW 4866   3.059   7.255   2.586 -0.2931  0.4529 -0.6456
 1417SOL    HW1 4867   3.087   7.320   2.651  0.0794  0.1665 -0.5116
 1417SOL    HW2 4868   2.968   7.237   2.609  0.3211 -0.9337  0.9155
 1418SOL     OW 4869   4.199   2.850   2.221 -0.1311  0.0715 -0.3923
 1418SOL    HW1 4870   4.209   2.760   2.252 -2.0558  0.1590  0.6295
 1418SOL    HW2 4871   4.287   2.887   2.225  0.2063 -0.8447  2.1299
 1419SOL     OW 4872   0.213   4.934   1.403  0.1027  0.1636  0.4754
 1419SOL    HW1 4873   0.139   4.949   1.344 -1.4244  0.9597  2.4493
 1419SOL    HW2 4874   0.279   4.997   1.375 -0.1351 -0.2415 -1.0514
 1420SOL     OW 4875   5.852   1.901   2.219  0.4418 -0.3740 -0.1195
 1420SOL    HW1 4876   5.918   1.833   2.204 -0.4872 -1.5095  0.7058
 1420SOL    HW2 4877   5.802   1.904   2.138  1.0525 -0.0114 -0.4914
 1421SOL     OW 4878   0.868   0.575   5.587  0.3636  0.2524 -0.4166
 1421SOL    HW1 4879   0.811   0.602   5.516  2.5365 -0.1386 -2.4269
 1421SOL    HW2 4880   0.951   0.620   5.571  1.5186 -1.2959  0.7739
 1422SOL     OW 4881   0.096   1.477   0.282  0.1699 -1.5609  0.1634
 1422SOL    HW1 4882   0.067   1.436   0.201  0.2019 -1.7915  0.2685
 1422SOL    HW2 4883   0.180   1.518   0.261  1.1057 -3.1963  0.5482
 1423SOL     OW 4884   2.485   2.713   6.320  0.0129 -0.0415  0.2666
 1423SOL    HW1 4885   2.578   2.715   6.295 -0.3663  2.1794 -1.2403
 1423SOL    HW2 4886   2.456   2.626   6.296  1.5640 -0.5799  0.1979
 1424SOL     OW 4887   0.751   0.589   2.500  0.5860 -0.1675 -0.0365
 1424SOL    HW1 4888   0.839   0.574   2.536  0.3403 -0.7727  0.3333
 1424SOL    HW2 4889   0.733   0.681   2.518  0.5752 -0.3908  1.1678
 1425SOL     OW 4890   6.896   7.042   3.910 -0.7866  0.0809  0.3139
 1425SOL    HW1 4891   6.977   7.065   3.956 -0.5725  0.3009 -0.1706
 1425SOL    HW2 4892   6.845   7.123   3.909 -0.4652  0.2806 -0.5005
 1426SOL     OW 4893   6.878   4.384   4.315 -0.3534  0.3640 -0.0125
 1426SOL    HW1 4894   6.892   4.320   4.246  0.6481 -1.2607  1.6300
 1426SOL    HW2 4895   6.910   4.467   4.278  2.5539 -0.9313 -0.6400
 1427SOL     OW 4896   6.642   0.415   5.788  0.1415  0.1294 -0.1678
 1427SOL    HW1 4897   6.599   0.500   5.787  0.6083  0.4899  2.7861
 1427SOL    HW2 4898   6.570   0.352   5.784 -0.3740  0.6867  0.0654
 1428SOL     OW 4899   6.834   3.481   0.269 -1.0866 -0.8296  0.0512
 1428SOL    HW1 4900   6.818   3.559   0.322  0.0920 -0.7993  0.4103
 1428SOL    HW2 4901   6.929   3.469   0.273 -1.1309 -1.6375 -0.9238
 1429SOL     OW 4902   4.399   5.600   5.197 -0.6529  0.0009  0.5925
 1429SOL    HW1 4903   4.354   5.527   5.239 -0.9152 -0.4303 -0.3977
 1429SOL    HW2 4904   4.489   5.569   5.186  0.0338  0.9821  2.8600
 1430SOL     OW 4905   6.914   2.650   0.717  0.2419 -0.1294 -0.5473
 1430SOL    HW1 4906   6.936   2.559   0.700  0.6198 -0.1520  0.0476
 1430SOL    HW2 4907   6.868   2.648   0.801 -0.6888  0.1023 -1.0391
 1431SOL     OW 4908   0.865   5.983   5.408 -0.2537  0.3283 -0.0671
 1431SOL    HW1 4909   0.862   5.895   5.371  1.6473 -0.0788  0.6220
 1431SOL    HW2 4910   0.776   6.000   5.437 -1.2182 -0.3629 -2.4257
 1432SOL     OW 4911   3.885   3.387   4.781  0.3292  0.2940  0.1436
 1432SOL    HW1 4912   3.887   3.440   4.861  0.0004  2.2771 -1.0930
 1432SOL    HW2 4913   3.832   3.438   4.720  0.2479 -1.3538 -1.2295
 1433SOL     OW 4914   0.071   5.289   5.187 -0.2124  0.1503 -0.2277
 1433SOL    HW1 4915   0.025   5.332   5.115  2.5745  0.1514 -2.1709
 1433SOL    HW2 4916   0.108   5.210   5.148  0.1756 -0.6233  1.6053
 1434SOL     OW 4917   0.856   4.348   4.950 -0.6156 -0.0155 -0.3087
 1434SOL    HW1 4918   0.831   4.439   4.968 -0.0249  0.2541 -0.8108
 1434SOL    HW2 4919   0.900   4.352   4.865 -0.8835 -0.8285 -0.4912
 1435SOL     OW 4920   0.237   3.906   1.380 -0.1379 -0.6445  0.4905
 1435SOL    HW1 4921   0.198   3.911   1.468 -0.7372 -0.8243  0.2449
 1435SOL    HW2 4922   0.296   3.831   1.384  0.1083 -0.4352  0.8409
 1436SOL     OW 4923   5.562   3.338   5.044 -0.4417  0.3957  0.4408
 1436SOL    HW1 4924   5.570   3.256   4.995 -1.7209  0.5056  0.0101
 1436SOL    HW2 4925   5.633   3.335   5.108  2.3487  0.9538 -2.4129
 1437SOL     OW 4926   4.605   2.444   4.830 -0.4762 -0.2382  0.0992
 1437SOL    HW1 4927   4.551   2.393   4.890 -0.8703  0.9633  0.7855
 1437SOL    HW2 4928   4.543   2.497   4.781 -0.0113  0.2913  0.0760
 1438SOL     OW 4929   3.391   3.038   3.345  0.6794  0.2846 -0.1806
 1438SOL    HW1 4930   3.404   3.033   3.439  1.8661  1.8832 -0.2089
 1438SOL    HW2 4931   3.443   2.965   3.310 -0.1825 -0.6259  0.4117
 1439SOL     OW 4932   3.020   3.689   6.358  0.4413  0.1924 -0.0450
 1439SOL    HW1 4933   2.962   3.763   6.374  0.4953  0.5865 -1.4827
 1439SOL    HW2 4934   3.071   3.679   6.439  0.7788  2.0486 -0.0018
 1440SOL     OW 4935   6.391   4.687   5.459  0.0570 -0.1749  0.4503
 1440SOL    HW1 4936   6.466   4.694   5.519  0.1570 -1.9873  0.5813
 1440SOL    HW2 4937   6.428   4.702   5.372  0.3723  0.0030  0.6149
 1441SOL     OW 4938   4.642   3.895   6.008  0.0049  0.0888  0.2733
 1441SOL    HW1 4939   4.683   3.946   6.078 -1.5469 -0.4896  1.6626
 1441SOL    HW2 4940   4.552   3.884   6.037 -0.4331 -0.9549 -1.4111
 1442SOL     OW 4941   4.234   6.856   2.643 -0.0137 -0.1207  0.6647
 1442SOL    HW1 4942   4.288   6.819   2.574 -1.0217  1.8039 -1.2976
 1442SOL    HW2 4943   4.294   6.874   2.715  1.2914 -1.1284 -0.1429
 1443SOL     OW 4944   1.405   5.558   4.611 -0.4860 -0.1889  0.4887
 1443SOL    HW1 4945   1.331   5.616   4.623 -1.8503 -0.8305 -3.3731
 1443SOL    HW2 4946   1.366   5.474   4.585  1.5320 -1.5495  1.5789
 1444SOL     OW 4947   3.386   0.165   0.039 -0.0600  0.0770 -0.3384
 1444SOL    HW1 4948   3.355   0.075   0.030 -2.3734  0.9029 -1.5092
 1444SOL    HW2 4949   3.310   0.213   0.071  0.6108  1.9079 -1.3531
 1445SOL     OW 4950   2.186   2.367   0.705 -0.4494  0.1829  0.8691
 1445SOL    HW1 4951   2.148   2.377   0.792 -2.1601  0.8295  0.0829
 1445SOL    HW2 4952   2.281   2.372   0.720 -0.6902 -0.0602  2.7181
 1446SOL     OW 4953   6.447   2.479   2.419  0.1903  0.6231 -0.0924
 1446SOL    HW1 4954   6.416   2.490   2.509  0.8818 -0.5998  0.3138
 1446SOL    HW2 4955   6.448   2.568   2.383  0.6690  1.2365  1.3633
 1447SOL     OW 4956   6.498   2.461   5.487 -0.7795 -0.1926 -0.6479
 1447SOL    HW1 4957   6.478   2.524   5.418 -1.7025  1.1275  0.7549
 1447SOL    HW2 4958   6.565   2.405   5.449  0.1852  1.7081 -1.9429
 1448SOL     OW 4959   1.017   1.969   1.302 -0.5019  0.1888  0.2999
 1448SOL    HW1 4960   1.108   1.997   1.298 -0.0433 -1.1147  1.1053
 1448SOL    HW2 4961   0.974   2.017   1.231  0.6577  1.3226  0.3336
 1449SOL     OW 4962   0.234   6.610   4.357  0.3085  0.0303  0.3001
 1449SOL    HW1 4963   0.209   6.699   4.332  1.1452  0.3402  0.5336
 1449SOL    HW2 4964   0.161   6.578   4.409  0.6660  1.1747  1.5663
 1450SOL     OW 4965   4.724   6.696   4.409  0.1045  0.0232 -0.1902
 1450SOL    HW1 4966   4.738   6.624   4.348 -1.0856 -0.7124  0.3437
 1450SOL    HW2 4967   4.776   6.673   4.486 -0.1740 -0.2209 -0.0699
 1451SOL     OW 4968   5.804   2.800   4.829 -0.2876  0.6454 -0.0523
 1451SOL    HW1 4969   5.832   2.710   4.845 -1.5602  0.5741  2.2204
 1451SOL    HW2 4970   5.715   2.791   4.793 -0.8171  0.9685  1.1252
 1452SOL     OW 4971   4.781   1.305   6.777 -0.2718  0.1599  0.4926
 1452SOL    HW1 4972   4.713   1.283   6.841 -1.8723 -0.7050 -1.4178
 1452SOL    HW2 4973   4.777   1.235   6.712 -0.6930  2.4047 -2.0884
 1453SOL     OW 4974   6.010   3.753   3.982  0.1016  0.0463 -0.0652
 1453SOL    HW1 4975   5.974   3.827   3.934  1.1909  0.9387  0.4393
 1453SOL    HW2 4976   5.957   3.678   3.955 -0.1744  0.7630 -1.5910
 1454SOL     OW 4977   5.619   3.472   3.161 -0.0328  0.4177  0.4598
 1454SOL    HW1 4978   5.637   3.532   3.089 -0.7798  0.5950  0.4167
 1454SOL    HW2 4979   5.701   3.470   3.211 -0.0811  1.6836  0.6158
 1455SOL     OW 4980   1.582   6.933   5.181  0.1071  0.1536  0.0126
 1455SOL    HW1 4981   1.571   6.908   5.272  1.0968  0.4520  0.2290
 1455SOL    HW2 4982   1.554   6.856   5.131 -1.1635  0.2638  0.5345
 1456SOL     OW 4983   6.535   5.201   7.056 -0.3231  0.0160 -0.1905
 1456SOL    HW1 4984   6.517   5.292   7.033  3.2864  0.9629  0.1542
 1456SOL    HW2 4985   6.520   5.196   7.150 -1.0078  0.1043 -0.2938
 1457SOL     OW 4986   0.030   6.866   0.071 -0.6799  0.0648 -0.6060
 1457SOL    HW1 4987  -0.049   6.841   0.120 -0.4510  1.0850  0.3377
 1457SOL    HW2 4988   0.100   6.865   0.137 -0.3125  1.2126 -0.9456
 1458SOL     OW 4989   5.141   1.886   5.771 -0.0290  0.1795 -0.1234
 1458SOL    HW1 4990   5.164   1.804   5.814 -0.6302  0.1694  0.1959
 1458SOL    HW2 4991   5.174   1.955   5.829  0.3167  0.1650 -0.3018
 1459SOL     OW 4992   4.603   1.689   6.419 -0.5397  0.3759  0.1039
 1459SOL    HW1 4993   4.648   1.772   6.440  0.8020  0.1463 -1.6507
 1459SOL    HW2 4994   4.665   1.621   6.447 -0.8303 -0.0008 -0.1689
 1460SOL     OW 4995   1.880   2.172   7.003 -0.6345 -0.1113 -0.3050
 1460SOL    HW1 4996   1.968   2.183   7.038 -0.2491  0.3381 -1.3603
 1460SOL    HW2 4997   1.829   2.136   7.075  0.3334 -0.0533  0.4210
 1461SOL     OW 4998   0.286   4.479   2.185  0.2065 -0.3512 -0.0917
 1461SOL    HW1 4999   0.212   4.433   2.147 -0.0987 -1.8655  2.1608
 1461SOL    HW2 5000   0.253   4.514   2.268  0.4317  3.9952 -1.5326
 1462SOL     OW 5001   6.166   4.276   4.377 -0.1195  0.7284  0.3752
 1462SOL    HW1 5002   6.180   4.349   4.316  0.2291 -0.6010 -1.2169
 1462SOL    HW2 5003   6.225   4.207   4.346 -2.1127 -1.0689  0.3263
 1463SOL     OW 5004   7.135   6.713   2.850 -0.3075 -0.1967 -0.2946
 1463SOL    HW1 5005   7.198   6.664   2.901  1.4453  0.6983 -1.4750
 1463SOL    HW2 5006   7.140   6.802   2.884  0.5164  0.3005 -1.6392
 1464SOL     OW 5007   4.146   2.623   6.053 -0.1070  0.0548 -0.3439
 1464SOL    HW1 5008   4.198   2.545   6.033  3.2479  2.3249 -1.5185
 1464SOL    HW2 5009   4.102   2.645   5.971  0.4927  0.3909 -0.5854
 1465SOL     OW 5010   1.816   4.702   1.093  1.0083  0.1096 -0.3793
 1465SOL    HW1 5011   1.876   4.769   1.061  0.6085  1.1214  0.9130
 1465SOL    HW2 5012   1.870   4.644   1.145  1.0671  0.3851 -0.1307
 1466SOL     OW 5013   2.917   2.226   6.241 -1.2635  0.0827 -0.0218
 1466SOL    HW1 5014   2.844   2.276   6.278 -0.3376  1.1544  0.4306
 1466SOL    HW2 5015   2.882   2.189   6.160 -2.4331  0.2103  0.4117
 1467SOL     OW 5016   4.021   0.091   1.772  0.2257 -0.0850  0.1066
 1467SOL    HW1 5017   4.088   0.025   1.791 -0.7792 -1.3261 -0.5177
 1467SOL    HW2 5018   4.015   0.144   1.852  1.8932  0.0301  0.1889
 1468SOL     OW 5019   5.650   2.847   5.324 -0.0404 -0.0432 -0.0919
 1468SOL    HW1 5020   5.650   2.910   5.253  1.4469  1.2031  0.9630
 1468SOL    HW2 5021   5.716   2.782   5.298  0.1691  0.1576 -0.0659
 1469SOL     OW 5022   1.981   2.176   0.357  0.3182 -0.0384 -0.2475
 1469SOL    HW1 5023   1.996   2.234   0.432 -0.5965 -1.9789  1.5439
 1469SOL    HW2 5024   2.068   2.161   0.321  0.7211  1.3425  0.0756
 1470SOL     OW 5025   4.049   6.853   0.013  0.3157 -0.0731 -0.3084
 1470SOL    HW1 5026   4.035   6.758   0.009 -0.9085  0.1401 -3.0569
 1470SOL    HW2 5027   4.135   6.866  -0.027  0.1199  0.0331 -0.6955
 1471SOL     OW 5028   6.738   5.059   1.144 -0.1187 -0.5773  0.0908
 1471SOL    HW1 5029   6.665   5.118   1.164 -0.3918 -1.0354  0.4865
 1471SOL    HW2 5030   6.765   5.083   1.055 -2.5831 -2.1950 -1.2565
 1472SOL     OW 5031   1.718   6.929   0.922  0.0483 -0.6028  0.2098
 1472SOL    HW1 5032   1.775   6.860   0.890 -0.1425 -0.4700 -0.4500
 1472SOL    HW2 5033   1.683   6.896   1.005  1.9993 -0.1762  1.2442
 1473SOL     OW 5034   3.326   5.069   1.153  0.0945  0.4438  0.4945
 1473SOL    HW1 5035   3.384   5.121   1.098 -0.6496 -0.5069 -1.2758
 1473SOL    HW2 5036   3.362   5.078   1.241  1.8347  1.3547 -0.2574
 1474SOL     OW 5037   3.910   3.207   6.027  0.1227 -0.4644 -0.4841
 1474SOL    HW1 5038   3.913   3.234   6.119 -0.2233  2.3410 -1.2113
 1474SOL    HW2 5039   3.858   3.275   5.984 -0.4366 -2.1559 -2.6377
 1475SOL     OW 5040   6.364   3.903   6.343 -0.3598 -0.1959  0.0241
 1475SOL    HW1 5041   6.278   3.862   6.350 -0.4996  0.2402  1.0648
 1475SOL    HW2 5042   6.357   3.964   6.270 -0.3807 -1.4270 -1.0551
 1476SOL     OW 5043   5.635   2.403   4.155  0.0845 -0.2284  0.2239
 1476SOL    HW1 5044   5.702   2.334   4.161 -1.2855 -1.5397  1.5431
 1476SOL    HW2 5045   5.552   2.355   4.153 -0.8445  1.3482 -1.5161
 1477SOL     OW 5046   4.141   5.521   6.665 -0.2080 -0.4050  0.2698
 1477SOL    HW1 5047   4.165   5.575   6.740  0.3560 -0.5253  0.1836
 1477SOL    HW2 5048   4.057   5.556   6.635 -0.2130 -0.0677  0.6791
 1478SOL     OW 5049   3.937   0.990   6.283 -0.4514 -0.1640 -0.3482
 1478SOL    HW1 5050   3.868   0.933   6.317  0.5765 -1.5610 -0.5315
 1478SOL    HW2 5051   3.932   0.980   6.188 -0.8665  0.8181 -0.4490
 1479SOL     OW 5052   4.979   1.098   5.575 -0.1326  0.0294  0.1321
 1479SOL    HW1 5053   5.018   1.168   5.522  0.9943 -0.0864  0.7721
 1479SOL    HW2 5054   5.024   1.104   5.659 -1.1380 -0.4736  0.7290
 1480SOL     OW 5055   6.272   0.211   2.685 -0.1300  0.0249  0.3945
 1480SOL    HW1 5056   6.315   0.171   2.760  0.4917  0.7173  0.4238
 1480SOL    HW2 5057   6.323   0.291   2.668 -0.1663 -0.1878 -0.8432
 1481SOL     OW 5058   3.269   2.779   1.345 -0.1373  0.1906  0.2832
 1481SOL    HW1 5059   3.294   2.687   1.352  0.7075  0.1844 -1.9579
 1481SOL    HW2 5060   3.240   2.789   1.254  1.9130  2.5895 -0.2055
 1482SOL     OW 5061   4.620   4.016   0.600  0.9362  0.9893 -0.0981
 1482SOL    HW1 5062   4.538   3.985   0.639  0.0743  0.2425 -2.3337
 1482SOL    HW2 5063   4.665   4.061   0.671  0.9239 -2.8034  2.6397
 1483SOL     OW 5064   2.443   2.614   0.739  0.2123  0.2961 -0.0285
 1483SOL    HW1 5065   2.388   2.685   0.707 -0.0680  0.1683  0.1589
 1483SOL    HW2 5066   2.407   2.593   0.826 -0.3350 -0.7341 -0.4824
 1484SOL     OW 5067   4.615   4.254   2.372 -0.3942  0.0031  0.5209
 1484SOL    HW1 5068   4.626   4.322   2.437 -0.7142 -0.4573  1.0633
 1484SOL    HW2 5069   4.539   4.203   2.402 -0.1523 -0.5989  0.1409
 1485SOL     OW 5070   0.893   7.185   4.018  0.6451  0.0592  0.5428
 1485SOL    HW1 5071   0.877   7.118   4.085  0.6660 -0.9399 -0.4145
 1485SOL    HW2 5072   0.889   7.137   3.935 -2.1597  1.6779 -0.4007
 1486SOL     OW 5073   1.735   5.582   3.924  0.3356  0.2179 -0.2352
 1486SOL    HW1 5074   1.752   5.494   3.890  2.3672  1.2074 -1.9988
 1486SOL    HW2 5075   1.809   5.600   3.982 -0.8219  0.2875  1.3167
 1487SOL     OW 5076   4.378   6.167   4.106  0.0334  0.5169  0.3554
 1487SOL    HW1 5077   4.450   6.108   4.128 -0.9823 -0.7793  0.3248
 1487SOL    HW2 5078   4.385   6.239   4.169  1.1883  0.2878  0.5119
 1488SOL     OW 5079   3.043   4.011   5.614  0.8833  0.3105  0.1939
 1488SOL    HW1 5080   3.075   4.099   5.635  0.9172  0.2195  0.5163
 1488SOL    HW2 5081   2.969   3.998   5.672  1.8634 -0.5099  1.2929
 1489SOL     OW 5082   0.102   5.775   1.126  0.5277 -0.3139  0.3957
 1489SOL    HW1 5083   0.049   5.704   1.164 -0.5699  0.1206 -0.2875
 1489SOL    HW2 5084   0.060   5.855   1.157  0.4313  0.0419 -0.6474
 1490SOL     OW 5085   5.617   2.312   2.685 -0.4005 -0.4754  0.1415
 1490SOL    HW1 5086   5.679   2.256   2.639  0.7568 -0.1254  1.2151
 1490SOL    HW2 5087   5.632   2.294   2.778 -3.2152 -1.7393  0.4509
 1491SOL     OW 5088   4.381   0.722   5.956 -0.1101  0.4718  0.3708
 1491SOL    HW1 5089   4.447   0.688   5.895  0.8561  1.9454  0.5235
 1491SOL    HW2 5090   4.328   0.646   5.979  2.3930 -1.1157  1.3380
 1492SOL     OW 5091   1.450   2.320   1.012 -0.7944 -0.0366  0.4503
 1492SOL    HW1 5092   1.449   2.380   1.086 -1.8945 -0.5503  0.8789
 1492SOL    HW2 5093   1.512   2.252   1.037  1.1117  1.3149 -0.3988
 1493SOL     OW 5094   5.870   7.070   4.570  0.0477 -0.1228 -0.1964
 1493SOL    HW1 5095   5.931   7.138   4.601 -0.1139  0.1884 -0.5448
 1493SOL    HW2 5096   5.925   7.010   4.520  0.1148  0.0180 -0.2939
 1494SOL     OW 5097   6.050   2.092   1.952 -0.1239  0.2088  0.1117
 1494SOL    HW1 5098   6.098   2.049   1.882  0.7796 -0.5768  1.1915
 1494SOL    HW2 5099   5.994   2.024   1.990  0.0031  0.4135  0.6881
 1495SOL     OW 5100   3.326   0.369   5.770 -1.2715 -0.0892  0.0387
 1495SOL    HW1 5101   3.240   0.366   5.726 -0.8965 -2.3302 -0.6849
 1495SOL    HW2 5102   3.381   0.310   5.719  0.6175  0.9789  0.7422
 1496SOL     OW 5103   6.467   5.177   4.409  0.0452  0.1349  0.1498
 1496SOL    HW1 5104   6.399   5.146   4.469  0.5461 -2.1497 -0.3436
 1496SOL    HW2 5105   6.531   5.220   4.465  1.1967 -3.1294  1.6101
 1497SOL     OW 5106   4.870   4.154   5.154  0.1425 -0.0527 -0.1772
 1497SOL    HW1 5107   4.843   4.194   5.237  1.4397  0.3286  0.0903
 1497SOL    HW2 5108   4.789   4.138   5.107 -0.6215 -0.3210  1.1938
 1498SOL     OW 5109   4.151   4.060   1.648  0.3007  0.1355 -0.6585
 1498SOL    HW1 5110   4.069   4.097   1.615  0.2669  0.2996 -0.3931
 1498SOL    HW2 5111   4.151   3.970   1.615 -0.3302 -0.0922 -0.0751
 1499SOL     OW 5112   2.254   1.047   6.324  0.4095 -0.0054  0.0328
 1499SOL    HW1 5113   2.344   1.074   6.342  0.8920 -2.5433  2.0517
 1499SOL    HW2 5114   2.262   0.976   6.260 -0.1565 -0.1033  0.0666
 1500SOL     OW 5115   1.989   6.204   3.499 -0.4694  0.3960  0.2339
 1500SOL    HW1 5116   2.027   6.271   3.443  0.1566  0.2218  0.4361
 1500SOL    HW2 5117   1.896   6.225   3.503 -0.0906  2.0065  1.3286
 1501SOL     OW 5118   3.512   3.403   1.878  0.3526 -0.1966  0.9178
 1501SOL    HW1 5119   3.584   3.466   1.883  1.2137 -1.0675 -0.0816
 1501SOL    HW2 5120   3.494   3.394   1.785  0.1014 -1.2492  1.0523
 1502SOL     OW 5121   0.405   2.037   3.010  0.0395  0.1079 -0.8315
 1502SOL    HW1 5122   0.483   2.085   2.983  0.2144 -0.5540 -1.5367
 1502SOL    HW2 5123   0.440   1.958   3.052 -0.2312  0.8299  0.8749
 1503SOL     OW 5124   2.661   3.549   5.098 -0.4688  0.3550  0.5505
 1503SOL    HW1 5125   2.635   3.477   5.156 -0.4404 -0.7447 -0.7461
 1503SOL    HW2 5126   2.732   3.593   5.144 -1.7788  0.7889  2.2492
 1504SOL     OW 5127   2.868   6.661   6.809  0.2221  0.0277  0.0084
 1504SOL    HW1 5128   2.808   6.689   6.740  0.9961  0.9026 -0.3230
 1504SOL    HW2 5129   2.895   6.743   6.852 -0.3392 -0.4941  1.4417
 1505SOL     OW 5130   5.664   3.712   0.187 -0.5250  0.7524 -0.0407
 1505SOL    HW1 5131   5.753   3.678   0.181  0.0010  2.0307  0.0589
 1505SOL    HW2 5132   5.629   3.705   0.098  0.7619  2.9450 -0.8109
 1506SOL     OW 5133   6.427   1.909   6.935 -0.1966 -0.8806  0.4754
 1506SOL    HW1 5134   6.501   1.915   6.874 -0.4469  0.6654  0.2981
 1506SOL    HW2 5135   6.402   1.817   6.933 -1.2071 -0.6353 -2.9421
 1507SOL     OW 5136   2.300   5.809   1.203 -0.1274  0.0320 -0.1348
 1507SOL    HW1 5137   2.350   5.748   1.257  0.0859 -0.9240 -1.3670
 1507SOL    HW2 5138   2.267   5.874   1.265  2.8256  0.8554  0.7386
 1508SOL     OW 5139   6.409   0.172   0.825 -0.3829 -0.4681 -0.0300
 1508SOL    HW1 5140   6.473   0.163   0.755  0.7234  1.2565  0.6682
 1508SOL    HW2 5141   6.368   0.257   0.809 -0.3569 -0.2067  1.1939
 1509SOL     OW 5142   3.545   3.286   6.857 -0.4892  0.1496  0.0010
 1509SOL    HW1 5143   3.504   3.313   6.774 -0.1400 -0.3322 -0.3332
 1509SOL    HW2 5144   3.555   3.367   6.906 -0.1999  0.5264 -0.6615
 1510SOL     OW 5145   0.424   6.290   4.420 -0.2075 -0.0335  0.1332
 1510SOL    HW1 5146   0.473   6.268   4.500  1.3032  1.6179 -0.2827
 1510SOL    HW2 5147   0.332   6.280   4.445  0.2585 -0.6922  1.7239
 1511SOL     OW 5148   0.543   1.397   3.974 -0.4487  0.4899  0.1146
 1511SOL    HW1 5149   0.618   1.451   3.997  0.1100  0.4695 -1.5278
 1511SOL    HW2 5150   0.510   1.435   3.892 -2.0139  0.2699  0.5981
 1512SOL     OW 5151   1.714   2.597   2.049  0.1914  0.1736 -0.2807
 1512SOL    HW1 5152   1.663   2.516   2.040 -1.7632  1.4677 -1.6440
 1512SOL    HW2 5153   1.781   2.590   1.980  0.1268 -0.3340 -0.2959
 1513SOL     OW 5154   6.980   0.943   7.180 -0.6946 -0.1582  0.2822
 1513SOL    HW1 5155   6.979   1.038   7.168 -1.6169 -0.0851  0.8132
 1513SOL    HW2 5156   7.034   0.929   7.258  0.3096 -0.1589 -0.4051
 1514SOL     OW 5157   6.517   1.971   7.175 -0.0543  0.0421 -0.0148
 1514SOL    HW1 5158   6.508   1.965   7.080 -1.6722 -2.6577  0.2175
 1514SOL    HW2 5159   6.462   2.046   7.199  0.0305  0.4886 -1.1424
 1515SOL     OW 5160   2.307   2.807   4.456 -0.1434 -0.4567 -0.1194
 1515SOL    HW1 5161   2.379   2.758   4.416 -1.2043 -1.2844 -1.1013
 1515SOL    HW2 5162   2.300   2.773   4.545  0.0820 -1.0338 -0.3218
 1516SOL     OW 5163   4.931   2.720   0.234 -0.6090  0.1793 -0.0497
 1516SOL    HW1 5164   4.978   2.803   0.226 -0.8519  0.1118 -4.3264
 1516SOL    HW2 5165   4.843   2.738   0.201 -1.4295 -1.3150  1.1811
 1517SOL     OW 5166   0.418   7.161   0.492  0.1333 -0.0754  0.3415
 1517SOL    HW1 5167   0.456   7.193   0.411 -1.6702 -2.0225 -1.4277
 1517SOL    HW2 5168   0.324   7.158   0.474 -0.3116 -0.5838  2.5070
 1518SOL     OW 5169   0.492   2.146   4.875  0.3260  0.1618  0.1083
 1518SOL    HW1 5170   0.405   2.120   4.904 -0.9814  1.5396 -2.2490
 1518SOL    HW2 5171   0.495   2.241   4.890  0.1420  0.6762 -2.5910
 1519SOL     OW 5172   5.252   3.569   6.032 -0.1501  0.2082 -0.1583
 1519SOL    HW1 5173   5.293   3.536   6.111 -1.6957  0.8665  0.9688
 1519SOL    HW2 5174   5.317   3.628   5.994  0.5516  0.0120  0.7058
 1520SOL     OW 5175   6.792   4.719   6.075 -0.1425  0.4649  0.5471
 1520SOL    HW1 5176   6.707   4.722   6.031  0.5727  1.6571 -0.8367
 1520SOL    HW2 5177   6.778   4.764   6.158 -1.3050 -1.0276  1.1957
 1521SOL     OW 5178   6.551   5.835   4.937 -0.4798  0.4546 -0.5040
 1521SOL    HW1 5179   6.616   5.809   4.871 -0.2160 -0.0369 -0.0538
 1521SOL    HW2 5180   6.471   5.848   4.886 -0.2194  0.3223 -0.9628
 1522SOL     OW 5181   2.452   3.868   0.950  0.0083  0.5103 -0.1715
 1522SOL    HW1 5182   2.496   3.952   0.963 -0.0756  0.5737 -0.2923
 1522SOL    HW2 5183   2.415   3.874   0.861 -2.8324  1.6478  0.9504
 1523SOL     OW 5184   2.292   4.563   3.386 -0.6124  0.6004  0.3607
 1523SOL    HW1 5185   2.292   4.568   3.482 -0.4647  4.0314  0.2986
 1523SOL    HW2 5186   2.203   4.587   3.361 -0.7148 -0.5024 -0.4064
 1524SOL     OW 5187   3.496   4.934   5.712  0.1585 -0.2822 -0.6257
 1524SOL    HW1 5188   3.484   5.024   5.744 -0.4638 -0.1100 -1.3166
 1524SOL    HW2 5189   3.496   4.943   5.616  2.0637 -0.7689 -0.7187
 1525SOL     OW 5190   5.449   0.293   3.967 -0.4468  0.3353 -0.3080
 1525SOL    HW1 5191   5.524   0.242   3.937 -0.4946  0.6735 -1.0289
 1525SOL    HW2 5192   5.461   0.301   4.061 -0.5194 -1.1395 -0.1403
 1526SOL     OW 5193   0.132   3.010   0.345  0.2744 -0.2171  0.0318
 1526SOL    HW1 5194   0.098   2.952   0.414  1.3802 -1.2459 -0.2547
 1526SOL    HW2 5195   0.072   2.998   0.272 -0.0539 -0.2444  0.2986
 1527SOL     OW 5196   1.904   2.942   4.435  0.0150 -0.0026 -0.3698
 1527SOL    HW1 5197   1.885   2.848   4.433  1.3764 -0.2850 -0.7168
 1527SOL    HW2 5198   1.909   2.968   4.343 -1.4410  0.6685 -0.2905
 1528SOL     OW 5199   3.873   1.801   6.387 -0.5524 -0.1054 -0.1964
 1528SOL    HW1 5200   3.842   1.735   6.449  1.3802 -1.3884 -0.5095
 1528SOL    HW2 5201   3.937   1.851   6.436 -1.7463  1.3684 -0.0741
 1529SOL     OW 5202   4.606   7.150   4.785 -0.0621 -0.3830 -0.6152
 1529SOL    HW1 5203   4.617   7.124   4.877 -0.9528 -1.1957 -0.7175
 1529SOL    HW2 5204   4.693   7.138   4.746  0.2982 -0.1263  0.0919
 1530SOL     OW 5205   6.662   2.915   3.154  0.2328 -0.0213 -0.4170
 1530SOL    HW1 5206   6.757   2.918   3.145  0.1153  1.5439 -1.6402
 1530SOL    HW2 5207   6.632   2.861   3.081  0.1939 -1.1049  0.3742
 1531SOL     OW 5208   1.393   1.788   0.657  0.5692 -0.5522 -0.2409
 1531SOL    HW1 5209   1.382   1.824   0.570  0.4173  1.5777  0.5951
 1531SOL    HW2 5210   1.316   1.817   0.706  1.7695  0.3434  1.2099
 1532SOL     OW 5211   3.711   5.545   4.649  0.8404 -0.3984 -0.3166
 1532SOL    HW1 5212   3.745   5.631   4.627  0.7924 -0.6509 -1.4195
 1532SOL    HW2 5213   3.732   5.534   4.742  1.2333  0.6124 -0.2767
 1533SOL     OW 5214   0.848   3.297   5.768 -0.0424  0.2084  0.2288
 1533SOL    HW1 5215   0.914   3.353   5.729 -0.0354 -0.4423 -0.7247
 1533SOL    HW2 5216   0.767   3.321   5.724 -0.4346  0.8774  1.2627
 1534SOL     OW 5217   2.865   4.637   0.794 -0.2396 -0.1843  0.7520
 1534SOL    HW1 5218   2.839   4.723   0.827  0.4666  0.0263  0.7611
 1534SOL    HW2 5219   2.901   4.592   0.871  1.9761  0.5257  0.1717
 1535SOL     OW 5220   3.353   5.470   5.282 -0.4373 -0.1553 -0.0311
 1535SOL    HW1 5221   3.448   5.466   5.284 -0.4515 -0.0674  1.1752
 1535SOL    HW2 5222   3.324   5.415   5.355 -1.2980  0.2817 -0.0222
 1536SOL     OW 5223   4.359   6.306   6.831  0.7887 -0.1381  0.8837
 1536SOL    HW1 5224   4.329   6.280   6.744 -1.2799  1.4927  1.0574
 1536SOL    HW2 5225   4.412   6.384   6.816  2.1469 -1.0053  0.9438
 1537SOL     OW 5226   4.596   1.141   3.580 -0.6249 -0.2566 -0.6746
 1537SOL    HW1 5227   4.597   1.139   3.484  0.3497  0.3896 -0.6860
 1537SOL    HW2 5228   4.663   1.205   3.603 -0.3432 -0.9417  0.4598
 1538SOL     OW 5229   0.116   2.809   5.346 -0.3517  0.4766  0.0504
 1538SOL    HW1 5230   0.149   2.840   5.261 -0.0852 -0.8338 -0.3455
 1538SOL    HW2 5231   0.180   2.841   5.409 -1.1498  2.4550 -0.0640
 1539SOL     OW 5232   0.492   0.352   3.824 -0.5561  0.0654 -0.4303
 1539SOL    HW1 5233   0.551   0.319   3.892  1.3854 -1.0305 -2.5089
 1539SOL    HW2 5234   0.416   0.385   3.872  1.1452  0.2998  2.3068
 1540SOL     OW 5235   1.235   3.526   4.141  0.0381  0.3294  0.6467
 1540SOL    HW1 5236   1.200   3.517   4.229  2.0331 -0.4159  1.4069
 1540SOL    HW2 5237   1.278   3.612   4.140 -0.4359  0.5753  0.1945
 1541SOL     OW 5238   3.577   0.587   5.134 -0.1632  0.5347 -0.3175
 1541SOL    HW1 5239   3.592   0.637   5.054  0.6248  1.5030  0.4205
 1541SOL    HW2 5240   3.656   0.600   5.186 -1.0851  0.7783  1.0657
 1542SOL     OW 5241   1.966   1.379   2.975  0.2945 -0.0197  0.0383
 1542SOL    HW1 5242   1.984   1.467   3.008  1.4256 -1.1355  2.6974
 1542SOL    HW2 5243   2.018   1.372   2.895 -1.2377  2.2658 -1.2682
 1543SOL     OW 5244   0.885   3.388   4.105  0.1668  0.0009  0.2807
 1543SOL    HW1 5245   0.945   3.385   4.031 -0.7323  1.2001 -0.5281
 1543SOL    HW2 5246   0.938   3.359   4.180  1.2547 -0.6228 -0.7076
 1544SOL     OW 5247   2.060   2.147   1.363 -0.8401 -0.5205 -0.4011
 1544SOL    HW1 5248   2.056   2.136   1.458  1.3087  0.7366 -0.0958
 1544SOL    HW2 5249   2.089   2.061   1.331 -1.2031 -0.8421  0.1230
 1545SOL     OW 5250   4.578   5.505   3.573 -0.1190 -0.5185  0.2434
 1545SOL    HW1 5251   4.487   5.514   3.604 -0.2566 -0.3686 -0.2025
 1545SOL    HW2 5252   4.625   5.469   3.649 -0.9869 -2.7350 -0.1812
 1546SOL     OW 5253   0.049   3.498   1.501  0.1181 -0.4782  0.6974
 1546SOL    HW1 5254   0.135   3.536   1.482  0.7007 -0.3616  3.2658
 1546SOL    HW2 5255   0.010   3.558   1.564 -1.0864 -1.5160  0.9694
 1547SOL     OW 5256   2.755   7.234   3.269  0.0497 -0.2451 -0.3844
 1547SOL    HW1 5257   2.815   7.275   3.332  1.5875 -0.4027 -1.6823
 1547SOL    HW2 5258   2.705   7.171   3.322 -0.3206  1.2143  1.0873
 1548SOL     OW 5259   1.328   5.286   2.111  0.0700  0.4297 -0.1117
 1548SOL    HW1 5260   1.296   5.327   2.031  0.4800  1.3364  0.1813
 1548SOL    HW2 5261   1.377   5.355   2.156 -0.0988 -0.0791  0.8879
 1549SOL     OW 5262   5.990   5.686   3.484  0.5959 -0.0041 -0.0276
 1549SOL    HW1 5263   5.943   5.613   3.444  0.0075  0.2953  0.1031
 1549SOL    HW2 5264   6.027   5.733   3.409  2.0257 -1.1065 -0.0545
 1550SOL     OW 5265   1.337   4.974   1.661  0.4754  0.0884 -0.1399
 1550SOL    HW1 5266   1.386   5.016   1.732  0.2169 -1.0783  0.7632
 1550SOL    HW2 5267   1.349   5.032   1.586  2.8612  0.0831  0.1596
 1551SOL     OW 5268   0.295   0.237   1.174  0.4894  0.2910 -0.3398
 1551SOL    HW1 5269   0.361   0.213   1.238  1.9393 -0.4875 -2.0265
 1551SOL    HW2 5270   0.254   0.316   1.209  1.1757 -0.1518  1.5317
 1552SOL     OW 5271   6.805   5.680   0.398  0.5396 -0.2650  0.3786
 1552SOL    HW1 5272   6.729   5.737   0.402  0.8995  0.2691 -0.3125
 1552SOL    HW2 5273   6.827   5.663   0.490  1.0360  1.5402  0.6158
 1553SOL     OW 5274   0.451   0.156   0.634 -0.0945 -0.3984  0.8122
 1553SOL    HW1 5275   0.418   0.149   0.723  0.7510 -1.8558  1.0359
 1553SOL    HW2 5276   0.449   0.067   0.600  1.3012 -0.1630  0.0103
 1554SOL     OW 5277   3.852   3.582   5.094  0.1468  0.7087  0.1327
 1554SOL    HW1 5278   3.772   3.558   5.047 -1.3555  2.3544  1.6695
 1554SOL    HW2 5279   3.851   3.678   5.095  0.2305  0.7897  3.1063
 1555SOL     OW 5280   3.493   3.934   4.518  0.1036  0.0445 -0.4028
 1555SOL    HW1 5281   3.586   3.937   4.540 -0.3198  1.4589  1.4650
 1555SOL    HW2 5282   3.460   4.020   4.542 -1.3876  0.2118 -2.7254
 1556SOL     OW 5283   6.644   5.336   0.748 -0.4235  0.4868  0.1093
 1556SOL    HW1 5284   6.566   5.311   0.700 -0.5597  1.7236 -0.3445
 1556SOL    HW2 5285   6.675   5.255   0.789 -0.9294 -0.3576 -1.1526
 1557SOL     OW 5286   4.710   6.037   3.582  0.0832 -0.3924  0.4693
 1557SOL    HW1 5287   4.639   6.024   3.519 -0.5083 -0.1768  1.0830
 1557SOL    HW2 5288   4.725   6.132   3.583 -0.3880 -0.3222  1.1676
 1558SOL     OW 5289   0.172   1.890   0.951 -0.0224 -0.4394 -0.3486
 1558SOL    HW1 5290   0.197   1.843   0.871  0.3440 -0.8295 -0.0085
 1558SOL    HW2 5291   0.144   1.822   1.012  2.5560 -0.4744  0.9171
 1559SOL     OW 5292   3.153   1.193   6.674  0.2944 -0.2830 -0.1609
 1559SOL    HW1 5293   3.102   1.207   6.754 -0.3533 -1.8103 -0.2827
 1559SOL    HW2 5294   3.158   1.280   6.633 -1.0168  0.1521  0.5533
 1560SOL     OW 5295   3.180   5.299   2.451 -0.0410  0.5619 -0.0356
 1560SOL    HW1 5296   3.233   5.243   2.395 -0.0666  0.7335 -0.2297
 1560SOL    HW2 5297   3.107   5.243   2.479  0.3545  0.2574  0.4071
 1561SOL     OW 5298   1.624   7.209   2.113 -0.1057 -0.4301  0.0736
 1561SOL    HW1 5299   1.573   7.230   2.191  0.2604  0.1546  0.1592
 1561SOL    HW2 5300   1.662   7.123   2.132  0.1368 -0.2057  0.6232
 1562SOL     OW 5301   3.252   6.803   4.386 -0.2008 -0.1877 -0.0351
 1562SOL    HW1 5302   3.234   6.897   4.393  1.8990  0.1404  1.7254
 1562SOL    HW2 5303   3.169   6.766   4.354 -2.3362  1.7851  2.6784
 1563SOL     OW 5304   3.681   5.902   2.833  0.0150  0.0138  0.0445
 1563SOL    HW1 5305   3.680   5.811   2.804  1.3756 -0.5442  1.5893
 1563SOL    HW2 5306   3.714   5.951   2.758  0.4461 -0.9441 -0.4056
 1564SOL     OW 5307   5.961   4.560   1.225 -0.5468 -0.0632  0.4319
 1564SOL    HW1 5308   6.034   4.613   1.192 -0.3187 -0.7767 -0.2507
 1564SOL    HW2 5309   5.945   4.496   1.156 -0.0477 -1.6265  1.6936
 1565SOL     OW 5310   5.576   4.431   3.872  0.3034 -0.6817  0.7552
 1565SOL    HW1 5311   5.575   4.523   3.900  1.7118 -0.8675  1.5254
 1565SOL    HW2 5312   5.561   4.434   3.777  0.0424  0.3087  0.8163
 1566SOL     OW 5313   2.223   4.710   6.079  0.0619  0.4910  0.0614
 1566SOL    HW1 5314   2.280   4.778   6.115 -0.6447 -0.5798  3.5399
 1566SOL    HW2 5315   2.137   4.750   6.074 -0.1817  0.1559  1.2947
 1567SOL     OW 5316   2.467   2.727   6.024  0.0853  0.0248  0.2326
 1567SOL    HW1 5317   2.529   2.689   6.086 -1.1951 -0.6890  1.1330
 1567SOL    HW2 5318   2.484   2.821   6.026  0.9515 -0.1361  0.6604
 1568SOL     OW 5319   3.834   0.545   2.529 -0.1988  0.2751 -0.8137
 1568SOL    HW1 5320   3.752   0.497   2.536 -0.6498  0.8313 -2.0765
 1568SOL    HW2 5321   3.892   0.487   2.479 -0.3296  0.5244 -1.2538
 1569SOL     OW 5322   5.781   2.273   5.846  0.3637 -0.0311 -0.2978
 1569SOL    HW1 5323   5.843   2.229   5.787  0.3421  0.3602 -0.6155
 1569SOL    HW2 5324   5.828   2.280   5.929  1.3800  1.6806 -0.9524
 1570SOL     OW 5325   4.218   6.925   4.322 -0.1582  0.1687  0.2830
 1570SOL    HW1 5326   4.139   6.875   4.299  0.3671 -0.4078 -0.2911
 1570SOL    HW2 5327   4.274   6.861   4.366  0.4771  0.2783 -0.3624
 1571SOL     OW 5328   1.222   1.818   6.980 -0.0454 -0.0681 -0.4030
 1571SOL    HW1 5329   1.271   1.736   6.972  1.7946  1.0698 -1.7042
 1571SOL    HW2 5330   1.135   1.798   6.947  0.3073 -1.5534 -0.4706
 1572SOL     OW 5331   3.840   4.074   2.159 -0.2144  0.2801 -0.3518
 1572SOL    HW1 5332   3.790   4.048   2.237  0.4519 -0.2091 -0.0807
 1572SOL    HW2 5333   3.786   4.048   2.085 -0.7626  0.5658 -0.0589
 1573SOL     OW 5334   1.916   2.510   5.690  0.5711  0.0871 -0.2813
 1573SOL    HW1 5335   1.999   2.477   5.655  1.8276  1.2486  1.4578
 1573SOL    HW2 5336   1.915   2.481   5.781 -0.2048  1.4174  0.1603
 1574SOL     OW 5337   5.457   4.169   4.595 -0.0515 -0.7885 -0.4624
 1574SOL    HW1 5338   5.414   4.089   4.565  0.3899 -0.8116 -1.0584
 1574SOL    HW2 5339   5.395   4.239   4.576 -1.5031 -1.1732  2.2327
 1575SOL     OW 5340   4.630   5.732   3.901  0.1604 -0.5150  0.3588
 1575SOL    HW1 5341   4.711   5.730   3.951  0.6453  2.0354 -0.1796
 1575SOL    HW2 5342   4.656   5.756   3.812 -0.9987 -1.8195 -0.3810
 1576SOL     OW 5343   1.773   2.096   6.297  0.0828 -0.0324  0.3364
 1576SOL    HW1 5344   1.739   2.142   6.221 -1.2248 -0.7893  0.4424
 1576SOL    HW2 5345   1.828   2.027   6.260 -0.3233 -0.2231  0.0837
 1577SOL     OW 5346   2.590   6.963   3.996  0.4508  0.6924  0.2341
 1577SOL    HW1 5347   2.617   7.051   4.023 -0.8196  0.9475  0.7241
 1577SOL    HW2 5348   2.496   6.960   4.013  0.0073  0.0451 -1.9494
 1578SOL     OW 5349   2.503   0.102   1.964 -0.2246  0.0525  0.1794
 1578SOL    HW1 5350   2.527   0.019   2.005 -1.2946  0.5780  2.0148
 1578SOL    HW2 5351   2.502   0.165   2.036  0.4555  1.6607 -1.1488
 1579SOL     OW 5352   4.871   4.586   1.205 -0.5224 -0.3337  0.1102
 1579SOL    HW1 5353   4.873   4.552   1.116  0.3178  0.5175 -0.2082
 1579SOL    HW2 5354   4.819   4.522   1.254 -0.2574 -1.2592 -0.7927
 1580SOL     OW 5355   2.481   0.150   4.174 -0.1411  0.0703  1.1753
 1580SOL    HW1 5356   2.406   0.120   4.225  0.1310 -1.1569  0.8761
 1580SOL    HW2 5357   2.455   0.237   4.143 -1.4998 -0.3865  0.9665
 1581SOL     OW 5358   6.732   1.049   3.130  0.0762 -0.4439  0.5366
 1581SOL    HW1 5359   6.649   1.040   3.177 -0.1138  0.9594  0.4978
 1581SOL    HW2 5360   6.769   0.960   3.130 -1.6817 -1.2207  0.0659
 1582SOL     OW 5361   3.926   4.507   0.524  0.0019 -0.3058 -0.4067
 1582SOL    HW1 5362   3.916   4.569   0.596  0.6625 -1.4901  0.7315
 1582SOL    HW2 5363   3.890   4.553   0.448  0.2930  1.3911  0.4436
 1583SOL     OW 5364   3.100   1.881   6.329 -0.3071  0.8209 -0.1891
 1583SOL    HW1 5365   3.144   1.820   6.388  0.1493  0.1932 -1.1566
 1583SOL    HW2 5366   3.021   1.908   6.376 -0.2017 -0.0533  0.4989
 1584SOL     OW 5367   0.730   3.673   1.369 -0.3439  0.3466  0.3165
 1584SOL    HW1 5368   0.704   3.734   1.301  0.2153  0.3099  0.0642
 1584SOL    HW2 5369   0.751   3.729   1.444  1.3272  0.5751 -0.2841
 1585SOL     OW 5370   4.653   3.153   6.036  0.1561 -0.0766  0.3322
 1585SOL    HW1 5371   4.645   3.200   5.953  1.5520 -2.3628 -1.1962
 1585SOL    HW2 5372   4.747   3.138   6.046 -0.1110 -1.0952  1.5860
 1586SOL     OW 5373   6.427   2.407   7.170  0.4621  0.3073  0.2322
 1586SOL    HW1 5374   6.521   2.416   7.153  0.3228  1.1038 -0.1827
 1586SOL    HW2 5375   6.391   2.494   7.151 -0.7025 -0.5459 -1.7218
 1587SOL     OW 5376   5.183   4.033   5.650  0.6155 -0.0031  0.6665
 1587SOL    HW1 5377   5.155   3.954   5.603  0.3048  1.2627 -1.4314
 1587SOL    HW2 5378   5.277   4.038   5.634  0.5626  0.2640  0.4295
 1588SOL     OW 5379   5.715   4.376   7.112  0.2068 -0.3275  0.1620
 1588SOL    HW1 5380   5.705   4.466   7.145  2.0326 -0.0457  0.0516
 1588SOL    HW2 5381   5.809   4.360   7.116 -0.0354 -2.0331 -0.4027
 1589SOL     OW 5382   7.024   1.283   2.210 -0.0393 -0.2232  0.0661
 1589SOL    HW1 5383   7.040   1.349   2.277  0.3051 -1.2700  1.0402
 1589SOL    HW2 5384   7.069   1.316   2.133 -0.7833  1.2058  0.1984
 1590SOL     OW 5385   6.018   3.153   1.294 -0.3217 -0.3338  0.3214
 1590SOL    HW1 5386   6.088   3.189   1.239  0.4841 -1.7028  0.3956
 1590SOL    HW2 5387   5.938   3.171   1.245  0.0205  1.5485  0.3863
 1591SOL     OW 5388   6.694   5.710   2.671 -0.4143  0.0992 -0.4381
 1591SOL    HW1 5389   6.599   5.709   2.678 -0.4534  0.0267 -0.9022
 1591SOL    HW2 5390   6.715   5.801   2.648 -0.3193  0.2613  0.2913
 1592SOL     OW 5391   1.463   5.796   2.295  0.3201  0.3452 -0.2089
 1592SOL    HW1 5392   1.377   5.757   2.307  0.3997 -0.0893 -1.0023
 1592SOL    HW2 5393   1.450   5.866   2.232  0.6407 -0.0867 -0.7654
 1593SOL     OW 5394   4.151   6.807   5.664 -0.0384 -0.0531  0.3090
 1593SOL    HW1 5395   4.085   6.820   5.597  1.6566 -2.2602 -1.9692
 1593SOL    HW2 5396   4.205   6.886   5.660 -0.0860 -0.0724 -0.7781
 1594SOL     OW 5397   3.037   0.816   2.880  0.1140  0.4313 -0.2524
 1594SOL    HW1 5398   3.044   0.875   2.954 -1.0753 -1.3302  1.3476
 1594SOL    HW2 5399   3.071   0.732   2.912 -1.9463 -0.8213 -1.1113
 1595SOL     OW 5400   5.741   6.411   5.625 -0.7837  0.5550 -0.0927
 1595SOL    HW1 5401   5.698   6.481   5.675 -0.7797 -0.2712  1.1018
 1595SOL    HW2 5402   5.834   6.420   5.646 -0.6112  1.0390 -1.0281
 1596SOL     OW 5403   4.003   3.339   6.671 -0.1777 -0.1064  0.4278
 1596SOL    HW1 5404   3.934   3.288   6.714  0.5829 -0.8536  0.8054
 1596SOL    HW2 5405   3.957   3.394   6.608 -0.9466 -3.2608 -2.0839
 1597SOL     OW 5406   0.214   3.872   5.719 -0.0390  0.1659  0.0311
 1597SOL    HW1 5407   0.250   3.797   5.671 -1.1764  0.2120 -0.9469
 1597SOL    HW2 5408   0.288   3.931   5.732  1.3002 -1.8281  2.3443
 1598SOL     OW 5409   5.429   3.799   6.369  0.1420 -0.4261 -0.3285
 1598SOL    HW1 5410   5.436   3.870   6.432 -1.4583 -0.0213 -0.5723
 1598SOL    HW2 5411   5.380   3.836   6.296 -0.4876 -1.6848 -0.5817
 1599SOL     OW 5412   2.608   2.763   6.770 -0.0762 -0.4805 -0.0771
 1599SOL    HW1 5413   2.654   2.722   6.697  0.6793  1.2822 -0.6707
 1599SOL    HW2 5414   2.531   2.709   6.784  0.2746 -1.4169 -1.5439
 1600SOL     OW 5415   2.521   1.365   4.179 -0.1082  0.0154 -0.1473
 1600SOL    HW1 5416   2.591   1.311   4.143  0.3865  0.9299 -0.6119
 1600SOL    HW2 5417   2.534   1.360   4.274  0.1546 -0.3801 -0.2007
 1601SOL     OW 5418   6.991   2.067   6.777 -0.0462  0.0971 -0.2007
 1601SOL    HW1 5419   6.958   2.001   6.716 -1.3577 -0.1435  0.7210
 1601SOL    HW2 5420   6.987   2.149   6.727 -1.6769  0.0035 -0.2974
 1602SOL     OW 5421   5.347   7.115   5.498  0.5442 -0.0291 -0.3727
 1602SOL    HW1 5422   5.361   7.040   5.440 -0.8275 -1.4679  1.0569
 1602SOL    HW2 5423   5.426   7.118   5.553  1.3058  0.5973 -1.4564
 1603SOL     OW 5424   3.298   2.063   3.059  0.1614 -0.1491 -0.5650
 1603SOL    HW1 5425   3.388   2.075   3.087  0.3344 -0.5786 -0.9321
 1603SOL    HW2 5426   3.257   2.011   3.128  0.3743 -0.5326 -0.7303
 1604SOL     OW 5427   3.643   3.629   3.302  0.4424  0.2038  0.4014
 1604SOL    HW1 5428   3.599   3.696   3.354  1.4243  1.9150 -0.8819
 1604SOL    HW2 5429   3.735   3.633   3.331  0.2765 -1.7239  1.4115
 1605SOL     OW 5430   3.068   4.210   0.129  0.1556 -0.0018  0.4364
 1605SOL    HW1 5431   2.981   4.247   0.144 -0.1795 -0.2579 -0.7288
 1605SOL    HW2 5432   3.082   4.221   0.034  1.2251 -0.3183  0.5462
 1606SOL     OW 5433   5.796   3.105   7.160  0.2201  0.1659 -0.0308
 1606SOL    HW1 5434   5.832   3.043   7.096 -0.7024  0.0938 -0.4959
 1606SOL    HW2 5435   5.856   3.100   7.234  2.0297  1.1322 -1.3307
 1607SOL     OW 5436   3.537   3.431   3.654  0.8854 -0.4356 -0.0937
 1607SOL    HW1 5437   3.482   3.379   3.712  1.3036 -2.8689 -1.7390
 1607SOL    HW2 5438   3.480   3.500   3.622  0.0335 -0.3933  1.4034
 1608SOL     OW 5439   5.705   6.199   5.457 -0.6238  0.7110 -0.2632
 1608SOL    HW1 5440   5.789   6.154   5.456 -0.3563  1.1644  0.7216
 1608SOL    HW2 5441   5.713   6.263   5.528 -1.8954  0.5690  0.0297
 1609SOL     OW 5442   6.938   5.960   1.319  0.2175 -0.1250  0.3528
 1609SOL    HW1 5443   6.907   5.897   1.385 -1.9714  1.3534  0.8606
 1609SOL    HW2 5444   6.936   6.044   1.364 -3.3312  1.3006 -1.9637
 1610SOL     OW 5445   6.754   7.140   2.842 -0.0057 -0.1455  0.9228
 1610SOL    HW1 5446   6.766   7.045   2.852 -0.0945 -0.6057 -2.2440
 1610SOL    HW2 5447   6.843   7.176   2.848  0.1870 -0.6102  0.8920
 1611SOL     OW 5448   0.416   0.611   6.282  0.4589 -0.3102  0.1878
 1611SOL    HW1 5449   0.440   0.650   6.198  3.1141 -0.7642  0.6625
 1611SOL    HW2 5450   0.486   0.548   6.301  0.1789  0.0685  2.9293
 1612SOL     OW 5451   0.448   5.376   6.924  0.6159  0.3441  0.6513
 1612SOL    HW1 5452   0.394   5.370   6.845  0.7331 -0.4301  0.6217
 1612SOL    HW2 5453   0.414   5.307   6.981  2.1897 -0.8294  0.2437
 1613SOL     OW 5454   6.764   5.957   0.263 -0.1372  0.1235  0.3197
 1613SOL    HW1 5455   6.767   6.042   0.307  1.3729  0.0788  0.3606
 1613SOL    HW2 5456   6.705   5.904   0.316  0.4938  0.5288  1.4635
 1614SOL     OW 5457   5.181   0.067   2.418 -0.4456  0.1558 -0.3575
 1614SOL    HW1 5458   5.171  -0.008   2.477 -0.7007  0.9031  0.5729
 1614SOL    HW2 5459   5.230   0.033   2.344 -2.1621 -1.4050 -0.8456
 1615SOL     OW 5460   1.607   0.516   2.615 -0.2140  0.0394  0.3215
 1615SOL    HW1 5461   1.581   0.428   2.586  1.3927 -0.4180  0.1458
 1615SOL    HW2 5462   1.583   0.519   2.707 -1.0157 -0.2889  0.1297
 1616SOL     OW 5463   0.600   3.843   1.162  0.0702 -0.2148  0.0692
 1616SOL    HW1 5464   0.622   3.792   1.084 -0.3946 -2.5161  1.3499
 1616SOL    HW2 5465   0.676   3.899   1.176  0.1044  0.3461 -2.0852
 1617SOL     OW 5466   2.607   5.881   2.896 -0.0581 -0.2918  0.0565
 1617SOL    HW1 5467   2.644   5.861   2.810 -0.0061  1.3305 -0.3380
 1617SOL    HW2 5468   2.512   5.872   2.883 -0.1131  0.8016 -0.4437
 1618SOL     OW 5469   5.379   2.113   2.779  0.3794  0.2478 -0.6389
 1618SOL    HW1 5470   5.343   2.161   2.704 -1.1542 -0.9966 -0.7446
 1618SOL    HW2 5471   5.430   2.178   2.827 -1.6057  1.9889 -0.7716
 1619SOL     OW 5472   4.679   3.613   6.261 -0.7447 -0.2114  0.6016
 1619SOL    HW1 5473   4.608   3.677   6.270  0.7172  1.3200  2.1559
 1619SOL    HW2 5474   4.682   3.570   6.347 -0.1865 -0.6612  0.3577
 1620SOL     OW 5475   3.771   5.556   5.168 -0.1265  0.1260  0.2277
 1620SOL    HW1 5476   3.780   5.540   5.074  0.8442 -0.7028  0.4455
 1620SOL    HW2 5477   3.717   5.483   5.199  0.2626 -0.0653  0.4524
 1621SOL     OW 5478   2.198   5.371   4.233 -0.1934 -0.0765  0.3717
 1621SOL    HW1 5479   2.130   5.349   4.169  1.1221  1.1469 -1.5550
 1621SOL    HW2 5480   2.264   5.303   4.220 -1.1654 -1.5645  2.5980
 1622SOL     OW 5481   3.284   5.866   6.412  0.4055  0.6323 -0.2458
 1622SOL    HW1 5482   3.351   5.855   6.479  0.7482  0.4939 -0.6068
 1622SOL    HW2 5483   3.255   5.777   6.392  0.7277  0.6236 -0.7010
 1623SOL     OW 5484   4.043   3.511   0.760 -0.5131  0.3808 -0.0346
 1623SOL    HW1 5485   4.116   3.449   0.768 -0.6993  0.2946  1.1409
 1623SOL    HW2 5486   4.076   3.592   0.799 -1.0563  0.3230  0.5634
 1624SOL     OW 5487   6.681   0.254   4.661 -0.4524  0.6878 -0.1280
 1624SOL    HW1 5488   6.725   0.271   4.578 -1.5740 -2.2499 -1.4762
 1624SOL    HW2 5489   6.621   0.328   4.672  2.8757  3.5585  0.5903
 1625SOL     OW 5490   6.672   3.803   3.096  0.2858  0.3782  0.1239
 1625SOL    HW1 5491   6.670   3.710   3.117  0.4722  0.4595  0.5100
 1625SOL    HW2 5492   6.655   3.807   3.002  2.1200 -0.1723 -0.2755
 1626SOL     OW 5493   3.545   7.235   6.623  0.1687 -0.7280  0.2348
 1626SOL    HW1 5494   3.606   7.232   6.697  0.0292 -0.6831  0.3515
 1626SOL    HW2 5495   3.477   7.296   6.651 -0.1506 -1.0960  0.2694
 1627SOL     OW 5496   3.947   4.736   4.225  0.2342  0.3435 -0.0708
 1627SOL    HW1 5497   4.019   4.782   4.181  0.0802  1.9485  1.2483
 1627SOL    HW2 5498   3.967   4.644   4.213  1.5091  0.7439 -1.3421
 1628SOL     OW 5499   1.587   3.362   3.349 -0.2178  0.0698 -0.0110
 1628SOL    HW1 5500   1.635   3.392   3.272 -2.3469 -0.8059 -1.7705
 1628SOL    HW2 5501   1.559   3.442   3.393  1.1042  0.5757 -0.0607
 1629SOL     OW 5502   6.141   3.112   4.871 -0.0540  0.2990  0.0194
 1629SOL    HW1 5503   6.116   3.099   4.962  0.2105 -0.3422  0.0032
 1629SOL    HW2 5504   6.223   3.161   4.875 -0.0998  0.3653  0.1262
 1630SOL     OW 5505   6.027   2.255   2.574 -0.2843  0.2519  0.8682
 1630SOL    HW1 5506   6.027   2.336   2.625 -1.1625  0.6664  0.2358
 1630SOL    HW2 5507   5.939   2.219   2.585  0.2497 -0.8904  1.5478
 1631SOL     OW 5508   6.604   2.030   3.814 -0.2163  0.0312 -0.0375
 1631SOL    HW1 5509   6.639   2.090   3.748 -0.4498  0.1463 -0.0596
 1631SOL    HW2 5510   6.535   2.081   3.858  0.5985  0.3028  0.9638
 1632SOL     OW 5511   4.793   1.478   5.730  0.1347  0.3926  0.8557
 1632SOL    HW1 5512   4.883   1.466   5.700  0.4217  1.9060  1.0562
 1632SOL    HW2 5513   4.739   1.447   5.657  0.7299 -2.6937  1.5849
 1633SOL     OW 5514   2.355   4.576   4.197 -0.1140 -0.8518 -0.1494
 1633SOL    HW1 5515   2.443   4.597   4.166  0.7584 -0.6859  2.2782
 1633SOL    HW2 5516   2.366   4.499   4.252 -1.1789  0.0970  1.4839
 1634SOL     OW 5517   2.379   4.319   3.936 -0.2461 -0.5604  0.2882
 1634SOL    HW1 5518   2.412   4.406   3.916  0.1043 -0.3248  1.7765
 1634SOL    HW2 5519   2.339   4.289   3.855 -1.0627  1.3070 -0.0467
 1635SOL     OW 5520   5.385   6.664   4.957  0.0025 -0.0698 -0.2472
 1635SOL    HW1 5521   5.332   6.732   4.999 -1.6689 -0.6288 -1.3307
 1635SOL    HW2 5522   5.410   6.606   5.028 -1.1695  0.0231  0.2561
 1636SOL     OW 5523   2.557   0.566   4.723 -0.0594 -0.0503 -0.4316
 1636SOL    HW1 5524   2.577   0.483   4.680 -0.1610  0.8446 -2.3505
 1636SOL    HW2 5525   2.631   0.623   4.702 -1.1148  1.0693 -1.2994
 1637SOL     OW 5526   4.791   2.231   3.882  0.4294 -0.0478  0.2552
 1637SOL    HW1 5527   4.803   2.145   3.842  1.5119  0.1143  0.2087
 1637SOL    HW2 5528   4.748   2.284   3.815  2.1186  0.1900 -0.6737
 1638SOL     OW 5529   6.344   3.301   2.668 -0.3468 -0.5531  0.0924
 1638SOL    HW1 5530   6.333   3.320   2.761  0.7823  0.0519  0.1193
 1638SOL    HW2 5531   6.431   3.334   2.647  0.3919 -2.7704 -0.6467
 1639SOL     OW 5532   3.798   3.388   0.824  0.0773  0.1389  0.1522
 1639SOL    HW1 5533   3.867   3.342   0.870  0.0908 -0.1408 -0.1445
 1639SOL    HW2 5534   3.841   3.464   0.785  0.5891 -0.9339 -1.4609
 1640SOL     OW 5535   5.012   3.083   3.555 -0.3587 -0.0747 -0.6258
 1640SOL    HW1 5536   5.039   3.174   3.539  0.1345 -0.7055 -3.9956
 1640SOL    HW2 5537   5.092   3.038   3.580 -0.7832  0.5131  2.1384
 1641SOL     OW 5538   4.439   4.644   5.478  0.3544 -0.0656 -0.5897
 1641SOL    HW1 5539   4.435   4.716   5.541 -0.0430 -1.1008  0.6143
 1641SOL    HW2 5540   4.348   4.618   5.466  0.6351 -2.1419  1.1772
 1642SOL     OW 5541   1.936   1.714   2.805 -0.4575 -0.5627 -0.0086
 1642SOL    HW1 5542   1.936   1.689   2.898  2.8110 -1.1460 -0.0560
 1642SOL    HW2 5543   1.844   1.714   2.780 -1.4538 -0.3714  3.2220
 1643SOL     OW 5544   3.097   5.299   1.866  0.3699 -0.0445  0.2080
 1643SOL    HW1 5545   3.007   5.294   1.898  1.5007  0.2876  3.9599
 1643SOL    HW2 5546   3.109   5.391   1.844  0.1604  0.2148  1.1198
 1644SOL     OW 5547   1.328   7.125   5.439 -0.0816  0.2003  0.0123
 1644SOL    HW1 5548   1.261   7.086   5.383 -0.9033  1.1883  0.2857
 1644SOL    HW2 5549   1.386   7.052   5.461 -1.0608 -0.6768 -0.2274
 1645SOL     OW 5550   3.796   2.210   1.104 -0.7873 -0.0510 -0.1198
 1645SOL    HW1 5551   3.829   2.288   1.147 -0.3868 -0.5099  0.4233
 1645SOL    HW2 5552   3.795   2.143   1.173  1.4798 -1.2769 -1.1631
 1646SOL     OW 5553   0.232   6.912   1.112  0.5740 -0.0901 -0.0015
 1646SOL    HW1 5554   0.304   6.884   1.169  0.6834  1.2293  0.5311
 1646SOL    HW2 5555   0.242   7.007   1.104 -0.6153  0.0086 -0.6105
 1647SOL     OW 5556   6.355   1.886   1.862 -0.1707 -0.1637 -0.3350
 1647SOL    HW1 5557   6.318   1.973   1.846  2.1161  1.1432  1.0359
 1647SOL    HW2 5558   6.446   1.892   1.835  0.9370 -1.0864  2.7614
 1648SOL     OW 5559   6.715   0.682   1.747 -0.4943  0.2123 -1.1787
 1648SOL    HW1 5560   6.723   0.669   1.653  0.7196  0.7118 -1.1518
 1648SOL    HW2 5561   6.743   0.772   1.762  0.0165 -0.0910 -0.2490
 1649SOL     OW 5562   6.150   1.761   0.735 -0.5716 -0.3731 -0.7711
 1649SOL    HW1 5563   6.212   1.784   0.805 -0.9457  0.6064 -0.7611
 1649SOL    HW2 5564   6.203   1.711   0.673 -0.3571 -1.7910  0.4710
 1650SOL     OW 5565   6.265   5.210   5.014 -0.2869 -0.0084  0.2855
 1650SOL    HW1 5566   6.358   5.222   5.035 -0.0369 -0.2180 -0.6339
 1650SOL    HW2 5567   6.224   5.184   5.097  0.5279 -0.1846  0.6410
 1651SOL     OW 5568   3.876   6.086   3.407  0.6864 -0.0866 -0.4279
 1651SOL    HW1 5569   3.920   6.016   3.358  1.5432 -0.1856  0.4410
 1651SOL    HW2 5570   3.933   6.162   3.398  1.0128 -0.1863  0.6326
 1652SOL     OW 5571   1.677   3.818   0.551  0.5580 -0.0643 -0.1420
 1652SOL    HW1 5572   1.702   3.840   0.461  1.9892 -0.6540  0.0821
 1652SOL    HW2 5573   1.660   3.724   0.549  0.7871 -0.1161  0.2515
 1653SOL     OW 5574   5.662   1.785   1.725  0.2687  0.0691 -0.0215
 1653SOL    HW1 5575   5.640   1.868   1.683  2.2614  0.9523  0.5377
 1653SOL    HW2 5576   5.651   1.719   1.657 -2.5926  0.5487 -0.1351
 1654SOL     OW 5577   1.522   6.315   5.182  0.4012 -0.2615  0.2204
 1654SOL    HW1 5578   1.556   6.244   5.236  0.1319 -0.2215  0.4464
 1654SOL    HW2 5579   1.568   6.307   5.099 -1.2851 -2.1514 -0.6152
 1655SOL     OW 5580   6.458   1.195   0.690  1.0688 -0.4614 -0.6097
 1655SOL    HW1 5581   6.476   1.202   0.783  0.6432  1.4445 -0.6312
 1655SOL    HW2 5582   6.545   1.197   0.648  1.2066  0.6210 -0.3191
 1656SOL     OW 5583   1.054   4.519   2.947 -0.5799 -0.0319 -0.6122
 1656SOL    HW1 5584   1.075   4.426   2.953  0.1008  0.1816  0.3781
 1656SOL    HW2 5585   1.015   4.541   3.031  0.3086  0.8321 -0.4028
 1657SOL     OW 5586   5.458   4.624   6.325 -0.0893  0.6107 -0.2257
 1657SOL    HW1 5587   5.412   4.652   6.404 -0.6144  1.5058 -0.8302
 1657SOL    HW2 5588   5.487   4.535   6.343 -3.7066 -0.7617 -0.5229
 1658SOL     OW 5589   0.876   0.554   1.144 -0.7383 -0.2521  0.4307
 1658SOL    HW1 5590   0.834   0.562   1.229 -0.7187 -0.7107  0.4849
 1658SOL    HW2 5591   0.900   0.461   1.137 -2.7795 -0.7588 -1.0090
 1659SOL     OW 5592   3.249   2.148   6.552  0.0791 -0.1494 -0.1713
 1659SOL    HW1 5593   3.344   2.148   6.564  0.0771 -0.9458 -0.0830
 1659SOL    HW2 5594   3.237   2.152   6.457  0.1840  0.4407 -0.1664
 1660SOL     OW 5595   5.310   1.826   1.773  0.4539  0.3927 -0.2720
 1660SOL    HW1 5596   5.345   1.789   1.691  2.5563 -1.7653  1.4694
 1660SOL    HW2 5597   5.215   1.819   1.763  0.6555 -2.9788 -1.2601
 1661SOL     OW 5598   2.649   2.974   0.241  0.1725 -0.2413 -0.0598
 1661SOL    HW1 5599   2.697   2.919   0.303 -0.9304 -1.0136  0.1469
 1661SOL    HW2 5600   2.631   2.917   0.167  1.7882  0.7773 -1.2952
 1662SOL     OW 5601   6.735   0.813   2.354  0.4834 -1.3654 -0.2587
 1662SOL    HW1 5602   6.725   0.875   2.281 -1.8368  0.7700  1.6898
 1662SOL    HW2 5603   6.688   0.735   2.326 -2.6573  0.3620 -0.1780
 1663SOL     OW 5604   6.782   5.917   3.115  0.2357 -0.9962  0.2151
 1663SOL    HW1 5605   6.834   5.972   3.175  0.8991 -1.0361 -0.3082
 1663SOL    HW2 5606   6.747   5.979   3.052 -0.7626 -0.9061  0.8379
 1664SOL     OW 5607   3.319   3.649   3.030  0.4163 -0.0207 -0.2812
 1664SOL    HW1 5608   3.265   3.653   3.109 -0.2487  0.5733 -0.7614
 1664SOL    HW2 5609   3.320   3.556   3.007 -1.7126  0.1207 -1.1579
 1665SOL     OW 5610   4.772   4.833   1.541 -0.2202  0.5523  0.5595
 1665SOL    HW1 5611   4.804   4.762   1.597 -2.1696 -1.4691 -0.7052
 1665SOL    HW2 5612   4.835   4.837   1.469  0.5962  1.0224  1.2866
 1666SOL     OW 5613   4.380   3.315   3.641  0.2771 -0.1078  0.8587
 1666SOL    HW1 5614   4.426   3.357   3.714  0.1292 -0.3140  1.0720
 1666SOL    HW2 5615   4.358   3.387   3.582 -0.3330  0.1687  1.4136
 1667SOL     OW 5616   2.876   6.458   7.003  0.5576  0.0792 -0.3333
 1667SOL    HW1 5617   2.870   6.509   6.922 -1.6195 -0.7803 -0.7954
 1667SOL    HW2 5618   2.924   6.379   6.978 -1.3460 -0.8676 -1.2556
 1668SOL     OW 5619   4.037   2.539   0.884  0.0467  0.6882  0.4329
 1668SOL    HW1 5620   3.998   2.600   0.946  0.1961  0.1121  1.1048
 1668SOL    HW2 5621   3.977   2.464   0.882  0.4092  0.3943  0.4252
 1669SOL     OW 5622   0.542   4.695   1.159  0.3702 -0.6981 -0.3849
 1669SOL    HW1 5623   0.464   4.699   1.103  0.4375 -1.0289 -0.5062
 1669SOL    HW2 5624   0.509   4.675   1.246  0.1675  0.8935 -0.0779
 1670SOL     OW 5625   3.581   4.568   1.743 -0.1779  0.4954  0.1089
 1670SOL    HW1 5626   3.664   4.551   1.786  1.0103  1.5187 -1.6665
 1670SOL    HW2 5627   3.580   4.510   1.667 -0.0853  1.9192 -1.0419
 1671SOL     OW 5628   1.067   6.849   6.328 -0.2174 -0.2330  0.0287
 1671SOL    HW1 5629   0.998   6.842   6.394 -1.3927 -0.5046 -1.1916
 1671SOL    HW2 5630   1.036   6.797   6.255  0.7434  0.6121 -1.0134
 1672SOL     OW 5631   5.000   4.749   3.731 -0.4323 -0.1382  0.1273
 1672SOL    HW1 5632   5.039   4.735   3.817  0.5783  0.5967 -0.1904
 1672SOL    HW2 5633   4.996   4.661   3.692 -0.8632 -0.4689  0.8972
 1673SOL     OW 5634   0.566   5.075   2.875 -0.0602  0.6933  0.0925
 1673SOL    HW1 5635   0.572   5.040   2.964 -0.4292  1.4685  0.4298
 1673SOL    HW2 5636   0.531   5.002   2.823 -0.8946  0.5674  0.8000
 1674SOL     OW 5637   0.986   6.274   3.088  0.4288 -0.1217 -0.3155
 1674SOL    HW1 5638   0.982   6.181   3.111  0.4660 -0.0816 -0.1438
 1674SOL    HW2 5639   0.902   6.310   3.119  0.7470  0.0638  0.3490
 1675SOL     OW 5640   1.765   2.449   5.046 -0.4641 -0.6728  0.0927
 1675SOL    HW1 5641   1.832   2.510   5.015 -1.0130 -0.4434 -0.6850
 1675SOL    HW2 5642   1.694   2.505   5.077 -0.2952 -0.9147  0.9274
 1676SOL     OW 5643   4.258   3.506   0.023 -0.7113 -0.5560 -0.4575
 1676SOL    HW1 5644   4.226   3.441   0.086  1.4631 -0.5524  0.7432
 1676SOL    HW2 5645   4.200   3.496  -0.053 -1.5672 -2.6358  0.3886
 1677SOL     OW 5646   0.963   6.059   1.581  0.4839  0.4622 -0.0141
 1677SOL    HW1 5647   1.013   5.999   1.637 -0.5306 -0.3035  0.1024
 1677SOL    HW2 5648   0.916   6.116   1.643 -0.6032 -0.3559 -0.0623
 1678SOL     OW 5649   0.436   0.447   3.097  0.1649 -0.5433 -0.0762
 1678SOL    HW1 5650   0.440   0.399   3.180  0.5566 -0.2486  0.0790
 1678SOL    HW2 5651   0.466   0.535   3.119 -1.0831 -0.0476 -0.2317
 1679SOL     OW 5652   3.679   4.042   2.374 -0.1891  0.1075 -0.4295
 1679SOL    HW1 5653   3.597   4.070   2.334  0.2400  0.8920 -0.7951
 1679SOL    HW2 5654   3.655   4.012   2.461 -1.2054 -1.9852 -1.3661
 1680SOL     OW 5655   3.013   4.145   4.937  0.0479  0.0739  0.1588
 1680SOL    HW1 5656   2.932   4.104   4.965  0.9603 -1.8998  0.0916
 1680SOL    HW2 5657   3.037   4.099   4.856  1.2547  0.5857  0.1939
 1681SOL     OW 5658   4.373   5.904   6.721  0.1990  0.4092 -0.2470
 1681SOL    HW1 5659   4.389   5.813   6.694 -0.5234  0.0753  0.4368
 1681SOL    HW2 5660   4.458   5.934   6.754  0.3917 -0.0853 -0.2765
 1682SOL     OW 5661   1.972   6.569   3.116  0.0625 -0.1028 -0.2108
 1682SOL    HW1 5662   1.996   6.658   3.142 -1.7147 -0.1654  1.8767
 1682SOL    HW2 5663   1.923   6.580   3.035  1.0851  0.6495 -0.7538
 1683SOL     OW 5664   2.985   4.546   1.768 -0.0149 -0.5165 -0.0316
 1683SOL    HW1 5665   2.908   4.603   1.772 -1.2619 -2.0300 -1.0499
 1683SOL    HW2 5666   3.058   4.605   1.750 -1.5114  0.6407 -3.0729
 1684SOL     OW 5667   7.115   4.422   2.464  0.2783  0.1301 -0.1378
 1684SOL    HW1 5668   7.033   4.414   2.417  0.5553  0.9520 -0.7906
 1684SOL    HW2 5669   7.111   4.355   2.532 -0.4980 -0.4891 -0.7854
 1685SOL     OW 5670   2.815   0.710   6.251 -0.9298  0.5071  0.0626
 1685SOL    HW1 5671   2.874   0.731   6.324 -2.8659  1.0362  1.5661
 1685SOL    HW2 5672   2.840   0.621   6.225 -0.1143  0.3435  1.3082
 1686SOL     OW 5673   1.886   0.751   0.818 -0.2762 -0.5227  0.8155
 1686SOL    HW1 5674   1.900   0.770   0.726 -0.8813  0.4590  0.9092
 1686SOL    HW2 5675   1.974   0.742   0.855 -0.0363 -1.6447  0.0208
 1687SOL     OW 5676   3.347   6.471   7.133  0.2723  0.3540 -0.3513
 1687SOL    HW1 5677   3.347   6.480   7.037 -1.3893 -0.3545 -0.4577
 1687SOL    HW2 5678   3.416   6.530   7.163 -1.1508  2.9573 -1.7880
 1688SOL     OW 5679   3.765   6.614   4.067  0.3351 -0.3005  0.1253
 1688SOL    HW1 5680   3.819   6.646   3.995 -0.7076  0.9046 -0.1550
 1688SOL    HW2 5681   3.720   6.538   4.032 -0.2681  0.3578 -0.5499
 1689SOL     OW 5682   2.779   6.709   2.581 -0.1905 -0.4544  0.3608
 1689SOL    HW1 5683   2.852   6.691   2.523  0.3040  0.4041  0.6956
 1689SOL    HW2 5684   2.705   6.724   2.523 -0.0117 -0.8974  0.0076
 1690SOL     OW 5685   0.436   1.451   0.902  0.0393  0.2488 -0.1319
 1690SOL    HW1 5686   0.527   1.477   0.887 -0.0580  1.0047  0.5496
 1690SOL    HW2 5687   0.394   1.459   0.816  0.4360  0.6417 -0.2915
 1691SOL     OW 5688   3.241   0.358   3.014 -0.2837 -0.2174 -0.1722
 1691SOL    HW1 5689   3.332   0.373   3.041 -0.4069  0.1109  0.0723
 1691SOL    HW2 5690   3.224   0.267   3.037 -0.4064  0.0684  0.9636
 1692SOL     OW 5691   2.315   1.423   6.440  0.3639 -0.8743  0.1513
 1692SOL    HW1 5692   2.272   1.478   6.375  2.0591  0.8534  0.3818
 1692SOL    HW2 5693   2.246   1.398   6.501 -0.5462  0.8093 -0.1384
 1693SOL     OW 5694   2.425   1.536   5.739 -0.7262 -0.1210 -0.4795
 1693SOL    HW1 5695   2.464   1.571   5.658 -0.6396  1.4080  0.1998
 1693SOL    HW2 5696   2.402   1.445   5.716 -0.5623  0.2207 -2.1694
 1694SOL     OW 5697   6.690   4.604   6.760  0.1039  0.3566 -0.1247
 1694SOL    HW1 5698   6.636   4.639   6.831 -1.3674  1.5169 -1.7355
 1694SOL    HW2 5699   6.693   4.510   6.776 -0.2593  0.5771  1.3993
 1695SOL     OW 5700   2.681   2.326   2.852  0.0218  0.2623  0.8162
 1695SOL    HW1 5701   2.743   2.398   2.840  1.4005 -1.0372 -0.1634
 1695SOL    HW2 5702   2.725   2.267   2.913  0.8001 -1.7056 -1.4651
 1696SOL     OW 5703   3.055   1.937   6.073  0.2726 -0.5207 -0.3441
 1696SOL    HW1 5704   3.045   1.847   6.044 -1.4702 -0.9398  1.3082
 1696SOL    HW2 5705   3.055   1.932   6.169  2.3091  1.0625 -0.1861
 1697SOL     OW 5706   6.177   0.439   2.224 -0.1406  0.7288 -0.2401
 1697SOL    HW1 5707   6.266   0.409   2.247 -0.4198 -1.8056 -2.1078
 1697SOL    HW2 5708   6.185   0.471   2.135 -1.1750 -0.0249 -0.6197
 1698SOL     OW 5709   6.316   6.392   1.997  0.0326  0.0846  0.2165
 1698SOL    HW1 5710   6.246   6.342   1.955  0.3031 -0.0890 -0.0307
 1698SOL    HW2 5711   6.362   6.435   1.925 -0.1512  0.6346  0.4209
 1699SOL     OW 5712   1.053   3.793   6.427  0.4800  0.2614  0.2283
 1699SOL    HW1 5713   0.979   3.853   6.435  0.1915 -0.1168  0.3948
 1699SOL    HW2 5714   1.061   3.777   6.333  1.5608  1.8048  0.0153
 1700SOL     OW 5715   5.731   3.724   5.888  0.4944  0.1451  0.5557
 1700SOL    HW1 5716   5.777   3.641   5.900  0.5158 -0.0911 -1.0029
 1700SOL    HW2 5717   5.799   3.786   5.864  0.5818  0.8121  2.3671
 1701SOL     OW 5718   0.354   3.244   1.988 -0.3635 -0.0687 -0.2559
 1701SOL    HW1 5719   0.273   3.197   1.970 -0.6660  0.4086 -0.1397
 1701SOL    HW2 5720   0.335   3.335   1.968  0.0288  0.1053  0.1360
 1702SOL     OW 5721   1.080   3.879   3.706 -0.3263  0.5226 -0.4329
 1702SOL    HW1 5722   1.146   3.918   3.765 -0.2585  1.6373 -1.2191
 1702SOL    HW2 5723   1.044   3.953   3.659 -2.3242 -0.0396  0.1243
 1703SOL     OW 5724   1.897   4.648   4.342 -0.4257 -0.0930 -0.1219
 1703SOL    HW1 5725   1.937   4.701   4.411  1.1036  0.6928 -1.5568
 1703SOL    HW2 5726   1.864   4.711   4.279 -0.0191 -0.8248 -1.0830
 1704SOL     OW 5727   4.042   2.490   4.446  0.8923 -0.4083 -0.8297
 1704SOL    HW1 5728   3.963   2.445   4.416 -0.0957 -0.3168  1.4598
 1704SOL    HW2 5729   4.011   2.569   4.489  2.1862 -0.5088  0.3726
 1705SOL     OW 5730   4.428   0.109   3.010 -0.9765 -0.8708 -0.0654
 1705SOL    HW1 5731   4.512   0.150   3.034 -1.9849  1.8413 -0.7864
 1705SOL    HW2 5732   4.405   0.150   2.927 -3.9998  0.1289  1.1078
 1706SOL     OW 5733   4.199   6.555   5.276  0.1060 -0.1110 -0.2331
 1706SOL    HW1 5734   4.120   6.504   5.290 -0.1689  0.3677 -0.0049
 1706SOL    HW2 5735   4.260   6.525   5.343 -0.8760  1.5052  1.4905
 1707SOL     OW 5736   2.444   0.424   4.214  0.6939 -0.4480  0.5270
 1707SOL    HW1 5737   2.376   0.491   4.206  1.4539  0.3148  0.2766
 1707SOL    HW2 5738   2.519   0.460   4.166  1.4144 -1.0715  1.1581
 1708SOL     OW 5739   0.491   3.573   3.146 -0.0594 -0.2108 -0.1169
 1708SOL    HW1 5740   0.506   3.589   3.053 -1.2652 -1.1631 -0.5062
 1708SOL    HW2 5741   0.398   3.552   3.152 -0.0396  0.0100  1.3389
 1709SOL     OW 5742   2.154   0.919   3.048  0.0808 -0.2404  0.0707
 1709SOL    HW1 5743   2.081   0.967   3.011  0.0924 -0.1138  0.2117
 1709SOL    HW2 5744   2.220   0.986   3.068 -0.7568  0.0071  2.3505
 1710SOL     OW 5745   1.500   1.287   3.860  0.5834  0.1086 -0.3959
 1710SOL    HW1 5746   1.483   1.342   3.937 -0.8871 -0.7274 -0.0744
 1710SOL    HW2 5747   1.593   1.266   3.865  0.5928  0.3879  0.9475
 1711SOL     OW 5748   3.676   5.996   2.092 -0.4790  0.3337  0.3012
 1711SOL    HW1 5749   3.715   6.083   2.102 -2.0935  1.3384 -1.5359
 1711SOL    HW2 5750   3.623   5.985   2.171 -1.5198  1.7542 -0.1505
 1712SOL     OW 5751   1.617   5.748   3.338  0.2824 -0.1661 -0.2913
 1712SOL    HW1 5752   1.628   5.653   3.333  0.3250 -0.2553  1.1879
 1712SOL    HW2 5753   1.657   5.773   3.421  1.0160  1.2696 -1.0432
 1713SOL     OW 5754   1.868   4.063   0.277  0.1186 -0.1186 -0.4097
 1713SOL    HW1 5755   1.859   3.978   0.320  2.2169  0.1794  0.7313
 1713SOL    HW2 5756   1.832   4.126   0.340  2.0655  0.1875  0.4670
 1714SOL     OW 5757   1.794   4.537   4.584  0.1731 -0.2957  0.3788
 1714SOL    HW1 5758   1.802   4.443   4.569 -1.5047 -0.2917 -0.7435
 1714SOL    HW2 5759   1.838   4.577   4.509  2.2628 -0.1206  1.6291
 1715SOL     OW 5760   0.019   1.106   4.243  0.2146  0.2432  0.8701
 1715SOL    HW1 5761   0.003   1.200   4.247 -1.1826 -0.0118  2.1696
 1715SOL    HW2 5762   0.082   1.089   4.313  0.9282  0.2771  0.2489
 1716SOL     OW 5763   0.835   2.582   2.376 -0.0880 -0.0105  0.2740
 1716SOL    HW1 5764   0.788   2.560   2.296 -1.1013  1.5888  0.3814
 1716SOL    HW2 5765   0.892   2.506   2.393  0.5717 -0.1432 -2.2276
 1717SOL     OW 5766   3.253   6.212   1.884 -0.2790  0.1952 -0.5105
 1717SOL    HW1 5767   3.343   6.196   1.858 -0.0549 -1.2774  1.0171
 1717SOL    HW2 5768   3.238   6.305   1.864  0.8880 -0.0090 -2.6395
 1718SOL     OW 5769   0.513   5.753   5.668  0.5466  0.0260  0.0779
 1718SOL    HW1 5770   0.498   5.662   5.644  0.6460  0.5239 -2.0648
 1718SOL    HW2 5771   0.606   5.757   5.690  0.6074 -0.3364 -0.1076
 1719SOL     OW 5772   2.898   2.809   1.774 -0.4433 -0.2581 -0.6308
 1719SOL    HW1 5773   2.942   2.886   1.738  0.0134 -0.5131 -0.6144
 1719SOL    HW2 5774   2.962   2.770   1.833 -1.5532  0.7935  1.3828
 1720SOL     OW 5775   6.483   2.920   2.128 -0.8390 -0.2365  0.3211
 1720SOL    HW1 5776   6.506   2.991   2.188  1.1507 -0.9500  0.4819
 1720SOL    HW2 5777   6.542   2.933   2.054 -0.4370 -1.7419  0.3664
 1721SOL     OW 5778   0.915   2.374   6.888  0.0793  0.3140  0.4212
 1721SOL    HW1 5779   0.911   2.287   6.929  0.3664 -0.8584 -1.8805
 1721SOL    HW2 5780   0.912   2.357   6.794 -1.4726  2.9148 -0.1113
 1722SOL     OW 5781   4.738   5.391   0.034 -0.6222  0.2930  0.3093
 1722SOL    HW1 5782   4.709   5.302   0.054  1.5573 -0.2016  1.5005
 1722SOL    HW2 5783   4.724   5.400  -0.060 -1.1183 -1.1965  0.2165
 1723SOL     OW 5784   3.888   1.903   6.140  0.2527 -0.1475  0.4913
 1723SOL    HW1 5785   3.852   1.854   6.214 -2.7076  0.1983 -0.5991
 1723SOL    HW2 5786   3.877   1.995   6.165  2.4460  0.0540  0.9821
 1724SOL     OW 5787   0.967   2.789   0.476 -0.7521 -0.0535  0.8251
 1724SOL    HW1 5788   0.942   2.719   0.535 -2.1130 -0.4698 -0.1925
 1724SOL    HW2 5789   0.919   2.866   0.508 -0.6700 -0.0239  0.8771
 1725SOL     OW 5790   7.067   4.474   2.842 -0.0011 -0.2544  0.4136
 1725SOL    HW1 5791   7.019   4.504   2.919 -0.5128 -0.2506  0.0992
 1725SOL    HW2 5792   7.041   4.534   2.772 -1.5651 -1.7844 -0.3898
 1726SOL     OW 5793   6.890   7.006   1.216  0.4217 -0.0915 -0.0471
 1726SOL    HW1 5794   6.897   7.045   1.304 -1.5052 -0.3398  0.2632
 1726SOL    HW2 5795   6.963   7.045   1.167  0.5437  1.3571  1.1825
 1727SOL     OW 5796   5.568   4.211   6.123  0.0676 -0.0712  0.0537
 1727SOL    HW1 5797   5.622   4.242   6.050 -1.2286 -0.1324 -0.9503
 1727SOL    HW2 5798   5.576   4.116   6.120 -1.2961 -0.1666 -1.0560
 1728SOL     OW 5799   3.436   4.882   4.576 -0.6373  0.1566 -0.0815
 1728SOL    HW1 5800   3.482   4.806   4.542 -2.0579 -0.6581 -0.2491
 1728SOL    HW2 5801   3.432   4.942   4.501  2.7019  1.5747  0.7018
 1729SOL     OW 5802   0.579   2.915   4.445  0.0289 -0.3636  0.1370
 1729SOL    HW1 5803   0.652   2.962   4.407  1.4933 -1.1338  1.8832
 1729SOL    HW2 5804   0.558   2.847   4.380 -0.8226  1.3608 -1.4848
 1730SOL     OW 5805   6.069   6.873   3.299 -0.0873 -0.0892 -0.5807
 1730SOL    HW1 5806   6.015   6.921   3.236  0.5039 -0.1460 -1.1458
 1730SOL    HW2 5807   6.147   6.847   3.249  0.7993  0.6049  0.3869
 1731SOL     OW 5808   5.025   6.421   4.742  0.2326 -0.1342  0.6318
 1731SOL    HW1 5809   5.110   6.465   4.749  0.6233 -0.6433 -0.6688
 1731SOL    HW2 5810   5.032   6.368   4.663 -1.7737  0.8812 -0.2969
 1732SOL     OW 5811   4.149   7.037   6.965 -0.1514  0.7023  0.3137
 1732SOL    HW1 5812   4.240   7.047   6.940 -0.8841 -2.1805 -5.1065
 1732SOL    HW2 5813   4.143   6.947   6.998 -0.9666  1.0607  1.1961
 1733SOL     OW 5814   6.201   2.518   2.121 -0.5017 -0.2840 -0.4692
 1733SOL    HW1 5815   6.148   2.466   2.181 -0.4942 -1.6762 -1.6119
 1733SOL    HW2 5816   6.166   2.607   2.129  0.3136 -0.1316  2.4449
 1734SOL     OW 5817   7.001   5.679   0.837 -0.1421  0.7228 -0.0011
 1734SOL    HW1 5818   7.017   5.747   0.902  1.6476 -0.0383  0.4101
 1734SOL    HW2 5819   6.974   5.603   0.888  2.4478 -0.2503  0.0586
 1735SOL     OW 5820   2.078   2.805   5.109  0.0374 -0.4291  0.1581
 1735SOL    HW1 5821   2.165   2.845   5.119 -0.1065 -0.3601  1.2763
 1735SOL    HW2 5822   2.033   2.861   5.047  0.0926  0.7490  1.1357
 1736SOL     OW 5823   3.683   7.225   6.865  0.2755 -0.6273  0.2417
 1736SOL    HW1 5824   3.759   7.174   6.891  0.0718 -1.1437 -0.1659
 1736SOL    HW2 5825   3.635   7.242   6.946 -0.1164 -1.8315  0.2760
 1737SOL     OW 5826   6.610   5.164   5.929 -0.5292 -0.1051 -0.3501
 1737SOL    HW1 5827   6.539   5.228   5.937  0.6138  1.4959 -1.9756
 1737SOL    HW2 5828   6.680   5.198   5.984  0.1505  0.1863 -1.3537
 1738SOL     OW 5829   7.028   1.958   2.302  0.0446  0.5011  0.0889
 1738SOL    HW1 5830   7.008   2.047   2.272  0.6667  0.5076 -0.3112
 1738SOL    HW2 5831   7.019   1.903   2.224  0.6969  0.3716  0.0999
 1739SOL     OW 5832   4.710   1.296   4.393  0.1136 -0.0231 -0.1850
 1739SOL    HW1 5833   4.783   1.248   4.353 -0.4825 -0.2141 -1.0846
 1739SOL    HW2 5834   4.639   1.232   4.394  0.5575 -0.6030  2.8163
 1740SOL     OW 5835   2.779   4.011   4.563  0.5590  0.3109 -0.7444
 1740SOL    HW1 5836   2.813   3.954   4.631  2.7805  2.3080 -0.0599
 1740SOL    HW2 5837   2.684   4.008   4.574  0.8214  0.2351  2.1776
 1741SOL     OW 5838   5.544   5.789   0.423 -0.1886  0.2096  0.3581
 1741SOL    HW1 5839   5.457   5.828   0.415  0.6218  1.9766 -0.4700
 1741SOL    HW2 5840   5.559   5.784   0.517 -0.7047  1.0421  0.4972
 1742SOL     OW 5841   2.266   3.749   2.331 -0.0281  0.2011 -0.1015
 1742SOL    HW1 5842   2.280   3.769   2.424  0.4508 -0.8291  0.0621
 1742SOL    HW2 5843   2.200   3.680   2.331 -0.1667  0.3322 -0.5363
 1743SOL     OW 5844   3.697   4.446   4.372 -0.1229 -0.5463 -0.2372
 1743SOL    HW1 5845   3.755   4.499   4.427  0.7108 -0.9426 -0.7223
 1743SOL    HW2 5846   3.655   4.386   4.434 -0.8271  0.4302  0.2698
 1744SOL     OW 5847   2.002   5.321   0.933  0.2133  0.1003  0.4799
 1744SOL    HW1 5848   1.940   5.250   0.949  0.7073 -0.2788  0.7296
 1744SOL    HW2 5849   2.055   5.291   0.860  0.1583  0.3910  0.3169
 1745SOL     OW 5850   5.768   6.638   5.116 -0.0655 -0.2219  0.3307
 1745SOL    HW1 5851   5.799   6.583   5.188  0.3464 -1.1033 -0.4916
 1745SOL    HW2 5852   5.848   6.662   5.068 -0.5313 -2.0846 -1.5078
 1746SOL     OW 5853   6.449   0.710   2.608 -0.0030  0.1382  0.0375
 1746SOL    HW1 5854   6.522   0.747   2.658  0.9585 -1.1183 -0.3773
 1746SOL    HW2 5855   6.382   0.778   2.610  1.1210  1.2796  0.5535
 1747SOL     OW 5856   6.375   6.304   1.523  0.4667 -0.9782  0.4728
 1747SOL    HW1 5857   6.290   6.268   1.548  1.0746 -3.3308 -0.5303
 1747SOL    HW2 5858   6.406   6.245   1.454  0.5217  2.8735 -3.1874
 1748SOL     OW 5859   3.078   6.512   4.003  0.3460 -0.2875 -0.8531
 1748SOL    HW1 5860   3.026   6.506   3.923 -0.0084 -0.5216 -0.6080
 1748SOL    HW2 5861   3.116   6.600   4.000 -2.9794  1.3886  0.7218
 1749SOL     OW 5862   4.244   5.098   0.835  0.3912 -0.2054 -0.5688
 1749SOL    HW1 5863   4.239   5.053   0.919 -0.3570 -0.2175 -0.6063
 1749SOL    HW2 5864   4.226   5.031   0.770  1.1176 -0.2255 -0.7498
 1750SOL     OW 5865   2.514   3.683   4.245  0.0119 -0.0359 -0.1165
 1750SOL    HW1 5866   2.572   3.741   4.295  0.8346 -0.1727 -0.8788
 1750SOL    HW2 5867   2.508   3.724   4.159 -0.5967 -0.3087 -0.2049
 1751SOL     OW 5868   6.104   3.200   6.905 -0.3095  0.3006 -0.0188
 1751SOL    HW1 5869   6.194   3.168   6.907 -0.2461  0.5218  1.1640
 1751SOL    HW2 5870   6.057   3.144   6.967 -0.6628  1.1348  0.4817
 1752SOL     OW 5871   6.615   3.637   4.398  0.0479  0.0760  0.1019
 1752SOL    HW1 5872   6.574   3.714   4.437  1.2249  0.8435 -0.1394
 1752SOL    HW2 5873   6.639   3.664   4.310 -2.8024 -1.7024 -1.3940
 1753SOL     OW 5874   5.799   1.787   6.046  0.3656 -0.0893 -0.7318
 1753SOL    HW1 5875   5.873   1.789   6.106 -0.8651 -0.7723  0.8858
 1753SOL    HW2 5876   5.806   1.702   6.002 -0.5928 -1.0976  0.9791
 1754SOL     OW 5877   4.156   1.282   1.936 -0.2343  0.1577  0.1929
 1754SOL    HW1 5878   4.210   1.246   2.006 -0.2439  0.8593  0.5655
 1754SOL    HW2 5879   4.153   1.376   1.953 -1.0661  0.2075 -0.1746
 1755SOL     OW 5880   6.217   6.699   6.817 -0.3669  0.6097 -0.2972
 1755SOL    HW1 5881   6.275   6.762   6.860 -1.3750  2.4009 -1.4280
 1755SOL    HW2 5882   6.137   6.700   6.869 -0.7275  0.9885 -0.8546
 1756SOL     OW 5883   2.072   0.523   5.074 -0.0463 -0.1184 -0.0120
 1756SOL    HW1 5884   2.147   0.517   5.015 -0.5806 -1.5961 -0.5718
 1756SOL    HW2 5885   2.111   0.548   5.158  0.6711  2.5019 -1.0123
 1757SOL     OW 5886   0.813   0.921   3.309 -0.1401 -0.2226  0.6433
 1757SOL    HW1 5887   0.781   0.984   3.244  0.8559 -0.6966 -0.3335
 1757SOL    HW2 5888   0.892   0.884   3.270 -0.6015 -1.9539  1.2826
 1758SOL     OW 5889   5.156   6.720   2.124  0.1288 -0.4453  0.3085
 1758SOL    HW1 5890   5.066   6.752   2.134  0.6786  1.4015 -0.2961
 1758SOL    HW2 5891   5.175   6.676   2.207 -1.5464 -1.4893  0.1847
 1759SOL     OW 5892   1.879   0.688   0.039  0.2681  0.4194 -0.2101
 1759SOL    HW1 5893   1.843   0.600   0.053 -0.1939  0.4404 -1.1379
 1759SOL    HW2 5894   1.831   0.721  -0.037 -0.2009  1.8371  0.6652
 1760SOL     OW 5895   5.179   6.309   5.364  0.3569  0.1998  0.1284
 1760SOL    HW1 5896   5.102   6.360   5.390 -0.4368 -0.7312 -0.3536
 1760SOL    HW2 5897   5.218   6.280   5.447 -0.3303 -0.0950  0.3470
 1761SOL     OW 5898   4.035   7.232   3.114  0.0817  0.4897 -0.4885
 1761SOL    HW1 5899   4.090   7.236   3.193 -0.5402  0.1752 -0.0345
 1761SOL    HW2 5900   4.031   7.323   3.084  0.9917  0.4938 -0.6332
 1762SOL     OW 5901   6.369   4.705   2.644  0.0035 -0.2649  0.3436
 1762SOL    HW1 5902   6.351   4.633   2.584 -0.2376 -0.8844  1.1436
 1762SOL    HW2 5903   6.464   4.714   2.643 -0.0583  0.6956 -1.2150
 1763SOL     OW 5904   6.316   1.494   2.253  0.4197 -0.3474 -0.0558
 1763SOL    HW1 5905   6.295   1.553   2.180  0.6473 -0.1548  0.0322
 1763SOL    HW2 5906   6.388   1.440   2.220 -0.8819 -1.7365 -0.7409
 1764SOL     OW 5907   3.110   2.905   6.481 -0.7753  0.4062  0.5760
 1764SOL    HW1 5908   3.157   2.827   6.451  0.0949  0.0885  2.6415
 1764SOL    HW2 5909   3.081   2.947   6.400  2.3816  0.1908 -0.8121
 1765SOL     OW 5910   1.698   0.714   0.327 -0.2824 -0.0714  0.0522
 1765SOL    HW1 5911   1.793   0.703   0.321 -0.1987 -0.0952  1.1813
 1765SOL    HW2 5912   1.662   0.642   0.276  0.3044  0.0675 -0.5654
 1766SOL     OW 5913   5.874   3.850   5.385 -0.2170  0.2757 -0.1468
 1766SOL    HW1 5914   5.856   3.823   5.475  0.9444  1.6347  0.5275
 1766SOL    HW2 5915   5.969   3.857   5.380 -0.1911 -0.8480 -1.8242
 1767SOL     OW 5916   0.994   0.702   4.879  0.5435  0.0668  0.4410
 1767SOL    HW1 5917   0.981   0.752   4.799  1.2057  1.5736  1.2238
 1767SOL    HW2 5918   1.033   0.619   4.850  0.6896  0.5443 -0.7889
 1768SOL     OW 5919   2.947   0.137   0.256 -0.8172 -0.0727 -0.0627
 1768SOL    HW1 5920   2.904   0.219   0.277  0.2104  0.8720 -1.4945
 1768SOL    HW2 5921   2.978   0.104   0.341 -2.1408  0.4598  0.6569
 1769SOL     OW 5922   5.088   1.867   2.739 -0.0734  0.6509 -0.3306
 1769SOL    HW1 5923   5.033   1.792   2.762  1.9897 -0.8481  0.0878
 1769SOL    HW2 5924   5.109   1.855   2.646 -1.0632  1.6703 -0.7098
 1770SOL     OW 5925   3.979   5.558   5.382  0.6928 -0.4068  0.4838
 1770SOL    HW1 5926   4.042   5.627   5.365 -0.2957  0.3333 -0.3454
 1770SOL    HW2 5927   3.902   5.582   5.330 -0.1796 -1.4149  1.2430
 1771SOL     OW 5928   1.812   4.933   6.365  0.0150  0.6053 -0.3265
 1771SOL    HW1 5929   1.875   4.967   6.301 -0.1051  2.8860  0.6549
 1771SOL    HW2 5930   1.736   4.908   6.313  0.5611  0.7524 -1.2276
 1772SOL     OW 5931   3.871   0.173   4.835 -0.4069  0.0763 -0.2349
 1772SOL    HW1 5932   3.888   0.161   4.929 -0.5317  0.1293 -0.2049
 1772SOL    HW2 5933   3.932   0.113   4.792  0.9675  1.3812 -0.2031
 1773SOL     OW 5934   3.496   2.191   7.126 -0.1735 -0.7523  0.0732
 1773SOL    HW1 5935   3.413   2.151   7.101 -0.5020  0.7047 -1.3205
 1773SOL    HW2 5936   3.492   2.279   7.091  1.6773 -0.3970  0.6303
 1774SOL     OW 5937   3.524   4.304   2.220  0.0780 -0.1522 -0.2370
 1774SOL    HW1 5938   3.442   4.351   2.229 -0.2657 -0.7328 -0.2566
 1774SOL    HW2 5939   3.498   4.213   2.207  0.6770 -0.1524 -1.6137
 1775SOL     OW 5940   2.842   5.463   6.457 -0.0266  0.1409  0.5599
 1775SOL    HW1 5941   2.840   5.465   6.361 -3.4222 -1.1058  0.4439
 1775SOL    HW2 5942   2.806   5.548   6.483 -1.4686 -0.4267  0.5592
 1776SOL     OW 5943   6.843   6.908   2.937  0.4724 -0.6555  0.7256
 1776SOL    HW1 5944   6.911   6.907   3.004 -1.8262  0.5801  3.2943
 1776SOL    HW2 5945   6.780   6.841   2.965 -2.2724  2.1621  2.0106
 1777SOL     OW 5946   6.768   6.955   6.887 -0.0747 -0.3775 -0.0715
 1777SOL    HW1 5947   6.777   6.866   6.921 -0.5071  0.4330  2.3602
 1777SOL    HW2 5948   6.780   6.946   6.792 -2.2922 -3.3365 -0.2145
 1778SOL     OW 5949   5.427   1.010   6.774  0.2588 -0.2029 -0.2709
 1778SOL    HW1 5950   5.340   0.983   6.804  0.1642 -0.9647 -1.1693
 1778SOL    HW2 5951   5.423   1.106   6.773  0.3707 -0.0952  2.3629
 1779SOL     OW 5952   7.245   5.582   3.220  0.0717 -0.3880  0.2601
 1779SOL    HW1 5953   7.207   5.517   3.279 -0.7811 -0.9839 -0.9078
 1779SOL    HW2 5954   7.179   5.650   3.212  0.8828  0.5520  1.3226
 1780SOL     OW 5955   3.177   2.489   1.069 -0.5914  0.3094  0.0907
 1780SOL    HW1 5956   3.085   2.485   1.095 -0.1155  0.8560  2.0086
 1780SOL    HW2 5957   3.226   2.475   1.150  1.0301  0.2525 -0.8444
 1781SOL     OW 5958   5.645   4.454   5.184  0.1342 -0.2027  0.2503
 1781SOL    HW1 5959   5.650   4.550   5.182 -2.6681  0.0363  0.3806
 1781SOL    HW2 5960   5.702   4.429   5.256  0.5873  1.3966  0.4990
 1782SOL     OW 5961   5.253   4.223   5.097  0.2553 -0.5455  0.3171
 1782SOL    HW1 5962   5.215   4.198   5.181 -2.4632  1.1892 -0.2517
 1782SOL    HW2 5963   5.284   4.313   5.111  2.1929 -1.1426  0.1132
 1783SOL     OW 5964   5.347   3.652   2.682  0.1902  0.8756 -0.3353
 1783SOL    HW1 5965   5.413   3.691   2.626  1.9586 -0.7428  0.4893
 1783SOL    HW2 5966   5.367   3.558   2.682 -1.1359  0.5327  1.1869
 1784SOL     OW 5967   1.732   4.892   0.757 -0.7561  0.1824 -0.2380
 1784SOL    HW1 5968   1.735   4.967   0.816  0.8851  1.7193 -2.1307
 1784SOL    HW2 5969   1.799   4.833   0.791  0.4773  1.2450 -0.7162
 1785SOL     OW 5970   6.789   0.081   0.949 -0.3142  0.1901 -0.1684
 1785SOL    HW1 5971   6.748   0.009   0.900 -1.8147  0.9998 -0.1609
 1785SOL    HW2 5972   6.718   0.142   0.965  1.1406  2.3388 -1.3299
 1786SOL     OW 5973   3.000   5.746   5.222  0.5734 -0.8182  0.2317
 1786SOL    HW1 5974   3.046   5.720   5.142  1.2746 -1.8528  0.9362
 1786SOL    HW2 5975   2.931   5.805   5.193  2.4531  0.9866 -0.8810
 1787SOL     OW 5976   6.258   6.203   0.922 -0.1413 -0.2342 -0.4396
 1787SOL    HW1 5977   6.324   6.271   0.909  0.0150 -0.6722 -2.1637
 1787SOL    HW2 5978   6.183   6.249   0.960  1.6773 -0.0287  3.2665
 1788SOL     OW 5979   6.330   1.185   4.951 -0.0961  0.1652 -0.1891
 1788SOL    HW1 5980   6.392   1.132   4.901 -0.2757 -0.4725  0.2462
 1788SOL    HW2 5981   6.258   1.202   4.890 -1.0942 -1.9851  0.2827
 1789SOL     OW 5982   3.185   4.400   6.059  0.1761  0.1187  0.2630
 1789SOL    HW1 5983   3.257   4.464   6.061 -0.4096  1.1573 -3.7152
 1789SOL    HW2 5984   3.110   4.449   6.027 -0.6120 -2.2146 -1.7936
 1790SOL     OW 5985   2.070   3.320   2.317 -0.0476 -0.0979  0.0892
 1790SOL    HW1 5986   2.100   3.326   2.226 -1.5765  0.6367 -0.4154
 1790SOL    HW2 5987   2.039   3.230   2.326  0.5787 -0.3225  0.0515
 1791SOL     OW 5988   2.998   6.480   0.295 -0.3953 -0.6227  0.1100
 1791SOL    HW1 5989   3.039   6.512   0.214  0.1554  0.5670  0.8244
 1791SOL    HW2 5990   2.956   6.398   0.270 -0.9372  0.1125 -1.5822
 1792SOL     OW 5991   3.952   3.851   3.806 -0.2794  0.6483  0.2774
 1792SOL    HW1 5992   3.890   3.843   3.733  0.3764 -1.2775 -0.1073
 1792SOL    HW2 5993   3.924   3.784   3.868  2.0764 -1.1380 -0.4474
 1793SOL     OW 5994   3.772   7.251   4.078 -0.3167  0.1490 -0.4841
 1793SOL    HW1 5995   3.730   7.200   4.148 -0.3333 -0.3150 -0.8298
 1793SOL    HW2 5996   3.699   7.288   4.028 -0.3608 -1.6377 -1.8092
 1794SOL     OW 5997   2.752   5.013   3.701  0.4764 -0.3304 -0.0930
 1794SOL    HW1 5998   2.840   4.989   3.670 -0.0288 -1.4005 -0.7667
 1794SOL    HW2 5999   2.751   5.108   3.698  2.2614 -0.1897  1.7635
 1795SOL     OW 6000   0.753   2.155   1.303 -0.2340 -0.0725 -0.5092
 1795SOL    HW1 6001   0.697   2.079   1.288  0.3360 -0.7931  0.8046
 1795SOL    HW2 6002   0.826   2.143   1.243  0.1254 -0.8847  0.0574
 1796SOL     OW 6003   5.256   0.272   6.259  0.2736 -0.0647  0.1346
 1796SOL    HW1 6004   5.266   0.296   6.351 -0.0592 -0.2420  0.2193
 1796SOL    HW2 6005   5.179   0.215   6.257 -0.0540  0.3792 -0.3295
 1797SOL     OW 6006   6.424   0.257   5.710 -0.0290  0.6372 -0.2110
 1797SOL    HW1 6007   6.332   0.234   5.723  0.3097 -0.1260  0.9871
 1797SOL    HW2 6008   6.449   0.210   5.630 -0.1287 -0.9613  0.6406
 1798SOL     OW 6009   4.658   1.073   2.572  0.2007  0.2585 -0.0496
 1798SOL    HW1 6010   4.612   1.068   2.655 -1.8739 -1.1603 -1.1784
 1798SOL    HW2 6011   4.598   1.120   2.514  0.3532 -1.1708 -1.4396
 1799SOL     OW 6012   0.236   5.641   4.155  0.2344 -0.4048  0.7722
 1799SOL    HW1 6013   0.184   5.720   4.166  0.9942  0.4458 -1.2650
 1799SOL    HW2 6014   0.326   5.670   4.169  0.6653 -0.5211 -1.4819
 1800SOL     OW 6015   2.241   6.734   3.459 -0.0626 -0.0574  0.0841
 1800SOL    HW1 6016   2.149   6.761   3.463 -0.4342 -1.3673  0.8403
 1800SOL    HW2 6017   2.278   6.784   3.385 -1.2933  0.7062 -0.0344
 1801SOL     OW 6018   1.623   1.353   0.468 -0.5204 -0.1304  0.9005
 1801SOL    HW1 6019   1.583   1.287   0.524  2.3591 -0.1993  3.1494
 1801SOL    HW2 6020   1.691   1.307   0.419 -3.0157 -0.0939 -3.0399
 1802SOL     OW 6021   2.111   5.809   1.664 -0.0179 -0.0482  0.0985
 1802SOL    HW1 6022   2.190   5.861   1.646 -0.3635  0.4392 -0.0311
 1802SOL    HW2 6023   2.042   5.874   1.677 -0.7942 -0.4621 -1.5923
 1803SOL     OW 6024   0.805   1.791   5.795  0.4162 -0.8020 -0.1421
 1803SOL    HW1 6025   0.723   1.835   5.772  1.4444  0.7738 -0.9091
 1803SOL    HW2 6026   0.828   1.741   5.716  0.8208 -0.2765 -0.3532
 1804SOL     OW 6027   4.499   5.098   4.419  0.6547  0.3899  0.4499
 1804SOL    HW1 6028   4.584   5.108   4.461 -0.0064  1.0506  1.6906
 1804SOL    HW2 6029   4.447   5.171   4.452 -0.5628 -0.3129  0.1579
 1805SOL     OW 6030   5.422   2.865   4.970  0.1136 -0.3711 -0.5411
 1805SOL    HW1 6031   5.457   2.780   4.996 -3.1139 -2.3850 -2.0831
 1805SOL    HW2 6032   5.442   2.870   4.876 -1.8175 -0.7084 -1.0223
 1806SOL     OW 6033   4.249   2.492   0.187 -1.2095 -0.2002  0.6305
 1806SOL    HW1 6034   4.265   2.478   0.093 -1.7727  0.1332  0.4808
 1806SOL    HW2 6035   4.227   2.405   0.220 -0.4940 -0.4165  0.5682
 1807SOL     OW 6036   3.208   2.175   2.320 -0.1875  0.1971 -0.0304
 1807SOL    HW1 6037   3.174   2.135   2.400  0.2846 -0.6300 -0.2248
 1807SOL    HW2 6038   3.291   2.215   2.347  0.6410 -1.2173 -0.3354
 1808SOL     OW 6039   3.742   3.078   1.798 -0.1012 -0.1018  0.0539
 1808SOL    HW1 6040   3.676   3.098   1.732  2.0742  3.0549 -1.3762
 1808SOL    HW2 6041   3.799   3.014   1.756 -0.6563 -0.7637  0.2756
 1809SOL     OW 6042   6.281   0.578   3.624 -0.0344 -0.2458  0.2616
 1809SOL    HW1 6043   6.292   0.627   3.706 -0.0724 -0.7774  0.5874
 1809SOL    HW2 6044   6.270   0.646   3.557 -0.0755  0.1917  0.7066
 1810SOL     OW 6045   4.440   5.615   6.196  0.4445  0.2014 -0.0148
 1810SOL    HW1 6046   4.361   5.589   6.244  0.7134 -2.1317 -0.7074
 1810SOL    HW2 6047   4.511   5.565   6.236  0.4035 -3.5302 -3.8239
 1811SOL     OW 6048   1.593   6.478   1.386  0.3523 -0.5950 -0.0600
 1811SOL    HW1 6049   1.526   6.418   1.420 -1.8345  0.1493 -2.7257
 1811SOL    HW2 6050   1.643   6.424   1.323 -0.1459 -0.2348 -0.7756
 1812SOL     OW 6051   2.490   0.799   3.262 -0.0017 -0.0207 -0.2976
 1812SOL    HW1 6052   2.572   0.773   3.304 -0.1449  1.6552  1.1603
 1812SOL    HW2 6053   2.421   0.757   3.313 -0.1294  0.9393  0.3494
 1813SOL     OW 6054   0.602   1.761   0.194 -0.6949  0.3080  0.0562
 1813SOL    HW1 6055   0.536   1.721   0.251  0.8710  0.8153  2.3538
 1813SOL    HW2 6056   0.578   1.732   0.106 -2.5993 -1.4287  1.0556
 1814SOL     OW 6057   1.284   5.420   5.197 -0.1328  0.3364 -0.0315
 1814SOL    HW1 6058   1.202   5.377   5.173  0.2943 -0.5437  0.0337
 1814SOL    HW2 6059   1.303   5.479   5.124  0.9682 -2.0262 -1.7957
 1815SOL     OW 6060   5.079   4.558   6.962  0.1909 -0.3951 -0.0332
 1815SOL    HW1 6061   5.078   4.468   6.994  0.5145 -0.7942 -1.1362
 1815SOL    HW2 6062   5.068   4.611   7.042 -0.0885 -1.3969  0.6144
 1816SOL     OW 6063   1.184   2.473   1.524  0.4343 -0.3984  0.4982
 1816SOL    HW1 6064   1.279   2.460   1.521  0.4606 -0.2216  0.5346
 1816SOL    HW2 6065   1.147   2.391   1.494  0.6153 -0.1487 -0.4355
 1817SOL     OW 6066   0.598   2.083   2.062 -0.0247  0.5857 -0.0554
 1817SOL    HW1 6067   0.625   2.134   1.986  1.0718 -0.9393 -0.7265
 1817SOL    HW2 6068   0.570   1.999   2.026 -0.9643  0.3644  1.1084
 1818SOL     OW 6069   4.492   2.369   4.078  0.2228  0.0286 -0.2942
 1818SOL    HW1 6070   4.550   2.362   4.003 -0.6612  0.1362 -1.0062
 1818SOL    HW2 6071   4.411   2.407   4.043 -1.1828 -2.3607  0.1514
 1819SOL     OW 6072   0.194   7.223   3.889  0.3502  0.2799  0.1534
 1819SOL    HW1 6073   0.176   7.311   3.858  2.4090  0.8900  0.5176
 1819SOL    HW2 6074   0.184   7.228   3.984 -0.4691 -0.1411  0.0968
 1820SOL     OW 6075   6.495   2.558   1.752 -0.4083  0.6895  0.5043
 1820SOL    HW1 6076   6.475   2.645   1.786 -0.1221  0.8373  0.3049
 1820SOL    HW2 6077   6.410   2.522   1.725 -0.7468  0.2518  2.0772
 1821SOL     OW 6078   1.013   6.838   1.819 -0.1890 -0.4959 -0.3121
 1821SOL    HW1 6079   1.069   6.775   1.865 -2.2723 -2.3766 -0.1889
 1821SOL    HW2 6080   1.070   6.876   1.752  1.1620 -2.4999 -0.3818
 1822SOL     OW 6081   4.867   6.934   5.979 -0.1084 -0.2755  0.0805
 1822SOL    HW1 6082   4.889   6.889   6.060 -0.0924 -0.9079 -0.2712
 1822SOL    HW2 6083   4.950   6.970   5.948 -0.0541 -0.3368  0.1573
 1823SOL     OW 6084   0.521   0.918   4.061  0.2692  0.2725  0.3792
 1823SOL    HW1 6085   0.496   0.892   4.149  0.8575 -2.1037 -0.0893
 1823SOL    HW2 6086   0.561   1.005   4.072 -2.2735  1.3518  1.9671
 1824SOL     OW 6087   7.036   2.198   4.266  0.1143 -0.6835 -0.1552
 1824SOL    HW1 6088   7.068   2.136   4.200 -1.1557 -1.5514  0.0197
 1824SOL    HW2 6089   6.949   2.166   4.289 -1.4975  2.2960 -1.5548
 1825SOL     OW 6090   1.680   2.663   4.311  0.1376 -0.1197  0.2430
 1825SOL    HW1 6091   1.758   2.618   4.345 -1.3618 -2.7974  0.4413
 1825SOL    HW2 6092   1.607   2.611   4.343 -1.6309  0.8268 -1.9827
 1826SOL     OW 6093   3.536   2.712   5.676 -0.4523 -0.2963 -0.0326
 1826SOL    HW1 6094   3.504   2.791   5.719 -1.2547 -0.4756 -0.2807
 1826SOL    HW2 6095   3.503   2.717   5.587 -0.8861 -1.1049  0.0641
 1827SOL     OW 6096   6.131   1.536   6.243  0.6853 -0.3848 -0.5490
 1827SOL    HW1 6097   6.149   1.522   6.150  0.0460 -1.0831 -0.5730
 1827SOL    HW2 6098   6.206   1.498   6.288  0.8579 -0.3075 -0.7704
 1828SOL     OW 6099   5.631   1.032   4.979 -0.1057 -0.1110  0.0078
 1828SOL    HW1 6100   5.687   0.980   4.921  0.0564  1.3056 -1.1673
 1828SOL    HW2 6101   5.541   1.010   4.951 -0.1312 -1.1825  0.8330
 1829SOL     OW 6102   2.009   5.315   4.052 -0.4591 -0.2067  0.0711
 1829SOL    HW1 6103   1.988   5.233   4.097 -3.0700  1.4877  2.2132
 1829SOL    HW2 6104   1.933   5.332   3.996  0.2215  0.5848 -0.6443
 1830SOL     OW 6105   0.844   5.847   4.199 -0.4592  0.4227  0.0873
 1830SOL    HW1 6106   0.888   5.849   4.114  0.0725  0.0359  0.3533
 1830SOL    HW2 6107   0.866   5.762   4.236  0.8747  1.3199  1.4431
 1831SOL     OW 6108   0.964   7.130   0.135  0.3505  0.1345  0.4336
 1831SOL    HW1 6109   0.999   7.114   0.047  2.0431 -0.8886  1.2352
 1831SOL    HW2 6110   0.920   7.049   0.159 -0.7514  0.6644  0.2822
 1832SOL     OW 6111   1.704   1.440   3.048  0.3505  0.4030  0.2808
 1832SOL    HW1 6112   1.693   1.403   3.136 -0.0638 -0.4327 -0.1107
 1832SOL    HW2 6113   1.787   1.404   3.017  0.3851  0.5181  0.2395
 1833SOL     OW 6114   6.726   5.964   3.547  0.1766 -0.2393 -0.2575
 1833SOL    HW1 6115   6.819   5.989   3.538 -0.1509  1.5409  0.7008
 1833SOL    HW2 6116   6.680   6.026   3.491 -0.5706  0.4127  1.0180
 1834SOL     OW 6117   4.623   4.600   7.211 -0.3231 -0.7411  0.2898
 1834SOL    HW1 6118   4.534   4.599   7.175  0.0282 -0.8023 -0.5816
 1834SOL    HW2 6119   4.657   4.686   7.190 -0.2707 -0.6183  0.8696
 1835SOL     OW 6120   6.829   1.286   3.145 -0.2842 -0.0218  0.1166
 1835SOL    HW1 6121   6.809   1.194   3.131  0.6903  0.1367 -3.1131
 1835SOL    HW2 6122   6.744   1.330   3.139 -0.8431 -0.6853  2.3218
 1836SOL     OW 6123   0.560   0.523   0.301 -0.3626 -0.2709 -0.3860
 1836SOL    HW1 6124   0.630   0.569   0.347  2.0716 -2.3247 -1.7857
 1836SOL    HW2 6125   0.559   0.561   0.213 -0.3709 -0.8611 -0.6481
 1837SOL     OW 6126   5.025   3.035   1.657 -0.5434  0.3533  0.0702
 1837SOL    HW1 6127   4.935   3.058   1.679 -0.1406  0.8761  1.2570
 1837SOL    HW2 6128   5.062   3.115   1.619 -0.2640  0.4988  0.6326
 1838SOL     OW 6129   5.826   4.237   2.549 -0.2414  0.7858  0.4991
 1838SOL    HW1 6130   5.884   4.161   2.541 -1.3778 -0.0042 -0.5958
 1838SOL    HW2 6131   5.752   4.204   2.600 -0.8755  1.0783 -0.2348
 1839SOL     OW 6132   5.329   5.189   3.952 -0.3502 -0.0839 -0.0765
 1839SOL    HW1 6133   5.327   5.266   3.896 -0.2770  1.2799  1.7023
 1839SOL    HW2 6134   5.269   5.210   4.024  0.6163 -1.1388  1.0972
 1840SOL     OW 6135   2.638   5.228   4.541  0.1439  0.8211  0.4896
 1840SOL    HW1 6136   2.733   5.218   4.536  0.0830 -1.2237  1.8416
 1840SOL    HW2 6137   2.603   5.158   4.486 -0.5247  0.1553  1.7070
 1841SOL     OW 6138   0.577   5.500   2.662  0.3797  0.1024  0.3492
 1841SOL    HW1 6139   0.628   5.438   2.714  1.4484  0.0864 -0.6931
 1841SOL    HW2 6140   0.605   5.485   2.572  1.5325  2.8618  0.1590
 1842SOL     OW 6141   4.047   6.998   6.434  0.1307 -0.0331 -0.6473
 1842SOL    HW1 6142   4.075   7.037   6.517 -0.6030 -1.1135  0.1433
 1842SOL    HW2 6143   4.043   7.071   6.373 -0.5939  1.0325  0.6119
 1843SOL     OW 6144   5.060   2.103   2.852 -0.0758 -0.7210 -0.2395
 1843SOL    HW1 6145   5.144   2.148   2.851 -0.1343 -0.4292  2.2195
 1843SOL    HW2 6146   5.074   2.024   2.800  1.5117 -0.3412 -0.4217
 1844SOL     OW 6147   4.300   2.115   5.140  0.1575 -0.0405  0.0585
 1844SOL    HW1 6148   4.241   2.189   5.153 -0.6550 -0.4738 -0.9602
 1844SOL    HW2 6149   4.324   2.120   5.047 -1.9582 -2.4421 -0.7416
 1845SOL     OW 6150   2.047   5.704   3.857 -0.1120 -0.7832 -0.0693
 1845SOL    HW1 6151   2.028   5.783   3.907  0.1425 -0.2361 -0.8153
 1845SOL    HW2 6152   2.006   5.633   3.907  2.4028 -0.6879  2.3748
 1846SOL     OW 6153   4.752   7.012   3.430 -0.0601  0.4502  0.4232
 1846SOL    HW1 6154   4.818   7.027   3.362 -0.0755 -0.7825  0.1167
 1846SOL    HW2 6155   4.760   7.088   3.488  1.9408  0.1352  0.6406
 1847SOL     OW 6156   0.315   7.162   1.698  0.5358 -0.0210  0.2833
 1847SOL    HW1 6157   0.402   7.193   1.672  1.0019 -2.5042 -1.4100
 1847SOL    HW2 6158   0.331   7.103   1.771  0.4616 -1.3385 -0.7231
 1848SOL     OW 6159   3.553   6.686   6.804 -0.1219 -0.2866  0.2197
 1848SOL    HW1 6160   3.564   6.738   6.724  0.7414 -0.1921  0.3831
 1848SOL    HW2 6161   3.460   6.692   6.824 -0.1938  0.4315 -0.2790
 1849SOL     OW 6162   1.408   3.762   4.101  0.0277 -0.3428  0.1993
 1849SOL    HW1 6163   1.373   3.712   4.028  0.6582  0.4056 -0.6437
 1849SOL    HW2 6164   1.503   3.749   4.096  0.2676  1.3173 -0.3774
 1850SOL     OW 6165   6.633   0.863   5.251  0.2613 -0.0022  0.1079
 1850SOL    HW1 6166   6.546   0.863   5.213  0.1766 -0.5260  0.2913
 1850SOL    HW2 6167   6.644   0.951   5.288 -0.3261 -0.0472  0.3921
 1851SOL     OW 6168   3.135   3.518   2.475  0.6706  0.0393  0.0921
 1851SOL    HW1 6169   3.163   3.569   2.399 -0.7262 -1.0008 -1.1800
 1851SOL    HW2 6170   3.150   3.427   2.448 -0.5138 -0.3700  0.7752
 1852SOL     OW 6171   1.750   1.231   3.901 -0.3714 -0.1593 -0.1636
 1852SOL    HW1 6172   1.817   1.224   3.832 -1.2750 -0.9041 -0.9996
 1852SOL    HW2 6173   1.798   1.217   3.982  0.5293 -0.4962 -0.7307
 1853SOL     OW 6174   3.690   4.638   0.427 -0.4991 -0.5051 -0.4246
 1853SOL    HW1 6175   3.626   4.571   0.448 -0.4941 -0.0661  1.0529
 1853SOL    HW2 6176   3.705   4.684   0.509 -0.4662  1.2810 -1.3830
 1854SOL     OW 6177   5.333   3.525   6.319 -0.8084 -0.2565  0.3685
 1854SOL    HW1 6178   5.301   3.517   6.409  1.5196  0.7353  1.3759
 1854SOL    HW2 6179   5.361   3.616   6.311 -0.4877 -0.4613 -1.2039
 1855SOL     OW 6180   3.726   3.204   7.050 -0.1068 -0.0858 -0.4873
 1855SOL    HW1 6181   3.763   3.278   7.098  2.1091 -0.1273 -1.9881
 1855SOL    HW2 6182   3.642   3.237   7.016  1.1812  2.0503 -1.7997
 1856SOL     OW 6183   4.733   2.563   3.447 -0.3267 -0.6843 -0.4026
 1856SOL    HW1 6184   4.760   2.617   3.521  1.2219 -2.2622  0.2663
 1856SOL    HW2 6185   4.759   2.613   3.370  1.9626 -0.8190  0.1969
 1857SOL     OW 6186   5.772   0.452   5.699 -0.5019  0.2619 -0.1050
 1857SOL    HW1 6187   5.778   0.358   5.686 -3.7010 -0.2499  1.1680
 1857SOL    HW2 6188   5.785   0.465   5.793  0.6517  1.2079 -0.3730
 1858SOL     OW 6189   3.000   4.462   6.445  0.2149 -0.0440 -0.1595
 1858SOL    HW1 6190   3.034   4.498   6.527 -0.2976 -0.8588  0.4263
 1858SOL    HW2 6191   3.078   4.436   6.396  0.5047 -0.5514  0.5461
 1859SOL     OW 6192   3.062   6.161   2.172 -0.2589  0.3385 -0.2338
 1859SOL    HW1 6193   2.995   6.133   2.234  0.7651 -0.0580  0.7170
 1859SOL    HW2 6194   3.037   6.119   2.089 -0.3493 -1.0361  0.4749
 1860SOL     OW 6195   0.542   2.172   4.596 -0.1781  0.3537 -0.0598
 1860SOL    HW1 6196   0.471   2.139   4.650 -1.4102  2.9025  0.0245
 1860SOL    HW2 6197   0.611   2.195   4.658 -0.8793  1.5925  0.2796
 1861SOL     OW 6198   4.751   3.299   0.193 -0.4067 -0.3021  0.2651
 1861SOL    HW1 6199   4.771   3.333   0.106 -0.3174 -0.3864  0.2522
 1861SOL    HW2 6200   4.656   3.301   0.198 -0.4038 -0.0821  0.2523
 1862SOL     OW 6201   2.326   4.283   1.445  0.3716  0.1195  0.0094
 1862SOL    HW1 6202   2.390   4.280   1.374 -0.6774  0.3175 -0.9910
 1862SOL    HW2 6203   2.377   4.276   1.525  1.5112 -1.2777 -0.7906
 1863SOL     OW 6204   1.052   2.097   5.114  0.6004 -0.7321  0.7549
 1863SOL    HW1 6205   1.075   2.180   5.072 -0.6092 -0.6922  0.1348
 1863SOL    HW2 6206   0.969   2.114   5.158 -0.7846 -2.1028 -1.1005
 1864SOL     OW 6207   1.404   3.982   4.569  0.3402  0.8267  0.3556
 1864SOL    HW1 6208   1.393   3.999   4.476 -0.4880  0.3111  0.3553
 1864SOL    HW2 6209   1.499   3.971   4.580  0.2798 -1.2564 -0.8133
 1865SOL     OW 6210   3.769   2.794   3.456  0.0924 -0.0593  0.0845
 1865SOL    HW1 6211   3.832   2.755   3.516  1.2725 -1.3817 -1.9041
 1865SOL    HW2 6212   3.791   2.888   3.457  0.1595 -0.0567  1.5493
 1866SOL     OW 6213   4.768   4.924   4.086  0.4546 -0.3893  0.4353
 1866SOL    HW1 6214   4.816   4.841   4.092  2.7122  0.7621 -0.3926
 1866SOL    HW2 6215   4.683   4.901   4.048  2.0641 -2.0123 -2.5405
 1867SOL     OW 6216   6.204   7.236   4.045 -0.5675 -0.2548 -0.1211
 1867SOL    HW1 6217   6.121   7.278   4.066 -0.6969 -0.5791  0.0202
 1867SOL    HW2 6218   6.270   7.303   4.063 -0.7742 -0.1004  0.0679
 1868SOL     OW 6219   6.256   6.393   6.002 -0.2211 -0.2518 -0.3842
 1868SOL    HW1 6220   6.315   6.453   5.957 -1.0036  0.1579 -0.8679
 1868SOL    HW2 6221   6.253   6.316   5.946  0.1912 -0.4535 -0.1370
 1869SOL     OW 6222   0.313   5.007   5.560  0.0828  0.1710  0.3648
 1869SOL    HW1 6223   0.283   4.943   5.496  0.3987  1.3917 -1.0697
 1869SOL    HW2 6224   0.409   5.003   5.554  0.1104  0.4335  0.6147
 1870SOL     OW 6225   2.829   1.981   1.110 -0.4623  0.2305  0.6073
 1870SOL    HW1 6226   2.811   2.030   1.190 -3.1561  0.3210  0.0555
 1870SOL    HW2 6227   2.748   1.933   1.093  0.1834 -0.1382 -1.8210
 1871SOL     OW 6228   6.738   2.387   7.224 -0.2188 -0.0518  0.2567
 1871SOL    HW1 6229   6.782   2.426   7.299 -1.6774  1.0900  0.5599
 1871SOL    HW2 6230   6.774   2.298   7.219  1.6949  0.6389  0.7899
 1872SOL     OW 6231   5.231   1.794   0.321  0.2195 -0.0228  0.4933
 1872SOL    HW1 6232   5.218   1.872   0.266 -2.2145 -0.4895  0.2862
 1872SOL    HW2 6233   5.189   1.723   0.272  0.9058 -1.1331  1.4679
 1873SOL     OW 6234   4.393   3.907   0.162 -0.5946 -0.0264  0.6787
 1873SOL    HW1 6235   4.398   4.002   0.170 -2.5013  0.0171  1.9269
 1873SOL    HW2 6236   4.387   3.876   0.252  1.7123 -1.5108  0.4119
 1874SOL     OW 6237   1.433   4.509   3.718  0.3175  0.5389 -0.1624
 1874SOL    HW1 6238   1.436   4.531   3.625  1.7512 -3.1723 -1.1820
 1874SOL    HW2 6239   1.344   4.478   3.733  0.6719 -0.9251 -0.9293
 1875SOL     OW 6240   5.320   4.647   5.706  0.4927 -0.7805 -0.1992
 1875SOL    HW1 6241   5.239   4.595   5.706  1.3991 -2.3036 -1.8819
 1875SOL    HW2 6242   5.293   4.734   5.679 -0.6737 -1.0879 -0.0949
 1876SOL     OW 6243   4.134   1.808   5.547  0.6173 -0.0380 -0.4311
 1876SOL    HW1 6244   4.211   1.752   5.540 -0.0836 -0.9766 -0.8255
 1876SOL    HW2 6245   4.143   1.869   5.473  1.3795  0.3834 -0.0034
 1877SOL     OW 6246   5.246   3.607   4.560  0.2436  0.0584  0.0557
 1877SOL    HW1 6247   5.246   3.512   4.550  1.6165 -0.1958  1.9320
 1877SOL    HW2 6248   5.169   3.624   4.615  1.4906 -0.3506  2.0497
 1878SOL     OW 6249   1.397   0.292   3.051 -0.0514 -0.0321  0.1099
 1878SOL    HW1 6250   1.486   0.262   3.033  0.2054  0.6482  0.2245
 1878SOL    HW2 6251   1.386   0.280   3.146  0.7352  1.9899  0.4940
 1879SOL     OW 6252   6.477   0.539   6.030  0.5588  0.1459  0.3606
 1879SOL    HW1 6253   6.428   0.614   5.997 -0.2147 -0.9635 -1.1512
 1879SOL    HW2 6254   6.562   0.544   5.986 -0.3449 -1.1324 -1.6913
 1880SOL     OW 6255   2.342   2.687   0.234  0.2384 -0.0389  0.3283
 1880SOL    HW1 6256   2.276   2.750   0.205  0.5050  0.4921  0.8455
 1880SOL    HW2 6257   2.420   2.709   0.184 -0.3448 -1.6066 -1.3707
 1881SOL     OW 6258   2.884   0.461   3.234 -0.3463  0.5886  0.1259
 1881SOL    HW1 6259   2.918   0.418   3.313 -0.5682  0.8595  0.3705
 1881SOL    HW2 6260   2.836   0.393   3.188  1.0634  0.0086 -0.5631
 1882SOL     OW 6261   3.025   4.524   5.876  0.4066 -0.1791 -0.3214
 1882SOL    HW1 6262   3.099   4.493   5.824  0.9817  2.7803 -1.4503
 1882SOL    HW2 6263   2.948   4.505   5.822  0.6895 -0.1522 -0.7404
 1883SOL     OW 6264   7.225   6.482   1.195 -0.3956  0.0147 -0.2815
 1883SOL    HW1 6265   7.256   6.392   1.204 -1.0937 -0.1299  0.8730
 1883SOL    HW2 6266   7.276   6.532   1.259  0.5000  0.5970 -1.4104
 1884SOL     OW 6267   1.511   2.445   0.676 -0.0809 -0.7290  0.3959
 1884SOL    HW1 6268   1.540   2.526   0.717  0.2763  0.3372 -1.7929
 1884SOL    HW2 6269   1.587   2.414   0.628 -0.7316 -1.3589 -0.2517
 1885SOL     OW 6270   3.812   6.420   5.950 -0.2292  0.0579 -0.3268
 1885SOL    HW1 6271   3.849   6.507   5.960 -2.4988  0.9934  0.8135
 1885SOL    HW2 6272   3.859   6.366   6.013 -0.5905  1.1506  0.9360
 1886SOL     OW 6273   2.108   1.404   6.622  0.3534 -0.3669 -0.2641
 1886SOL    HW1 6274   2.028   1.454   6.609  1.2164  0.6837 -1.8589
 1886SOL    HW2 6275   2.095   1.360   6.706 -0.1936  3.1317  1.6793
 1887SOL     OW 6276   5.498   2.358   4.528 -0.0356  0.4731 -0.1604
 1887SOL    HW1 6277   5.536   2.431   4.479 -1.8672  1.6605  0.0725
 1887SOL    HW2 6278   5.439   2.400   4.590 -0.3751 -1.1827  0.6789
 1888SOL     OW 6279   1.925   0.065   6.341  0.7006  0.4396 -0.2210
 1888SOL    HW1 6280   1.888   0.050   6.254  0.7083 -0.0298 -0.1512
 1888SOL    HW2 6281   1.849   0.086   6.396  0.3261 -1.6947  0.1782
 1889SOL     OW 6282   3.836   1.469   3.817 -0.5837 -0.1284  0.4158
 1889SOL    HW1 6283   3.917   1.519   3.810  0.4024 -1.6646  0.3263
 1889SOL    HW2 6284   3.823   1.433   3.729 -0.7661 -0.7796  0.7057
 1890SOL     OW 6285   4.948   4.315   5.878  0.6374 -0.8584  0.0968
 1890SOL    HW1 6286   4.921   4.223   5.875 -1.7863 -0.2340 -0.0327
 1890SOL    HW2 6287   4.939   4.340   5.970  0.7695 -0.6166  0.0457
 1891SOL     OW 6288   5.468   7.104   0.872  0.0960 -0.0410 -0.8937
 1891SOL    HW1 6289   5.532   7.077   0.806 -0.0593  1.6092 -1.7513
 1891SOL    HW2 6290   5.464   7.199   0.865 -1.1592  0.0320  0.3677
 1892SOL     OW 6291   4.387   1.510   0.037 -0.3600 -0.7272 -0.5852
 1892SOL    HW1 6292   4.336   1.543   0.112 -2.9891 -0.3449 -2.3815
 1892SOL    HW2 6293   4.464   1.567   0.034 -0.7717  0.0027  1.1062
 1893SOL     OW 6294   2.464   0.893   3.725  0.6216 -0.5891 -0.7789
 1893SOL    HW1 6295   2.494   0.881   3.815  1.8712 -1.5887 -1.2968
 1893SOL    HW2 6296   2.530   0.850   3.672 -0.2192 -0.2209 -2.1756
 1894SOL     OW 6297   4.960   0.224   0.452  0.5067 -0.0468 -0.4203
 1894SOL    HW1 6298   4.891   0.251   0.391  0.1278  1.2814  0.5372
 1894SOL    HW2 6299   5.017   0.167   0.400 -0.7700 -0.3902 -1.5011
 1895SOL     OW 6300   5.302   1.912   3.568  0.4075 -0.3694 -0.2249
 1895SOL    HW1 6301   5.229   1.952   3.617  0.1913 -2.6767  1.4804
 1895SOL    HW2 6302   5.316   1.828   3.610  3.9237 -0.1454 -0.7092
 1896SOL     OW 6303   6.278   5.495   1.496  0.2898  0.0621  0.5153
 1896SOL    HW1 6304   6.354   5.437   1.499  0.1055 -0.4405 -2.0858
 1896SOL    HW2 6305   6.203   5.436   1.495 -0.1729  0.5427  2.5134
 1897SOL     OW 6306   3.754   4.730   3.314 -0.0644  0.5748  0.4740
 1897SOL    HW1 6307   3.814   4.721   3.388 -0.0251  0.9397  0.4875
 1897SOL    HW2 6308   3.726   4.822   3.317 -1.1227  0.2571  0.8623
 1898SOL     OW 6309   6.823   1.864   6.345  0.3365  0.5885 -0.8356
 1898SOL    HW1 6310   6.752   1.838   6.287 -0.9949  1.7322  0.2200
 1898SOL    HW2 6311   6.849   1.784   6.390 -0.9458  0.3154 -0.5539
 1899SOL     OW 6312   2.689   4.151   4.178 -0.1972 -0.1087  0.2096
 1899SOL    HW1 6313   2.753   4.187   4.116  1.0564 -1.9450  0.3532
 1899SOL    HW2 6314   2.711   4.192   4.262 -1.3003  1.6709 -0.3168
 1900SOL     OW 6315   0.210   1.817   5.384  0.3772 -0.4050  0.1862
 1900SOL    HW1 6316   0.234   1.886   5.446 -0.6864 -0.3395  0.5388
 1900SOL    HW2 6317   0.280   1.751   5.394 -0.0836 -0.6842  1.9266
 1901SOL     OW 6318   1.815   0.696   2.667  0.0898 -0.4833 -0.0312
 1901SOL    HW1 6319   1.769   0.780   2.672 -0.4001 -0.7302 -0.3025
 1901SOL    HW2 6320   1.745   0.631   2.654  0.3140 -1.0816  1.4267
 1902SOL     OW 6321   6.758   4.918   6.297 -0.3698  0.3041 -0.6213
 1902SOL    HW1 6322   6.815   4.930   6.373 -1.4726 -0.8119  0.4349
 1902SOL    HW2 6323   6.712   5.001   6.289 -0.3781  0.3766  0.0725
 1903SOL     OW 6324   4.063   1.307   5.529 -0.3017 -0.2475 -0.1791
 1903SOL    HW1 6325   3.974   1.294   5.494 -0.2687 -2.0545  0.2949
 1903SOL    HW2 6326   4.097   1.382   5.480 -2.1223  0.5651 -0.2937
 1904SOL     OW 6327   2.956   3.183   3.645 -0.0072 -0.0955 -0.5203
 1904SOL    HW1 6328   2.997   3.181   3.558  0.7101  1.9923 -0.2774
 1904SOL    HW2 6329   2.927   3.274   3.655 -0.1192 -0.3187  1.4060
 1905SOL     OW 6330   0.793   6.076   4.661  0.3138 -0.0309  0.3586
 1905SOL    HW1 6331   0.794   6.117   4.747 -1.7324  1.2550 -0.1715
 1905SOL    HW2 6332   0.881   6.038   4.651  1.1644  1.3280  2.2623
 1906SOL     OW 6333   6.511   1.012   6.400 -0.3543  0.1460  0.3925
 1906SOL    HW1 6334   6.590   1.033   6.450 -0.4694  2.5244 -0.3071
 1906SOL    HW2 6335   6.494   0.919   6.419  2.1921 -0.2453  1.0859
 1907SOL     OW 6336   6.989   5.283   3.790  0.6019 -0.0653 -0.2987
 1907SOL    HW1 6337   6.978   5.371   3.753 -0.3672  0.5973  1.4552
 1907SOL    HW2 6338   6.929   5.228   3.741  0.6090  0.4131 -0.8555
 1908SOL     OW 6339   3.926   3.078   7.216 -0.2641  0.1607 -0.3246
 1908SOL    HW1 6340   3.868   3.105   7.144  0.4456 -1.9850 -1.7968
 1908SOL    HW2 6341   4.011   3.116   7.193 -0.1964  0.0645 -0.2334
 1909SOL     OW 6342   4.999   6.613   3.065 -0.8908  0.0955 -0.2375
 1909SOL    HW1 6343   5.051   6.594   2.986 -2.2094  0.0484 -1.1240
 1909SOL    HW2 6344   4.927   6.550   3.062 -0.0951 -1.0115  1.9050
 1910SOL     OW 6345   2.040   3.678   5.977 -0.2858  0.0657  0.1285
 1910SOL    HW1 6346   2.029   3.751   5.916 -0.0852 -0.6567 -0.8034
 1910SOL    HW2 6347   1.956   3.632   5.975  0.2184 -0.8723 -0.8598
 1911SOL     OW 6348   5.617   5.836   2.998 -0.0586  0.2526  0.3858
 1911SOL    HW1 6349   5.638   5.908   2.939 -0.0755 -0.1865 -0.1667
 1911SOL    HW2 6350   5.695   5.781   2.999 -0.7540 -0.8287 -0.8513
 1912SOL     OW 6351   4.883   4.961   5.250 -0.1330  0.5265  0.2622
 1912SOL    HW1 6352   4.935   5.037   5.225  0.7298  0.0995  0.7145
 1912SOL    HW2 6353   4.831   4.941   5.173  1.4351  0.0839 -0.7266
 1913SOL     OW 6354   4.833   4.985   4.359 -0.0167  0.4573 -0.3177
 1913SOL    HW1 6355   4.757   4.934   4.332 -0.3214  0.1738  1.0350
 1913SOL    HW2 6356   4.883   4.998   4.278 -0.6027 -0.8410 -0.9083
 1914SOL     OW 6357   1.974   0.976   4.804 -0.3686  0.1119 -0.0938
 1914SOL    HW1 6358   2.034   0.947   4.873 -0.3648  0.3981  0.0225
 1914SOL    HW2 6359   1.888   0.979   4.846 -0.3799  0.2047 -0.1244
 1915SOL     OW 6360   5.123   1.312   5.379 -0.0788 -0.9095 -0.2492
 1915SOL    HW1 6361   5.207   1.283   5.345 -0.8685 -1.5573 -1.7678
 1915SOL    HW2 6362   5.081   1.356   5.304 -0.8985 -0.1617  0.6193
 1916SOL     OW 6363   4.270   4.162   3.574 -0.2273  0.0055 -0.0852
 1916SOL    HW1 6364   4.278   4.238   3.516 -0.2138 -0.9118 -1.3307
 1916SOL    HW2 6365   4.176   4.145   3.578 -0.1091 -1.3615 -1.8260
 1917SOL     OW 6366   2.337   1.567   1.723 -0.5976  0.0647 -0.2706
 1917SOL    HW1 6367   2.392   1.541   1.796  0.6663 -0.2329 -1.2977
 1917SOL    HW2 6368   2.328   1.488   1.670  0.4428  0.8198 -1.6323
 1918SOL     OW 6369   5.652   3.801   0.968 -0.9011 -0.5171 -0.3225
 1918SOL    HW1 6370   5.683   3.728   0.914  0.7988 -0.2791  0.2448
 1918SOL    HW2 6371   5.570   3.771   1.006 -0.2786 -2.1069 -0.1821
 1919SOL     OW 6372   3.713   2.687   5.898 -0.0273 -0.0807  0.3109
 1919SOL    HW1 6373   3.663   2.691   5.816 -0.4618 -1.4033  0.4898
 1919SOL    HW2 6374   3.677   2.612   5.945  0.9852 -0.0289  1.2181
 1920SOL     OW 6375   2.272   6.413   3.790 -0.5539 -0.0945  0.6190
 1920SOL    HW1 6376   2.206   6.444   3.852 -2.8009 -1.3583 -0.9904
 1920SOL    HW2 6377   2.239   6.328   3.760  2.2598 -1.2042  0.3159
 1921SOL     OW 6378   3.146   3.298   2.170  0.2292 -0.3624  0.3283
 1921SOL    HW1 6379   3.198   3.300   2.090  1.9496  1.9067  1.3830
 1921SOL    HW2 6380   3.074   3.238   2.151  0.7681 -0.1702 -2.7615
 1922SOL     OW 6381   3.484   1.269   5.302  0.1288  0.1961 -0.1825
 1922SOL    HW1 6382   3.515   1.288   5.391 -2.6577  1.3543  0.6549
 1922SOL    HW2 6383   3.446   1.182   5.308  1.0974 -0.2648 -0.6023
 1923SOL     OW 6384   1.880   1.644   5.041 -0.1972 -0.0749 -0.3273
 1923SOL    HW1 6385   1.804   1.682   5.084 -0.2403  2.0566 -2.0988
 1923SOL    HW2 6386   1.849   1.620   4.954  0.9944  0.3840 -0.9116
 1924SOL     OW 6387   4.386   3.925   3.555 -0.7350 -0.3112 -0.2785
 1924SOL    HW1 6388   4.321   3.996   3.550  0.3375  0.6802 -0.3790
 1924SOL    HW2 6389   4.338   3.854   3.598 -1.5993  0.7593  0.6242
 1925SOL     OW 6390   2.378   1.577   4.061 -0.3148  0.0400  0.3188
 1925SOL    HW1 6391   2.446   1.511   4.059 -0.1389  0.2250 -1.2778
 1925SOL    HW2 6392   2.416   1.653   4.016 -1.9699 -0.3329 -1.9325
 1926SOL     OW 6393   1.423   2.852   5.464  1.1373 -0.0912  0.0325
 1926SOL    HW1 6394   1.470   2.905   5.528 -0.0881 -0.0334  0.8979
 1926SOL    HW2 6395   1.468   2.767   5.467  0.2296 -0.5458  2.0165
 1927SOL     OW 6396   5.593   1.787   3.169 -0.3082  0.0407  0.0454
 1927SOL    HW1 6397   5.658   1.731   3.127  0.8591  1.6991 -0.4637
 1927SOL    HW2 6398   5.552   1.835   3.097 -0.4062  0.7384  0.5489
 1928SOL     OW 6399   4.112   2.813   0.264 -0.3573 -0.1852 -0.2533
 1928SOL    HW1 6400   4.126   2.872   0.190 -0.8491 -0.0243 -0.2201
 1928SOL    HW2 6401   4.184   2.750   0.258 -0.1937  0.0339 -0.6611
 1929SOL     OW 6402   4.918   4.383   0.138 -0.3485 -0.4406 -0.1206
 1929SOL    HW1 6403   4.957   4.297   0.154  0.0379 -0.2451 -0.0094
 1929SOL    HW2 6404   4.991   4.444   0.145 -0.7108 -0.0479  0.3048
 1930SOL     OW 6405   0.186   6.593   0.072 -1.2179  0.0708 -0.8180
 1930SOL    HW1 6406   0.150   6.650   0.140  0.4352 -1.0783  1.1144
 1930SOL    HW2 6407   0.111   6.543   0.040 -1.8171 -0.4723  1.3056
 1931SOL     OW 6408   0.174   0.160   4.385  0.3070 -0.0313  0.6621
 1931SOL    HW1 6409   0.166   0.200   4.471  1.2923 -0.3014  0.8799
 1931SOL    HW2 6410   0.245   0.097   4.393  0.5523  0.0901 -0.4034
 1932SOL     OW 6411   6.692   6.602   3.515  0.3674 -0.2128  0.7011
 1932SOL    HW1 6412   6.704   6.527   3.457 -0.0842 -0.6680  1.1909
 1932SOL    HW2 6413   6.621   6.652   3.475  1.6205  0.7468 -0.4180
 1933SOL     OW 6414   2.063   3.692   5.653 -0.4885 -0.9049 -0.2189
 1933SOL    HW1 6415   2.132   3.643   5.699  0.5997 -0.1914 -1.0465
 1933SOL    HW2 6416   2.071   3.781   5.687 -0.2479 -0.5690 -1.1401
 1934SOL     OW 6417   3.710   0.479   5.448  0.3461 -0.1012  0.2729
 1934SOL    HW1 6418   3.635   0.442   5.401  0.8700 -0.7566 -0.0558
 1934SOL    HW2 6419   3.670   0.533   5.517 -0.4580  1.4957 -1.3413
 1935SOL     OW 6420   6.733   3.833   1.070 -0.0454 -0.0433 -0.2150
 1935SOL    HW1 6421   6.647   3.833   1.113 -0.4647  0.7112 -1.0302
 1935SOL    HW2 6422   6.791   3.877   1.132 -0.8844  2.0406 -0.8235
 1936SOL     OW 6423   1.369   5.563   3.410 -0.4334  0.2743  0.2054
 1936SOL    HW1 6424   1.451   5.516   3.397  0.6319  1.7859  1.1518
 1936SOL    HW2 6425   1.353   5.609   3.328  0.0319  0.5173  0.2510
 1937SOL     OW 6426   3.746   5.310   4.515 -0.1676 -0.1736 -0.1298
 1937SOL    HW1 6427   3.752   5.386   4.573  0.4542 -0.8376  0.7111
 1937SOL    HW2 6428   3.711   5.240   4.570  0.1826 -0.7498 -0.6161
 1938SOL     OW 6429   3.936   0.563   4.480  0.3468 -0.0796  0.3315
 1938SOL    HW1 6430   3.879   0.625   4.434  0.1461  0.1679  0.9056
 1938SOL    HW2 6431   4.000   0.618   4.526  0.0694 -0.2848  0.9758
 1939SOL     OW 6432   5.627   2.027   2.344 -0.1673 -0.4049  0.4633
 1939SOL    HW1 6433   5.572   2.029   2.266  1.0743 -0.9551 -0.4719
 1939SOL    HW2 6434   5.710   1.990   2.314  0.7039  0.3258  1.8191
 1940SOL     OW 6435   5.159   0.976   2.281 -0.1207  0.5765  0.5624
 1940SOL    HW1 6436   5.119   1.038   2.343 -1.2033 -0.5596  1.0301
 1940SOL    HW2 6437   5.085   0.935   2.238  0.6182  0.8847 -1.0648
 1941SOL     OW 6438   5.885   3.960   0.727  0.3346 -0.0354  0.2308
 1941SOL    HW1 6439   5.919   4.039   0.684 -0.9643  0.3329 -0.2008
 1941SOL    HW2 6440   5.952   3.894   0.713  0.7876  0.6011 -0.7215
 1942SOL     OW 6441   5.713   4.161   5.126 -0.4334  1.1087  0.3740
 1942SOL    HW1 6442   5.687   4.253   5.131 -1.4457  0.8564  0.1142
 1942SOL    HW2 6443   5.637   4.118   5.086  0.6603  0.4309 -1.0706
 1943SOL     OW 6444   1.670   1.004   1.382  0.6658 -0.1528 -0.2646
 1943SOL    HW1 6445   1.652   1.084   1.333  2.7636 -0.1877 -1.2117
 1943SOL    HW2 6446   1.761   1.014   1.411  0.1133 -1.0256  1.9530
 1944SOL     OW 6447   4.786   3.117   1.755 -0.6244 -0.0014 -0.0237
 1944SOL    HW1 6448   4.727   3.120   1.680 -1.0224 -0.2712  0.2774
 1944SOL    HW2 6449   4.731   3.137   1.830 -0.1466  0.6794  0.1564
 1945SOL     OW 6450   2.521   1.727   1.415 -0.1680  0.1497  0.5540
 1945SOL    HW1 6451   2.562   1.739   1.501 -1.0753  0.2988  0.9800
 1945SOL    HW2 6452   2.483   1.813   1.395  1.5075  0.6294 -0.8129
 1946SOL     OW 6453   2.924   5.329   5.950 -0.2396  0.3019 -0.4929
 1946SOL    HW1 6454   2.843   5.298   5.992  0.1604  0.1792  0.2024
 1946SOL    HW2 6455   2.904   5.327   5.857 -1.7309  2.1261 -0.2885
 1947SOL     OW 6456   1.796   0.506   3.496 -0.0189 -0.1971 -0.4413
 1947SOL    HW1 6457   1.865   0.440   3.492 -0.1363 -0.3931  0.5487
 1947SOL    HW2 6458   1.725   0.470   3.444  1.1241  0.6499 -2.7207
 1948SOL     OW 6459   3.122   0.479   1.031 -0.0090 -0.6069  0.3806
 1948SOL    HW1 6460   3.033   0.502   1.059  0.4728  0.2923  1.2670
 1948SOL    HW2 6461   3.178   0.520   1.097  1.1756  0.9216 -1.4888
 1949SOL     OW 6462   7.134   0.862   1.274 -0.2492 -0.2048  0.5068
 1949SOL    HW1 6463   7.096   0.818   1.198 -0.1369  0.6732 -0.0770
 1949SOL    HW2 6464   7.227   0.866   1.256 -0.3788  1.1959  0.0431
 1950SOL     OW 6465   0.211   1.891   1.363 -0.0503 -0.4245  0.2941
 1950SOL    HW1 6466   0.234   1.984   1.367 -0.9794 -0.1723  0.0109
 1950SOL    HW2 6467   0.149   1.886   1.291 -1.0969 -1.0389  1.2226
 1951SOL     OW 6468   4.372   6.632   2.454 -0.7072  0.1350  0.0803
 1951SOL    HW1 6469   4.439   6.691   2.419 -0.5160  0.0767  0.3393
 1951SOL    HW2 6470   4.346   6.578   2.380  0.7668 -1.0036  0.3344
 1952SOL     OW 6471   1.663   0.799   2.049  0.0059 -0.3680  0.5966
 1952SOL    HW1 6472   1.661   0.745   1.970  0.3942 -0.0106  0.3399
 1952SOL    HW2 6473   1.751   0.785   2.085  0.0182 -0.1037  0.6665
 1953SOL     OW 6474   2.414   3.670   5.370  0.8376  0.1009  0.1263
 1953SOL    HW1 6475   2.385   3.753   5.408  0.0646  0.1786 -0.5843
 1953SOL    HW2 6476   2.384   3.674   5.279  0.1264 -1.2589  0.2743
 1954SOL     OW 6477   3.942   5.703   6.270  0.2438  0.1230  0.2536
 1954SOL    HW1 6478   3.911   5.754   6.345  0.0901 -0.7928  0.8275
 1954SOL    HW2 6479   3.864   5.691   6.215  0.2097  0.2304  0.2791
 1955SOL     OW 6480   3.774   3.486   2.774 -0.5101  0.0107  0.6849
 1955SOL    HW1 6481   3.709   3.511   2.708  1.3835  0.4899 -1.1268
 1955SOL    HW2 6482   3.769   3.556   2.840  0.9115  2.4131 -1.5333
 1956SOL     OW 6483   2.270   4.920   5.263 -0.1389 -0.2828  0.3069
 1956SOL    HW1 6484   2.324   4.982   5.214 -2.0851  0.1371 -1.4754
 1956SOL    HW2 6485   2.256   4.961   5.348 -0.0133  0.9466 -0.2510
 1957SOL     OW 6486   4.526   4.971   3.221  0.4059  0.0908 -0.2478
 1957SOL    HW1 6487   4.497   5.008   3.305  0.9355  2.5443 -1.0582
 1957SOL    HW2 6488   4.448   4.930   3.184 -0.7332  1.9078 -0.0030
 1958SOL     OW 6489   6.291   4.128   3.767 -0.7041 -0.3497 -0.0579
 1958SOL    HW1 6490   6.253   4.208   3.730  0.6579  0.7729  0.8437
 1958SOL    HW2 6491   6.370   4.113   3.715  2.1387  2.1582  3.0527
 1959SOL     OW 6492   6.766   5.485   1.845 -0.5994 -0.0068  0.6113
 1959SOL    HW1 6493   6.740   5.517   1.931  1.8753 -2.1139  2.3103
 1959SOL    HW2 6494   6.719   5.402   1.834  0.4697 -0.6645  0.8266
 1960SOL     OW 6495   7.236   2.509   3.098  0.4544  0.2808  0.4758
 1960SOL    HW1 6496   7.262   2.426   3.139 -0.3675  0.0838  0.6047
 1960SOL    HW2 6497   7.311   2.567   3.114  1.5661 -0.7711 -0.6809
 1961SOL     OW 6498   4.542   0.261   2.413 -0.0169  0.0125  0.2434
 1961SOL    HW1 6499   4.509   0.228   2.497  1.0553  0.7285  0.9664
 1961SOL    HW2 6500   4.586   0.186   2.373 -1.1248 -0.5201 -0.0182
 1962SOL     OW 6501   2.702   1.012   0.384  0.4825 -0.1478 -0.5448
 1962SOL    HW1 6502   2.760   1.083   0.412  1.4665 -0.6852 -1.1330
 1962SOL    HW2 6503   2.621   1.055   0.358  1.1170  0.7879 -1.0241
 1963SOL     OW 6504   4.790   3.385   4.648  0.0628  0.5451 -0.4630
 1963SOL    HW1 6505   4.748   3.408   4.731 -0.5845 -1.1335 -0.2842
 1963SOL    HW2 6506   4.822   3.296   4.661  2.7317  1.3447 -1.0020
 1964SOL     OW 6507   5.893   3.172   5.064  0.3839  0.3668 -0.0157
 1964SOL    HW1 6508   5.834   3.246   5.082  0.9079  0.6392  0.6015
 1964SOL    HW2 6509   5.839   3.094   5.080  0.5569  0.5939  1.9225
 1965SOL     OW 6510   4.031   2.937   4.023 -0.0724 -0.1773  0.1569
 1965SOL    HW1 6511   4.047   3.032   4.029  1.9885 -0.5185  0.9722
 1965SOL    HW2 6512   4.001   2.924   3.933  0.3827  1.1622 -0.2223
 1966SOL     OW 6513   3.034   4.541   5.079  0.3245 -0.0782 -0.1363
 1966SOL    HW1 6514   3.053   4.477   5.011  1.2463  0.9051 -0.8495
 1966SOL    HW2 6515   3.045   4.626   5.036 -1.2582  0.5719  0.6740
 1967SOL     OW 6516   4.765   1.388   3.394 -0.0291  0.7863 -0.0030
 1967SOL    HW1 6517   4.743   1.392   3.487 -1.1663  2.4958 -0.2847
 1967SOL    HW2 6518   4.782   1.296   3.376  2.1637  0.6243  2.2960
 1968SOL     OW 6519   1.197   0.773   4.268  0.1008  0.1136  0.0890
 1968SOL    HW1 6520   1.102   0.776   4.256 -0.3001  1.2993  2.8088
 1968SOL    HW2 6521   1.225   0.864   4.263  0.7728 -0.0137  1.1427
 1969SOL     OW 6522   5.012   5.804   6.558  0.0229 -1.0516 -0.0924
 1969SOL    HW1 6523   4.943   5.747   6.591 -0.9448  0.0673 -0.0913
 1969SOL    HW2 6524   5.053   5.754   6.488 -0.2619 -2.0521  0.4399
 1970SOL     OW 6525   0.506   6.644   2.056 -0.2102 -0.0780  0.1995
 1970SOL    HW1 6526   0.514   6.607   1.969 -1.9266  0.7330 -0.3525
 1970SOL    HW2 6527   0.483   6.569   2.112  2.4181 -0.8956  0.3327
 1971SOL     OW 6528   1.808   2.839   1.340  0.4058 -0.2734 -0.4548
 1971SOL    HW1 6529   1.901   2.828   1.359  0.5642  1.9526  0.3922
 1971SOL    HW2 6530   1.792   2.932   1.356 -1.4694 -0.1051 -2.8713
 1972SOL     OW 6531   1.828   3.342   3.512  0.3337  0.0225 -0.1021
 1972SOL    HW1 6532   1.837   3.249   3.489 -1.4542 -0.4274  0.8092
 1972SOL    HW2 6533   1.789   3.382   3.435 -2.4021 -0.7878  0.7432
 1973SOL     OW 6534   1.142   4.050   4.247 -0.3091 -0.1813 -0.1474
 1973SOL    HW1 6535   1.178   4.139   4.249 -0.1829 -0.1990 -0.9689
 1973SOL    HW2 6536   1.083   4.050   4.171 -1.6676 -0.3039  0.8824
 1974SOL     OW 6537   2.167   0.297   1.704 -0.0809  0.0910 -0.9543
 1974SOL    HW1 6538   2.220   0.281   1.782 -1.8097 -0.6538  0.1286
 1974SOL    HW2 6539   2.160   0.211   1.663 -1.7705 -0.1982 -0.1634
 1975SOL     OW 6540   1.960   2.171   5.521 -0.2424 -0.0421 -0.1973
 1975SOL    HW1 6541   2.050   2.203   5.533 -0.0660 -0.4399 -0.4592
 1975SOL    HW2 6542   1.910   2.249   5.497 -0.2647  0.4718  1.4022
 1976SOL     OW 6543   5.159   6.428   1.176  0.0599  0.2236 -0.2300
 1976SOL    HW1 6544   5.198   6.494   1.118  1.7024  0.7490  1.3665
 1976SOL    HW2 6545   5.085   6.472   1.216  0.5530  0.7870  0.0815
 1977SOL     OW 6546   1.285   3.310   2.460  0.0333  0.4351 -0.3480
 1977SOL    HW1 6547   1.327   3.224   2.450 -1.7913 -0.5306 -0.2420
 1977SOL    HW2 6548   1.326   3.348   2.537 -0.6347 -1.3287  0.9577
 1978SOL     OW 6549   2.504   3.671   4.911  0.1898  0.0703 -0.1451
 1978SOL    HW1 6550   2.551   3.610   4.968  0.7649  0.0162 -0.6540
 1978SOL    HW2 6551   2.479   3.618   4.835 -0.6915  0.1064  0.1201
 1979SOL     OW 6552   2.851   5.481   3.118  0.5923 -0.7116  0.2585
 1979SOL    HW1 6553   2.771   5.486   3.171  2.2892  2.0005  2.8168
 1979SOL    HW2 6554   2.915   5.440   3.176  1.9522  0.3089 -0.4822
 1980SOL     OW 6555   6.744   2.768   3.616 -0.3654 -0.6800  0.2049
 1980SOL    HW1 6556   6.681   2.804   3.554 -1.0572  0.8543  1.7081
 1980SOL    HW2 6557   6.813   2.834   3.622  0.8205 -1.8134 -0.5437
 1981SOL     OW 6558   0.345   4.897   1.118 -0.0505  0.7408  0.6460
 1981SOL    HW1 6559   0.288   4.942   1.056  1.7334  0.1758 -1.5683
 1981SOL    HW2 6560   0.384   4.967   1.171 -0.9793  1.3171  0.5885
 1982SOL     OW 6561   3.549   6.358   4.734 -0.2168  0.6694 -0.0779
 1982SOL    HW1 6562   3.596   6.276   4.749  0.3894  0.6624 -1.7362
 1982SOL    HW2 6563   3.500   6.373   4.814  2.1464  0.3624  1.5466
 1983SOL     OW 6564   3.508   5.926   1.127 -0.1940 -0.3924 -0.2601
 1983SOL    HW1 6565   3.438   5.927   1.061  0.0963  0.2737 -0.5697
 1983SOL    HW2 6566   3.531   5.833   1.135  0.0430 -0.4491 -1.4031
 1984SOL     OW 6567   6.549   3.396   6.848 -0.1807  0.7132  0.5551
 1984SOL    HW1 6568   6.532   3.422   6.939 -0.8431  0.2706  0.5611
 1984SOL    HW2 6569   6.465   3.405   6.804 -0.4791 -1.5050  0.5764
 1985SOL     OW 6570   6.639   7.104   2.249  0.5149  0.0690 -0.2202
 1985SOL    HW1 6571   6.725   7.144   2.233  0.2394  1.1455  0.8405
 1985SOL    HW2 6572   6.598   7.161   2.314 -0.6017 -1.0080  0.0487
 1986SOL     OW 6573   5.375   3.115   4.690  0.1220  0.4355  0.6096
 1986SOL    HW1 6574   5.303   3.052   4.698 -1.3523  2.0049  0.1725
 1986SOL    HW2 6575   5.338   3.188   4.641  2.7347  0.2644 -1.8998
 1987SOL     OW 6576   1.512   2.681   0.970  0.4207  0.0944  0.6485
 1987SOL    HW1 6577   1.486   2.620   1.039 -0.0503 -0.6143 -0.1486
 1987SOL    HW2 6578   1.596   2.647   0.938  0.5214  0.2860  0.7057
 1988SOL     OW 6579   4.159   4.610   2.132 -0.2352 -0.3625  0.2613
 1988SOL    HW1 6580   4.138   4.700   2.158  2.3475  0.2706  0.3572
 1988SOL    HW2 6581   4.073   4.568   2.125 -1.7832  2.7195 -2.2377
 1989SOL     OW 6582   3.197   3.172   5.673  0.1955  0.0486 -0.3611
 1989SOL    HW1 6583   3.192   3.192   5.580  1.0763 -0.0943 -0.4430
 1989SOL    HW2 6584   3.280   3.208   5.702  0.0625 -0.1596  0.3111
 1990SOL     OW 6585   6.195   0.087   1.759  0.2745 -0.4782 -0.4294
 1990SOL    HW1 6586   6.155   0.140   1.827  0.5970 -0.1102 -0.5240
 1990SOL    HW2 6587   6.193   0.141   1.681  0.0195 -0.8537 -0.6864
 1991SOL     OW 6588   2.606   1.865   3.546 -0.1361 -0.1384 -0.3896
 1991SOL    HW1 6589   2.589   1.773   3.566  0.0689  0.1248  1.0840
 1991SOL    HW2 6590   2.586   1.911   3.627  0.0706  1.0897 -1.0178
 1992SOL     OW 6591   3.752   0.671   4.302 -0.0015 -0.0980 -0.1164
 1992SOL    HW1 6592   3.716   0.722   4.374  1.0262  0.0434  0.3092
 1992SOL    HW2 6593   3.708   0.706   4.224 -0.5499  0.2727  0.3497
 1993SOL     OW 6594   4.886   3.931   0.461  0.3526 -0.3204 -0.7989
 1993SOL    HW1 6595   4.933   4.008   0.490  0.1731 -0.7695  0.7975
 1993SOL    HW2 6596   4.796   3.960   0.450  0.5842  0.0526 -1.7921
 1994SOL     OW 6597   6.804   1.599   5.440  0.1969 -0.3869  0.3392
 1994SOL    HW1 6598   6.774   1.562   5.523 -0.6538 -1.1371 -0.2826
 1994SOL    HW2 6599   6.897   1.578   5.436  0.0553 -1.1262  0.7063
 1995SOL     OW 6600   0.846   6.381   5.625  0.0198 -0.3236  0.2650
 1995SOL    HW1 6601   0.817   6.439   5.555  2.2897  0.9474  0.3134
 1995SOL    HW2 6602   0.824   6.293   5.593  1.9002  0.1124 -2.5570
 1996SOL     OW 6603   2.419   6.997   3.364  0.1062  0.2199 -0.3576
 1996SOL    HW1 6604   2.345   7.041   3.406  0.2576  2.7607 -2.4910
 1996SOL    HW2 6605   2.496   7.040   3.402  0.4204 -0.6915  0.0546
 1997SOL     OW 6606   7.163   1.670   6.636 -0.7940  0.0926 -0.0098
 1997SOL    HW1 6607   7.139   1.716   6.556 -1.2091 -0.0018  0.0555
 1997SOL    HW2 6608   7.259   1.668   6.636 -0.5538  3.7918  1.5672
 1998SOL     OW 6609   5.132   1.206   7.141  0.2012  0.0106  0.6197
 1998SOL    HW1 6610   5.155   1.218   7.233  1.5771  1.9575  0.0754
 1998SOL    HW2 6611   5.060   1.267   7.127  0.6440  0.4312  0.1733
 1999SOL     OW 6612   6.982   6.735   4.865 -0.4306 -0.9157  0.0955
 1999SOL    HW1 6613   7.037   6.660   4.843  0.9631  0.2832 -0.7330
 1999SOL    HW2 6614   6.893   6.702   4.862  0.1949 -2.8888  1.2423
 2000SOL     OW 6615   1.237   6.473   1.809 -0.0016  0.0109  0.3420
 2000SOL    HW1 6616   1.183   6.448   1.734  0.8033 -1.6173  0.2664
 2000SOL    HW2 6617   1.312   6.518   1.770 -1.0710  1.9756  0.4252
 2001SOL     OW 6618   3.883   5.716   1.108 -0.5628  0.1325 -0.1087
 2001SOL    HW1 6619   3.924   5.630   1.117  1.0002  0.6692 -1.7811
 2001SOL    HW2 6620   3.941   5.766   1.052 -1.7692  2.1065  0.2878
 2002SOL     OW 6621   3.184   1.695   1.940  0.0039 -0.1040  0.2945
 2002SOL    HW1 6622   3.158   1.784   1.966  0.9837  0.6489 -1.1893
 2002SOL    HW2 6623   3.233   1.707   1.859 -1.2363 -2.1580 -0.8361
 2003SOL     OW 6624   5.500   3.672   1.868  0.0899 -0.6445 -0.3004
 2003SOL    HW1 6625   5.516   3.614   1.793 -0.3540  0.4798 -1.2953
 2003SOL    HW2 6626   5.565   3.742   1.860 -0.4191 -0.1286 -0.0529
 2004SOL     OW 6627   1.216   7.249   5.656  0.8277  0.2468  0.4028
 2004SOL    HW1 6628   1.268   7.319   5.616  0.8236 -0.2205 -0.4565
 2004SOL    HW2 6629   1.250   7.169   5.616 -0.9751 -0.0289 -0.7070
 2005SOL     OW 6630   3.736   2.434   0.372  0.6764  0.4115 -0.3950
 2005SOL    HW1 6631   3.697   2.423   0.286  2.7319 -1.7299 -1.1673
 2005SOL    HW2 6632   3.776   2.521   0.370 -0.6477  1.0373 -0.9590
 2006SOL     OW 6633   2.561   6.726   1.098 -0.7555  0.3865 -0.5461
 2006SOL    HW1 6634   2.617   6.693   1.168 -1.1591 -0.4194 -0.5977
 2006SOL    HW2 6635   2.482   6.757   1.142 -0.4278  1.1806 -0.5097
 2007SOL     OW 6636   5.381   5.517   4.059 -0.0508  0.1307 -0.3841
 2007SOL    HW1 6637   5.330   5.457   4.004 -1.3217  1.0433 -0.2373
 2007SOL    HW2 6638   5.371   5.483   4.148  0.9971 -0.6359 -0.5327
 2008SOL     OW 6639   4.910   5.287   5.461  0.3598  0.0605 -0.1083
 2008SOL    HW1 6640   4.880   5.374   5.437  0.2481 -0.3235 -1.4537
 2008SOL    HW2 6641   5.004   5.297   5.479  0.5130  0.3147 -1.0377
 2009SOL     OW 6642   4.531   6.405   0.899 -0.1512 -0.0027 -0.7883
 2009SOL    HW1 6643   4.479   6.484   0.891  0.3921  0.3796 -0.6328
 2009SOL    HW2 6644   4.617   6.429   0.864 -0.4267 -0.9890 -2.2239
 2010SOL     OW 6645   2.873   0.213   5.134  0.1452  0.0246 -0.2810
 2010SOL    HW1 6646   2.786   0.206   5.172  0.2517 -0.9568 -0.1939
 2010SOL    HW2 6647   2.880   0.137   5.076  0.8985  0.1523 -0.3707
 2011SOL     OW 6648   6.553   6.596   4.135  0.2178  0.2867 -0.8571
 2011SOL    HW1 6649   6.506   6.562   4.212  2.7091  0.7962  1.0284
 2011SOL    HW2 6650   6.560   6.690   4.151  1.0666  0.3526 -1.5190
 2012SOL     OW 6651   1.481   6.142   3.581  0.1744  0.2139 -0.3023
 2012SOL    HW1 6652   1.432   6.224   3.589 -0.4850 -0.2896  1.1182
 2012SOL    HW2 6653   1.482   6.106   3.670  0.5695 -1.2562 -0.8765
 2013SOL     OW 6654   4.373   4.284   4.512 -0.1088  0.1086 -0.4506
 2013SOL    HW1 6655   4.453   4.305   4.560  1.5926 -3.1921 -1.5382
 2013SOL    HW2 6656   4.349   4.196   4.541 -2.1006  0.1508 -1.7507
 2014SOL     OW 6657   0.531   3.050   2.723 -0.2194  0.1887 -0.4810
 2014SOL    HW1 6658   0.448   3.002   2.727  0.9103 -1.7745  1.9361
 2014SOL    HW2 6659   0.514   3.131   2.770 -1.0578  0.3040 -0.9689
 2015SOL     OW 6660   0.056   5.408   5.976 -0.3691  0.2046 -0.1854
 2015SOL    HW1 6661   0.054   5.467   5.900  1.3208  0.9536  0.3006
 2015SOL    HW2 6662   0.055   5.320   5.939 -0.4769  0.5588 -1.0352
 2016SOL     OW 6663   6.947   3.071   2.385  0.5381 -0.3186 -0.0491
 2016SOL    HW1 6664   6.979   3.038   2.469 -1.8576 -1.4832  0.4692
 2016SOL    HW2 6665   6.890   3.144   2.409 -0.2141 -0.7046 -0.6422
 2017SOL     OW 6666   0.019   6.009   0.222 -0.0330  0.1601 -0.2331
 2017SOL    HW1 6667   0.085   6.068   0.185 -0.3066  1.1516  0.8025
 2017SOL    HW2 6668  -0.064   6.050   0.198 -0.2222  0.2732  0.5949
 2018SOL     OW 6669   3.460   1.068   5.919 -0.1932  0.0548  0.2517
 2018SOL    HW1 6670   3.517   1.138   5.952  0.1017 -0.7737  1.5773
 2018SOL    HW2 6671   3.387   1.065   5.981 -0.5866 -0.2976 -0.2272
 2019SOL     OW 6672   6.210   6.909   6.494 -0.4773  0.4564  0.4156
 2019SOL    HW1 6673   6.256   6.962   6.559  0.6314 -1.6161  1.4256
 2019SOL    HW2 6674   6.134   6.962   6.469 -0.4344  1.7322  2.7081
 2020SOL     OW 6675   7.082   1.860   1.041  0.2779 -0.4612 -0.6588
 2020SOL    HW1 6676   6.989   1.838   1.035 -0.2473  1.4804 -0.2201
 2020SOL    HW2 6677   7.126   1.795   0.987 -1.3549 -1.2881 -1.0365
 2021SOL     OW 6678   1.726   3.843   2.615  0.4955 -0.4063  0.3766
 2021SOL    HW1 6679   1.662   3.914   2.615  1.0382  0.0864  0.3036
 2021SOL    HW2 6680   1.700   3.787   2.542  0.2310 -0.1405  0.2656
 2022SOL     OW 6681   1.954   0.193   2.464  0.0686 -0.2390 -0.6907
 2022SOL    HW1 6682   1.972   0.179   2.371 -0.3876  0.7291 -0.9379
 2022SOL    HW2 6683   1.980   0.284   2.480  0.6440 -0.5607  0.2599
 2023SOL     OW 6684   1.945   1.376   4.162 -0.1351 -0.2051 -0.7573
 2023SOL    HW1 6685   2.019   1.324   4.196 -0.2759  0.4720  0.6298
 2023SOL    HW2 6686   1.873   1.313   4.157  0.2975 -0.6731 -1.2936
 2024SOL     OW 6687   6.139   0.716   0.540  0.2271  0.8311 -0.6352
 2024SOL    HW1 6688   6.119   0.622   0.535  2.6122  0.2643 -0.4139
 2024SOL    HW2 6689   6.078   0.749   0.607  0.2552 -0.8229  0.2757
 2025SOL     OW 6690   5.948   0.113   2.952 -0.3935 -0.1979 -0.2135
 2025SOL    HW1 6691   5.976   0.163   2.876 -1.0577  0.6079  0.0608
 2025SOL    HW2 6692   5.935   0.024   2.918  2.4365 -0.6533 -0.3476
 2026SOL     OW 6693   2.028   6.633   4.847  0.1464 -0.3312 -0.5328
 2026SOL    HW1 6694   2.086   6.626   4.922  0.0351  0.3563 -0.3740
 2026SOL    HW2 6695   2.002   6.543   4.828 -0.6063 -0.4441  0.8716
 2027SOL     OW 6696   7.104   2.334   0.653 -0.0098 -0.3615 -0.0681
 2027SOL    HW1 6697   7.161   2.258   0.640  1.6195  1.1845 -3.6250
 2027SOL    HW2 6698   7.157   2.395   0.704 -0.2429 -0.5892  0.4473
 2028SOL     OW 6699   5.946   5.330   1.718  0.7482  0.1019 -0.4700
 2028SOL    HW1 6700   5.969   5.423   1.729  0.4242  0.5172 -2.7901
 2028SOL    HW2 6701   5.998   5.301   1.643 -0.1770 -1.2106 -0.6406
 2029SOL     OW 6702   3.842   3.676   6.645  0.0508  0.2898  0.2028
 2029SOL    HW1 6703   3.873   3.681   6.735  0.5448  0.0685  0.0486
 2029SOL    HW2 6704   3.856   3.764   6.610  1.6568 -0.0966 -0.2243
 2030SOL     OW 6705   3.863   5.048   7.097 -0.8354  0.1800 -0.1794
 2030SOL    HW1 6706   3.852   4.978   7.032  0.0341 -1.0230  0.9066
 2030SOL    HW2 6707   3.785   5.041   7.152 -1.4174  0.9923 -0.8755
 2031SOL     OW 6708   0.973   2.654   6.218 -0.4527  0.0369 -0.2240
 2031SOL    HW1 6709   0.919   2.609   6.152 -0.0673  0.2295 -0.6762
 2031SOL    HW2 6710   1.020   2.583   6.262  1.1435  0.0452 -1.8125
 2032SOL     OW 6711   6.537   5.843   6.508 -0.4082 -0.0036  0.1198
 2032SOL    HW1 6712   6.553   5.822   6.416 -0.6742 -0.1936  0.1142
 2032SOL    HW2 6713   6.580   5.772   6.557 -0.1944  0.1431  0.1458
 2033SOL     OW 6714   5.663   4.410   0.168 -0.3156  0.0296 -0.3937
 2033SOL    HW1 6715   5.601   4.442   0.234 -0.3048 -0.7383 -0.0113
 2033SOL    HW2 6716   5.608   4.388   0.092 -0.2356  1.8864 -1.0638
 2034SOL     OW 6717   1.366   5.262   4.702 -0.8403 -0.4289  0.0784
 2034SOL    HW1 6718   1.455   5.232   4.718 -1.1696 -1.4641  0.0701
 2034SOL    HW2 6719   1.343   5.227   4.616 -0.1311  2.5962 -1.4893
 2035SOL     OW 6720   1.561   3.614   0.308 -0.3433  0.3846 -0.2864
 2035SOL    HW1 6721   1.566   3.584   0.398 -0.2396 -0.1356 -0.4632
 2035SOL    HW2 6722   1.566   3.534   0.255  1.8820  0.8064 -0.8366
 2036SOL     OW 6723   4.636   5.511   0.390 -0.2115 -0.3133 -0.0017
 2036SOL    HW1 6724   4.590   5.427   0.402  0.3803 -0.4732  1.4493
 2036SOL    HW2 6725   4.578   5.563   0.336 -1.0987 -1.2746 -0.0064
 2037SOL     OW 6726   6.296   0.205   4.111  0.0842 -0.9304  0.1067
 2037SOL    HW1 6727   6.372   0.202   4.169 -1.2421  1.0050  2.0898
 2037SOL    HW2 6728   6.320   0.269   4.044  0.9396 -1.8143 -0.4415
 2038SOL     OW 6729   2.984   1.558   5.124  0.1792  0.2178  0.4100
 2038SOL    HW1 6730   3.010   1.468   5.141  0.3197  0.3156  0.7129
 2038SOL    HW2 6731   2.889   1.554   5.115  0.1072  0.1523  1.1578
 2039SOL     OW 6732   4.890   6.702   1.079  0.2907 -0.0773  0.3575
 2039SOL    HW1 6733   4.969   6.656   1.106  0.5739  0.6372  0.7576
 2039SOL    HW2 6734   4.920   6.770   1.020 -0.2250 -0.9774 -0.9929
 2040SOL     OW 6735   1.711   5.857   3.865 -0.8330  0.7925  0.1524
 2040SOL    HW1 6736   1.702   5.767   3.896 -0.5732  0.1772 -1.4648
 2040SOL    HW2 6737   1.794   5.887   3.901 -0.7572  0.2785  0.4136
 2041SOL     OW 6738   0.038   1.420   6.258 -0.0178  0.1300 -0.7119
 2041SOL    HW1 6739   0.080   1.339   6.229 -0.1048  0.4700 -1.8312
 2041SOL    HW2 6740   0.111   1.476   6.285  0.0894 -0.0806 -0.5622
 2042SOL     OW 6741   6.094   1.022   5.195  0.2936 -0.3833 -0.0312
 2042SOL    HW1 6742   6.065   1.108   5.162  1.3586 -0.3727 -0.9880
 2042SOL    HW2 6743   6.012   0.977   5.216 -0.3173  0.6074 -0.1745
 2043SOL     OW 6744   2.616   2.706   4.479 -0.4899 -0.4067 -0.1317
 2043SOL    HW1 6745   2.587   2.731   4.567  0.2125 -0.6217  0.1596
 2043SOL    HW2 6746   2.667   2.780   4.448 -1.0305 -0.1788 -0.5117
 2044SOL     OW 6747   0.008   0.417   0.214  0.2184 -0.3552 -0.3168
 2044SOL    HW1 6748   0.012   0.324   0.191  0.1873 -1.1252  2.4026
 2044SOL    HW2 6749  -0.085   0.433   0.233  0.4674 -0.3133  1.0045
 2045SOL     OW 6750   0.930   3.817   3.952  0.6687 -0.6863  0.2088
 2045SOL    HW1 6751   0.977   3.861   3.880  0.4572  0.3407  0.6887
 2045SOL    HW2 6752   0.849   3.786   3.911 -0.8771  2.4938  0.5910
 2046SOL     OW 6753   4.576   0.350   1.178 -0.0395 -0.2699  0.4076
 2046SOL    HW1 6754   4.588   0.444   1.161 -2.4657  0.2109  0.8638
 2046SOL    HW2 6755   4.568   0.311   1.091  2.1165 -0.2921  0.1716
 2047SOL     OW 6756   3.825   3.619   1.465 -0.0630 -0.9001 -0.4804
 2047SOL    HW1 6757   3.777   3.609   1.383  0.7267  0.4038 -1.1331
 2047SOL    HW2 6758   3.819   3.713   1.485 -0.3227 -1.2038  1.0095
 2048SOL     OW 6759   2.476   6.497   4.416 -1.0178  0.1932  0.4299
 2048SOL    HW1 6760   2.558   6.523   4.374 -1.6264  0.3719 -0.6974
 2048SOL    HW2 6761   2.423   6.460   4.345 -2.5641  1.6167  0.7591
 2049SOL     OW 6762   6.261   2.177   5.855  0.5578 -0.2241  0.1606
 2049SOL    HW1 6763   6.207   2.239   5.807  1.7854  0.3376 -0.5300
 2049SOL    HW2 6764   6.268   2.213   5.944 -0.0092 -0.1915  0.1920
 2050SOL     OW 6765   0.620   0.155   2.628 -0.4061  0.2390  0.4492
 2050SOL    HW1 6766   0.634   0.240   2.587  1.5143 -0.4262 -0.3778
 2050SOL    HW2 6767   0.585   0.176   2.715 -0.4130  1.8332  0.0905
 2051SOL     OW 6768   1.633   0.901   2.536 -0.3865  0.4271 -0.4747
 2051SOL    HW1 6769   1.609   0.928   2.447 -1.7043  0.4779 -0.1130
 2051SOL    HW2 6770   1.573   0.948   2.593  0.6043  0.5846  0.4776
 2052SOL     OW 6771   2.694   3.609   1.234 -0.5274 -0.1388 -0.7308
 2052SOL    HW1 6772   2.689   3.614   1.329  3.0612  0.6545 -0.4344
 2052SOL    HW2 6773   2.611   3.569   1.207 -2.5472  1.4967  2.5027
 2053SOL     OW 6774   6.884   0.577   4.788 -0.1204  0.5348  0.5864
 2053SOL    HW1 6775   6.961   0.574   4.732 -1.5820 -1.2039 -1.5213
 2053SOL    HW2 6776   6.905   0.517   4.860  0.2678 -0.5013 -0.3503
 2054SOL     OW 6777   1.518   0.822   2.951 -0.0734 -0.1760  0.3332
 2054SOL    HW1 6778   1.498   0.893   2.889  1.4895 -1.8284 -2.1926
 2054SOL    HW2 6779   1.605   0.843   2.984 -0.4700  0.1300  1.2348
 2055SOL     OW 6780   4.887   6.262   2.231 -0.0621  0.0288 -0.0782
 2055SOL    HW1 6781   4.845   6.347   2.246  0.4383  0.5581 -1.5421
 2055SOL    HW2 6782   4.981   6.282   2.231  0.0347 -0.3629 -1.2563
 2056SOL     OW 6783   2.770   0.636   1.925  0.0606 -0.0703 -0.0104
 2056SOL    HW1 6784   2.717   0.715   1.922  0.5122  0.2203 -0.4690
 2056SOL    HW2 6785   2.840   0.656   1.987 -0.2667 -0.3979  0.4755
 2057SOL     OW 6786   0.004   5.285   1.474  0.1795 -0.0088 -0.2314
 2057SOL    HW1 6787  -0.033   5.205   1.511 -1.2484  0.4164 -0.6846
 2057SOL    HW2 6788  -0.004   5.350   1.544  0.3756  0.0135 -0.2277
 2058SOL     OW 6789   2.118   1.016   1.736 -0.3815 -0.0996  0.4396
 2058SOL    HW1 6790   2.097   1.091   1.680  0.7669  0.3300  0.5673
 2058SOL    HW2 6791   2.199   1.040   1.780 -0.3339 -1.1599  0.9707
 2059SOL     OW 6792   3.528   2.294   0.616  0.4329 -0.3226  0.8431
 2059SOL    HW1 6793   3.602   2.352   0.594 -1.7600  1.9897 -1.1486
 2059SOL    HW2 6794   3.509   2.314   0.708  0.9668  0.7101  0.7531
 2060SOL     OW 6795   6.446   6.054   5.956  0.0497  0.2198  0.1962
 2060SOL    HW1 6796   6.417   5.983   6.013 -1.1402  0.3380 -0.2451
 2060SOL    HW2 6797   6.484   6.119   6.015 -2.7956  1.1960  1.1224
 2061SOL     OW 6798   4.653   3.530   6.536  0.1394 -0.0373 -0.1772
 2061SOL    HW1 6799   4.726   3.589   6.554 -0.9566  1.5002 -0.5653
 2061SOL    HW2 6800   4.593   3.543   6.609  0.9231 -2.5197  1.0205
 2062SOL     OW 6801   1.688   2.317   5.694  0.1130  0.3401 -0.0302
 2062SOL    HW1 6802   1.754   2.381   5.668  0.2427  0.0235 -0.4771
 2062SOL    HW2 6803   1.710   2.296   5.785 -1.3634  2.7425  0.9842
 2063SOL     OW 6804   3.480   5.575   3.931  0.2959 -0.2499 -0.4134
 2063SOL    HW1 6805   3.495   5.565   4.025 -1.1396 -2.4780 -0.3688
 2063SOL    HW2 6806   3.400   5.626   3.925 -0.9935 -2.1697 -0.3190
 2064SOL     OW 6807   0.845   5.939   3.927  0.5741 -0.4457 -0.1806
 2064SOL    HW1 6808   0.828   5.895   3.844  0.9528  0.7314 -0.9008
 2064SOL    HW2 6809   0.759   5.949   3.967  0.3153 -0.4772 -0.7208
 2065SOL     OW 6810   7.056   0.422   1.927  0.6142  0.2772  0.5605
 2065SOL    HW1 6811   7.081   0.457   1.842  1.0268 -1.5998 -0.1398
 2065SOL    HW2 6812   6.961   0.417   1.925  0.6685 -0.7639 -0.2459
 2066SOL     OW 6813   6.705   0.473   0.800 -0.1617 -0.5401  0.5228
 2066SOL    HW1 6814   6.704   0.420   0.880  1.4359 -1.5001 -0.0359
 2066SOL    HW2 6815   6.737   0.413   0.732 -0.2705  0.5996 -0.5732
 2067SOL     OW 6816   1.277   0.344   5.507  0.1334  0.7639  0.0647
 2067SOL    HW1 6817   1.243   0.412   5.449 -0.5706  0.7105  0.4097
 2067SOL    HW2 6818   1.202   0.315   5.558  1.2284  2.9234  3.2077
 2068SOL     OW 6819   0.521   1.729   1.304 -0.1243 -0.1317  0.0381
 2068SOL    HW1 6820   0.501   1.780   1.382  1.1445  0.4608  0.0093
 2068SOL    HW2 6821   0.546   1.794   1.239 -2.2040 -0.5268 -1.2501
 2069SOL     OW 6822   0.035   7.008   5.342 -0.2971 -0.3880  0.6274
 2069SOL    HW1 6823   0.080   7.074   5.290 -1.2550 -2.0926 -2.6328
 2069SOL    HW2 6824  -0.003   7.056   5.415 -0.0983  2.4755 -1.0112
 2070SOL     OW 6825   5.277   2.555   6.293  0.1852 -0.4537 -0.1997
 2070SOL    HW1 6826   5.362   2.541   6.334 -0.2040 -0.4543  0.6179
 2070SOL    HW2 6827   5.250   2.642   6.321 -0.9714 -1.2165  1.1751
 2071SOL     OW 6828   6.692   0.133   3.080 -0.0208  1.1838  0.6705
 2071SOL    HW1 6829   6.658   0.195   3.016  0.5297 -0.5619 -1.4085
 2071SOL    HW2 6830   6.786   0.130   3.063 -0.2964 -2.0631 -1.1525
 2072SOL     OW 6831   1.965   2.214   1.113 -0.5484  0.0370 -0.0267
 2072SOL    HW1 6832   2.016   2.196   1.192  0.0736 -0.1912 -0.4734
 2072SOL    HW2 6833   2.029   2.244   1.049 -0.9463 -0.4260 -0.6576
 2073SOL     OW 6834   6.751   0.601   4.447  0.0051  0.2619 -0.2177
 2073SOL    HW1 6835   6.777   0.593   4.538 -0.3256 -0.6156 -0.1936
 2073SOL    HW2 6836   6.710   0.688   4.441 -0.3403  0.1566  0.5657
 2074SOL     OW 6837   5.555   5.796   1.083  0.0330 -0.0119  0.8630
 2074SOL    HW1 6838   5.607   5.763   1.156  3.0250  0.2234 -0.9941
 2074SOL    HW2 6839   5.549   5.721   1.023 -0.9506  0.2779  0.5868
 2075SOL     OW 6840   4.443   3.312   2.114  0.0793  0.5149 -0.4492
 2075SOL    HW1 6841   4.427   3.262   2.194 -0.7641  1.3616 -0.0680
 2075SOL    HW2 6842   4.522   3.362   2.132 -0.0668  0.6463 -0.1664
 2076SOL     OW 6843   3.214   6.774   7.223  0.1064  0.6242 -0.1232
 2076SOL    HW1 6844   3.159   6.711   7.269 -0.1571  2.0666  1.6765
 2076SOL    HW2 6845   3.301   6.763   7.263  0.2670  0.7968 -0.4208
 2077SOL     OW 6846   6.951   6.322   0.922  0.7006  0.4681 -0.1632
 2077SOL    HW1 6847   6.981   6.248   0.870 -0.2159  0.3273 -0.5130
 2077SOL    HW2 6848   7.028   6.378   0.932  1.2301 -0.1958 -0.4736
 2078SOL     OW 6849   2.483   0.572   2.478  0.2809  0.0062  0.0536
 2078SOL    HW1 6850   2.470   0.478   2.478  3.0143 -0.4891  1.7418
 2078SOL    HW2 6851   2.514   0.593   2.390  1.6160 -1.0452  0.2550
 2079SOL     OW 6852   4.439   6.973   6.942  0.0567  0.5793 -0.2683
 2079SOL    HW1 6853   4.503   7.017   6.887  0.2680 -0.2946 -0.7506
 2079SOL    HW2 6854   4.414   6.895   6.892  0.6287 -0.5029  1.0651
 2080SOL     OW 6855   6.220   4.251   4.036  0.4290 -0.4157  0.5213
 2080SOL    HW1 6856   6.230   4.217   3.948  0.7029 -1.8016  1.0661
 2080SOL    HW2 6857   6.225   4.174   4.093 -1.0169  0.2781  1.6717
 2081SOL     OW 6858   5.740   5.038   3.275  0.3141  0.6210 -0.5189
 2081SOL    HW1 6859   5.737   4.981   3.198 -1.0118  0.6134 -0.4887
 2081SOL    HW2 6860   5.815   5.007   3.325  0.1705 -0.5004 -0.9657
 2082SOL     OW 6861   5.961   0.477   3.064  0.6231  0.6328 -0.7869
 2082SOL    HW1 6862   5.989   0.476   3.156  1.2948  1.1458 -0.9749
 2082SOL    HW2 6863   5.873   0.515   3.066  0.4380  0.1845 -0.3083
 2083SOL     OW 6864   2.273   6.529   0.680 -0.5238 -0.0806  0.1748
 2083SOL    HW1 6865   2.332   6.595   0.715 -1.6137  0.8186  0.4033
 2083SOL    HW2 6866   2.325   6.480   0.618  0.2015  1.3248 -0.3727
 2084SOL     OW 6867   0.711   3.377   0.135 -0.2493  0.0805 -0.6888
 2084SOL    HW1 6868   0.708   3.290   0.175 -0.1956  0.4471  0.1395
 2084SOL    HW2 6869   0.621   3.396   0.112 -0.4856  0.3863  0.4353
 2085SOL     OW 6870   5.966   1.193   4.637  0.1011 -0.0677 -0.1756
 2085SOL    HW1 6871   6.019   1.215   4.560 -1.0578  0.4497 -0.8507
 2085SOL    HW2 6872   5.917   1.115   4.611 -0.3408  0.1431  0.0161
 2086SOL     OW 6873   3.560   2.127   3.908  0.4744  0.1579  0.6708
 2086SOL    HW1 6874   3.564   2.082   3.992  0.9151  2.6634  2.0914
 2086SOL    HW2 6875   3.467   2.125   3.883  0.4751 -1.3708  0.7447
 2087SOL     OW 6876   5.119   7.156   1.909 -0.6763 -0.1120 -0.2762
 2087SOL    HW1 6877   5.167   7.074   1.898 -0.0493  0.2779 -0.5308
 2087SOL    HW2 6878   5.188   7.222   1.921 -1.1082  0.5785 -1.4153
 2088SOL     OW 6879   4.659   3.707   0.555  0.2551  0.0346 -0.5217
 2088SOL    HW1 6880   4.567   3.717   0.533  0.7694  1.7180 -2.1177
 2088SOL    HW2 6881   4.691   3.796   0.568  1.6370 -0.5237  0.1802
 2089SOL     OW 6882   6.426   2.419   0.438 -0.2827  0.0473  0.1229
 2089SOL    HW1 6883   6.424   2.350   0.372 -0.8239  1.2165 -1.1313
 2089SOL    HW2 6884   6.519   2.430   0.458 -0.0479  0.1519 -0.9657
 2090SOL     OW 6885   5.639   0.483   4.987  0.0041  0.4134 -0.2097
 2090SOL    HW1 6886   5.686   0.546   5.041  0.1404  1.2097 -1.2369
 2090SOL    HW2 6887   5.587   0.432   5.049 -1.2029  2.4536  0.5385
 2091SOL     OW 6888   4.647   2.682   0.158 -0.1648 -0.3619  0.0067
 2091SOL    HW1 6889   4.657   2.587   0.156 -2.6934 -0.7054 -1.5632
 2091SOL    HW2 6890   4.658   2.705   0.250 -1.5839 -2.5071  0.8068
 2092SOL     OW 6891   3.688   7.256   4.416 -0.0797  0.2225  0.3597
 2092SOL    HW1 6892   3.617   7.247   4.480  0.3168 -1.3965  0.5999
 2092SOL    HW2 6893   3.654   7.217   4.336  1.1094 -2.3055  0.9762
 2093SOL     OW 6894   3.177   3.672   6.592  0.0974  0.2136 -0.4923
 2093SOL    HW1 6895   3.167   3.754   6.639  0.2349  0.0664 -0.2043
 2093SOL    HW2 6896   3.271   3.665   6.574  0.5146 -1.1651  1.8493
 2094SOL     OW 6897   4.591   1.629   6.133  0.1228 -0.1619  0.4558
 2094SOL    HW1 6898   4.664   1.572   6.106 -0.4437 -0.5298 -0.3759
 2094SOL    HW2 6899   4.607   1.647   6.225  0.2222 -1.8597  0.8101
 2095SOL     OW 6900   5.483   0.770   3.746  0.4716  0.2867 -0.6938
 2095SOL    HW1 6901   5.462   0.719   3.824  2.2959 -0.4902 -0.6630
 2095SOL    HW2 6902   5.428   0.732   3.677  1.4274 -1.4431 -0.5586
 2096SOL     OW 6903   4.452   4.992   6.554  0.1456  0.1261 -0.1480
 2096SOL    HW1 6904   4.396   4.982   6.477  0.9667  1.7761 -1.0293
 2096SOL    HW2 6905   4.394   5.023   6.623 -1.3129 -4.5254  1.0482
 2097SOL     OW 6906   5.061   4.822   1.144  0.7668  0.2286 -0.6939
 2097SOL    HW1 6907   4.982   4.874   1.130  1.6727  1.5186 -1.1901
 2097SOL    HW2 6908   5.048   4.744   1.089 -1.4270 -1.0741  1.4715
 2098SOL     OW 6909   3.800   1.069   4.041  0.1143  0.2215  0.0838
 2098SOL    HW1 6910   3.811   1.164   4.047 -0.4979  0.3205 -0.2372
 2098SOL    HW2 6911   3.886   1.033   4.064  0.7041  0.8932 -1.0134
 2099SOL     OW 6912   2.529   4.064   2.463  0.4305 -0.2463  0.2540
 2099SOL    HW1 6913   2.600   4.111   2.507  0.1660  1.5483 -1.1152
 2099SOL    HW2 6914   2.550   4.072   2.370 -0.0662 -2.2242 -0.0703
 2100SOL     OW 6915   2.542   6.276   1.739 -0.0807 -0.0206  0.2677
 2100SOL    HW1 6916   2.543   6.359   1.788 -0.6996  0.2328 -0.1440
 2100SOL    HW2 6917   2.463   6.232   1.769  0.6267 -0.8103  1.0389
 2101SOL     OW 6918   5.836   2.930   1.136  0.1107 -0.0583  0.2363
 2101SOL    HW1 6919   5.889   2.907   1.213  0.8659 -1.0538 -0.5544
 2101SOL    HW2 6920   5.749   2.897   1.157  0.9079 -2.8310 -0.4029
 2102SOL     OW 6921   0.483   6.342   0.886  0.2461 -0.5085  0.0401
 2102SOL    HW1 6922   0.462   6.341   0.792  0.9957  1.8541 -0.2133
 2102SOL    HW2 6923   0.571   6.304   0.890  1.2652  1.6288 -0.5967
 2103SOL     OW 6924   1.335   5.897   4.757  0.6841  0.2522  0.4507
 2103SOL    HW1 6925   1.335   5.885   4.852 -0.9127 -1.9459  0.2576
 2103SOL    HW2 6926   1.376   5.818   4.722  0.0690  0.4177 -0.7111
 2104SOL     OW 6927   6.461   4.386   7.250 -0.1058 -0.0915 -0.0606
 2104SOL    HW1 6928   6.530   4.449   7.228 -0.5245  0.1273 -0.7410
 2104SOL    HW2 6929   6.381   4.438   7.251 -0.4726 -0.6347 -0.7717
 2105SOL     OW 6930   2.328   3.269   0.147 -0.5395  0.1566 -0.2227
 2105SOL    HW1 6931   2.359   3.199   0.204 -1.4689  1.8442  2.5067
 2105SOL    HW2 6932   2.395   3.337   0.153  0.4973 -0.4269 -3.0755
 2106SOL     OW 6933   4.190   4.573   5.925 -0.4337  0.5087 -0.4348
 2106SOL    HW1 6934   4.178   4.650   5.980  0.9535  1.2958 -1.1878
 2106SOL    HW2 6935   4.263   4.526   5.965 -0.6062  0.1286 -0.5660
 2107SOL     OW 6936   6.658   5.903   3.834  0.3413  0.4807  0.6384
 2107SOL    HW1 6937   6.682   5.911   3.741 -0.0337 -1.4009  0.3430
 2107SOL    HW2 6938   6.569   5.939   3.838  0.9082  1.9551  0.5875
 2108SOL     OW 6939   5.036   4.167   4.957 -0.7437 -0.1749 -0.5953
 2108SOL    HW1 6940   5.113   4.215   4.988 -1.7656  1.8810 -1.0719
 2108SOL    HW2 6941   4.982   4.155   5.035 -1.2316  0.9258 -0.7586
 2109SOL     OW 6942   5.396   5.807   4.792 -0.1393 -0.8589  0.4314
 2109SOL    HW1 6943   5.464   5.873   4.806  1.1635 -1.6920 -1.4738
 2109SOL    HW2 6944   5.418   5.737   4.853 -0.7506 -0.1202  1.5271
 2110SOL     OW 6945   1.225   0.217   6.825 -0.1692 -0.6266 -0.2252
 2110SOL    HW1 6946   1.218   0.125   6.854 -0.7373 -1.4864 -2.8571
 2110SOL    HW2 6947   1.289   0.215   6.755 -1.3504  0.6847 -1.3951
 2111SOL     OW 6948   3.844   3.947   2.974  0.5193 -0.2205  0.2211
 2111SOL    HW1 6949   3.905   4.010   2.936 -1.7957  2.2967  0.2944
 2111SOL    HW2 6950   3.827   3.884   2.904  2.1800 -0.2176 -0.2096
 2112SOL     OW 6951   4.684   3.009   4.609  0.2837 -0.1464  0.5394
 2112SOL    HW1 6952   4.636   3.035   4.687 -0.3933  0.7956 -0.1690
 2112SOL    HW2 6953   4.774   3.037   4.625  0.3702 -0.8396  1.3673
 2113SOL     OW 6954   7.090   0.200   7.133  0.4704 -0.0519 -0.8737
 2113SOL    HW1 6955   7.034   0.274   7.112  1.8467  0.9126 -1.3164
 2113SOL    HW2 6956   7.083   0.141   7.058  1.4145  0.9406 -1.7903
 2114SOL     OW 6957   3.159   6.120   5.178  0.4307  0.5829  0.4879
 2114SOL    HW1 6958   3.187   6.162   5.097 -1.9434 -0.4818 -0.9962
 2114SOL    HW2 6959   3.217   6.045   5.187 -0.7595 -0.6991 -1.6531
 2115SOL     OW 6960   3.814   4.368   6.395 -0.0967 -0.0245  0.2288
 2115SOL    HW1 6961   3.887   4.372   6.457  1.7020  0.0853 -1.7495
 2115SOL    HW2 6962   3.782   4.457   6.389 -1.5701 -0.3464  2.3336
 2116SOL     OW 6963   1.781   0.406   5.521 -0.0009 -0.1046 -0.3398
 2116SOL    HW1 6964   1.709   0.344   5.531  0.4476 -0.4089  1.2997
 2116SOL    HW2 6965   1.825   0.379   5.441 -0.3081 -1.4008 -0.0924
 2117SOL     OW 6966   1.021   0.424   2.180 -0.1657 -0.5704  0.8610
 2117SOL    HW1 6967   1.039   0.371   2.257  0.6235  0.9412  1.7623
 2117SOL    HW2 6968   1.010   0.513   2.213 -0.2542  0.0445 -0.7186
 2118SOL     OW 6969   3.714   6.609   4.735 -0.1300  0.1436  0.5082
 2118SOL    HW1 6970   3.622   6.584   4.732 -0.2138  0.4140  0.8171
 2118SOL    HW2 6971   3.754   6.544   4.793 -0.3238  0.6421  1.2066
 2119SOL     OW 6972   2.479   6.298   3.430  0.3115  0.3816 -0.1773
 2119SOL    HW1 6973   2.409   6.363   3.432  1.2982  1.5489 -1.8162
 2119SOL    HW2 6974   2.558   6.347   3.409  1.4447 -1.0829  0.4533
 2120SOL     OW 6975   0.321   2.183   1.427  0.2283  0.3082  0.3399
 2120SOL    HW1 6976   0.415   2.165   1.429 -0.4019 -4.0207  0.4561
 2120SOL    HW2 6977   0.306   2.220   1.339  1.8697 -0.0190 -0.1177
 2121SOL     OW 6978   6.604   0.193   6.631  0.0611 -0.0451 -0.3462
 2121SOL    HW1 6979   6.657   0.127   6.588  0.7153 -0.0256  0.4066
 2121SOL    HW2 6980   6.525   0.147   6.658  0.1431 -0.3201 -0.5767
 2122SOL     OW 6981   3.581   4.111   4.062 -0.5402 -0.0005  0.0474
 2122SOL    HW1 6982   3.595   4.030   4.111  0.0996  0.3441  0.4520
 2122SOL    HW2 6983   3.652   4.169   4.091 -0.1360  0.2093 -1.3068
 2123SOL     OW 6984   5.968   0.144   7.053 -0.9468 -0.9721 -0.0943
 2123SOL    HW1 6985   5.979   0.174   6.963  0.3872 -0.2987  0.2686
 2123SOL    HW2 6986   6.038   0.187   7.102 -1.6359 -1.3238  1.2732
 2124SOL     OW 6987   5.729   4.808   1.363 -0.5004 -0.1042 -0.0414
 2124SOL    HW1 6988   5.648   4.855   1.385 -0.6899 -0.4755  0.0524
 2124SOL    HW2 6989   5.744   4.749   1.437  0.0808  0.2525  0.1353
 2125SOL     OW 6990   0.911   3.169   5.420 -0.8902  0.1558  0.1018
 2125SOL    HW1 6991   0.824   3.136   5.442 -1.2672  0.9827 -0.0984
 2125SOL    HW2 6992   0.953   3.098   5.372 -1.6014 -0.0931 -0.1573
 2126SOL     OW 6993   5.073   2.521   2.639  0.0102  0.1041 -0.6206
 2126SOL    HW1 6994   5.114   2.453   2.692  0.2563  1.1201  0.5221
 2126SOL    HW2 6995   5.124   2.600   2.657 -0.3182  0.6339 -1.8637
 2127SOL     OW 6996   0.750   1.460   2.173 -0.0083  0.3423  0.1966
 2127SOL    HW1 6997   0.685   1.391   2.179  0.0340  0.3668  1.1174
 2127SOL    HW2 6998   0.833   1.414   2.162 -0.2277  0.3280 -1.5866
 2128SOL     OW 6999   0.343   5.994   4.338 -0.3025  0.5231  0.0932
 2128SOL    HW1 7000   0.293   5.926   4.382  0.6589 -1.1581 -1.3227
 2128SOL    HW2 7001   0.384   6.044   4.409 -2.3641  0.7496  1.2087
 2129SOL     OW 7002   0.914   1.627   5.283 -0.6227  0.3157 -0.2935
 2129SOL    HW1 7003   0.950   1.708   5.247 -2.0470  0.0979 -2.4383
 2129SOL    HW2 7004   0.819   1.641   5.284 -0.7257 -0.1615  2.4495
 2130SOL     OW 7005   5.912   0.260   0.665  0.1148  0.4303  0.3582
 2130SOL    HW1 7006   5.898   0.238   0.573 -1.0531  1.3169  0.3105
 2130SOL    HW2 7007   5.977   0.330   0.663  0.9192 -0.3023  0.2872
 2131SOL     OW 7008   3.249   6.092   1.255 -0.3540  0.0646  0.2877
 2131SOL    HW1 7009   3.336   6.093   1.215  0.6158 -0.6706  2.2613
 2131SOL    HW2 7010   3.202   6.162   1.210  0.8676 -0.2652 -1.6197
 2132SOL     OW 7011   1.430   2.038   4.754 -0.5249  0.2538 -0.3840
 2132SOL    HW1 7012   1.497   2.102   4.734  0.3407 -0.2865  0.6608
 2132SOL    HW2 7013   1.415   2.048   4.848  0.3322 -1.6816  0.0113
 2133SOL     OW 7014   5.057   3.705   3.784 -0.9281  0.2743 -0.2366
 2133SOL    HW1 7015   5.002   3.629   3.803 -1.0895  0.0947 -1.3759
 2133SOL    HW2 7016   5.082   3.738   3.871 -0.5916 -1.2524  0.2773
 2134SOL     OW 7017   1.616   1.928   1.177 -0.2713 -0.0277  0.3977
 2134SOL    HW1 7018   1.587   1.883   1.098 -0.5742  0.3755  0.2690
 2134SOL    HW2 7019   1.642   2.015   1.147  2.3046 -0.7535  0.3167
 2135SOL     OW 7020   3.950   1.738   5.134 -0.1522  0.5591  0.7936
 2135SOL    HW1 7021   3.997   1.655   5.127  0.0526  0.7724 -0.5093
 2135SOL    HW2 7022   4.007   1.802   5.091  0.0762  1.5669  2.4597
 2136SOL     OW 7023   3.223   4.257   1.249 -0.1387 -0.6335  0.3045
 2136SOL    HW1 7024   3.250   4.342   1.214 -0.1348 -0.8178 -0.1355
 2136SOL    HW2 7025   3.141   4.237   1.203  0.9277 -1.8602 -1.1633
 2137SOL     OW 7026   2.441   0.426   1.064  0.1044 -0.0297  0.3254
 2137SOL    HW1 7027   2.429   0.465   1.151  1.0012 -0.1160  0.5008
 2137SOL    HW2 7028   2.435   0.332   1.079  3.5380 -0.2892  0.9428
 2138SOL     OW 7029   2.302   0.526   1.554  0.9404 -0.3741  0.7963
 2138SOL    HW1 7030   2.246   0.600   1.576 -0.8329 -1.1728 -0.8174
 2138SOL    HW2 7031   2.273   0.455   1.612  0.9183 -0.5389  0.5832
 2139SOL     OW 7032   4.984   2.797   1.160 -0.4342  0.1650 -0.5566
 2139SOL    HW1 7033   5.012   2.731   1.224 -1.7383 -0.1257 -0.2530
 2139SOL    HW2 7034   5.046   2.869   1.171 -0.3330 -0.0881  0.6986
 2140SOL     OW 7035   1.581   0.726   4.212  0.2424  0.3161 -0.3330
 2140SOL    HW1 7036   1.523   0.650   4.219 -1.0531  1.3777  1.4500
 2140SOL    HW2 7037   1.568   0.759   4.123 -0.8211 -0.3174 -0.4299
 2141SOL     OW 7038   2.788   4.078   3.348 -0.7032 -0.1521  0.6394
 2141SOL    HW1 7039   2.730   4.072   3.424  0.9461 -1.9817  1.8690
 2141SOL    HW2 7040   2.872   4.107   3.385 -0.4572  1.2557 -0.8932
 2142SOL     OW 7041   5.490   0.288   3.607  0.3895 -0.5337  0.4477
 2142SOL    HW1 7042   5.535   0.276   3.691  0.4845 -0.3037  0.4306
 2142SOL    HW2 7043   5.424   0.355   3.625  1.3307  0.5595  0.0015
 2143SOL     OW 7044   6.519   4.104   6.865  0.3660 -0.1586  0.3529
 2143SOL    HW1 7045   6.481   4.135   6.947  0.5531 -1.9647  1.1715
 2143SOL    HW2 7046   6.450   4.118   6.800  0.0334  0.8474  0.9058
 2144SOL     OW 7047   1.037   0.207   3.785  0.2076 -0.1559 -0.2914
 2144SOL    HW1 7048   1.073   0.127   3.825 -1.2545 -0.9326 -0.4712
 2144SOL    HW2 7049   0.947   0.212   3.818  0.5667  1.9954  0.5344
 2145SOL     OW 7050   4.626   1.409   5.503 -0.0335  0.1842  0.1117
 2145SOL    HW1 7051   4.535   1.436   5.490 -0.2424 -0.3909  0.3575
 2145SOL    HW2 7052   4.658   1.390   5.415  0.7817  3.2036 -0.3857
 2146SOL     OW 7053   4.245   4.434   5.411  0.7508  0.6839 -0.0375
 2146SOL    HW1 7054   4.172   4.469   5.359  1.1758  0.6560 -0.6572
 2146SOL    HW2 7055   4.209   4.427   5.500  0.1416  1.1079 -0.2424
 2147SOL     OW 7056   2.426   2.281   0.493  0.1243 -0.2855 -0.2079
 2147SOL    HW1 7057   2.357   2.219   0.517 -1.1622  1.7954  1.9320
 2147SOL    HW2 7058   2.508   2.233   0.508 -0.7905 -1.2076  2.2532
 2148SOL     OW 7059   3.050   5.753   7.022 -0.0365 -0.1446 -0.0428
 2148SOL    HW1 7060   2.993   5.788   6.953 -1.3528  0.2377  1.1826
 2148SOL    HW2 7061   3.050   5.659   7.007  0.0491 -0.0314 -0.8149
 2149SOL     OW 7062   0.529   7.049   7.003 -0.2516 -0.3221 -0.1054
 2149SOL    HW1 7063   0.505   7.119   7.064 -1.0244  0.6808 -1.5087
 2149SOL    HW2 7064   0.511   6.968   7.052 -1.7279  0.4434  0.7015
 2150SOL     OW 7065   7.046   4.867   3.583  0.0181 -0.3358  0.3015
 2150SOL    HW1 7066   7.056   4.928   3.510  1.8406 -0.5303  0.3649
 2150SOL    HW2 7067   6.999   4.918   3.650 -1.4119 -0.0655 -0.8462
 2151SOL     OW 7068   5.912   6.465   5.948 -1.2041 -0.5161  0.1549
 2151SOL    HW1 7069   5.986   6.406   5.936 -0.6367 -0.1082  1.5206
 2151SOL    HW2 7070   5.911   6.484   6.042 -2.0772  0.7420 -0.0888
 2152SOL     OW 7071   6.514   2.120   4.300 -0.2846 -0.5615  0.0371
 2152SOL    HW1 7072   6.449   2.165   4.246  1.0534  1.9594  0.3535
 2152SOL    HW2 7073   6.494   2.148   4.390  0.1441 -1.1907  0.3361
 2153SOL     OW 7074   1.994   3.686   3.199 -0.2868 -0.8677 -0.1047
 2153SOL    HW1 7075   2.020   3.638   3.278 -1.2247 -0.7885  0.2626
 2153SOL    HW2 7076   1.901   3.703   3.211 -0.0745  0.6820 -0.4260
 2154SOL     OW 7077   4.537   4.448   1.431 -0.5349  0.4523  0.1564
 2154SOL    HW1 7078   4.449   4.439   1.395  0.2458 -2.8099 -1.2900
 2154SOL    HW2 7079   4.595   4.440   1.356  1.0857  1.3073  1.2332
 2155SOL     OW 7080   6.401   4.530   1.412  0.1507  0.2456 -0.5532
 2155SOL    HW1 7081   6.420   4.525   1.319 -0.7853  1.1698 -0.8063
 2155SOL    HW2 7082   6.480   4.567   1.451  0.4168  0.1749 -1.0259
 2156SOL     OW 7083   4.845   6.067   2.721  0.0087 -0.1333  0.8959
 2156SOL    HW1 7084   4.867   6.088   2.630  0.0939 -0.7907  0.7575
 2156SOL    HW2 7085   4.906   5.997   2.745 -2.3661 -2.6332  0.2102
 2157SOL     OW 7086   0.521   4.566   6.247  0.4603  0.0579  0.5321
 2157SOL    HW1 7087   0.502   4.585   6.339 -0.8970 -0.2141  0.3380
 2157SOL    HW2 7088   0.435   4.553   6.207  1.0670 -0.6956 -0.5941
 2158SOL     OW 7089   6.044   5.704   6.812 -0.0691 -0.1044 -0.3346
 2158SOL    HW1 7090   6.129   5.746   6.818  0.7669 -1.4959 -1.7435
 2158SOL    HW2 7091   6.058   5.616   6.847 -1.5014  0.3329  1.4886
 2159SOL     OW 7092   3.328   5.456   4.608 -0.0361  0.5226 -0.2824
 2159SOL    HW1 7093   3.392   5.429   4.542 -0.3379 -0.3051 -0.2432
 2159SOL    HW2 7094   3.369   5.530   4.652  0.4291  0.6919 -0.9905
 2160SOL     OW 7095   5.575   3.641   2.519  0.1951  0.1510 -0.1006
 2160SOL    HW1 7096   5.648   3.675   2.572 -0.3277 -0.4337  1.0259
 2160SOL    HW2 7097   5.615   3.575   2.463  0.7712  0.8189 -0.4903
 2161SOL     OW 7098   2.640   6.852   4.378  0.0735 -0.0301  0.3680
 2161SOL    HW1 7099   2.691   6.914   4.326 -0.3612 -0.6186 -0.7838
 2161SOL    HW2 7100   2.557   6.898   4.393 -0.1214 -0.1933 -0.1945
 2162SOL     OW 7101   1.527   0.905   0.464 -0.0905  0.4908  0.2425
 2162SOL    HW1 7102   1.479   0.962   0.404 -0.0859  0.0979 -0.1350
 2162SOL    HW2 7103   1.570   0.841   0.408 -2.8582 -2.0786  0.7910
 2163SOL     OW 7104   5.753   4.208   0.983  0.6676  0.3679  0.0499
 2163SOL    HW1 7105   5.690   4.248   1.042 -0.5747  0.2339 -1.1568
 2163SOL    HW2 7106   5.802   4.146   1.039 -1.7643 -1.1832  0.5982
 2164SOL     OW 7107   5.519   1.059   0.351 -0.1014 -0.3435 -0.4279
 2164SOL    HW1 7108   5.599   1.109   0.338 -0.7217  0.3432 -1.7157
 2164SOL    HW2 7109   5.467   1.111   0.413 -0.3260  0.1390 -1.0124
 2165SOL     OW 7110   2.060   2.699   3.286  0.5760  0.0926  0.9411
 2165SOL    HW1 7111   2.143   2.671   3.325  0.4487 -1.4905  0.1305
 2165SOL    HW2 7112   2.073   2.792   3.268  1.9432  0.0120  1.3953
 2166SOL     OW 7113   3.501   2.720   0.049 -0.3017  0.2442  0.2197
 2166SOL    HW1 7114   3.584   2.739   0.093  0.3011  2.8279 -1.8135
 2166SOL    HW2 7115   3.523   2.719  -0.044 -2.4153  0.0444 -0.3287
 2167SOL     OW 7116   3.082   0.162   1.857 -0.1307  0.1066 -0.6910
 2167SOL    HW1 7117   3.100   0.163   1.763  0.7209  0.5727 -0.5373
 2167SOL    HW2 7118   3.141   0.228   1.892 -1.5593  1.0616 -0.0221
 2168SOL     OW 7119   6.092   1.765   6.752 -0.8689 -0.4256  0.1453
 2168SOL    HW1 7120   6.169   1.818   6.730 -2.8350  2.5243 -0.1087
 2168SOL    HW2 7121   6.127   1.695   6.808  2.0398  0.5096 -0.3180
 2169SOL     OW 7122   2.871   3.852   4.792  0.9445  0.0319  0.6583
 2169SOL    HW1 7123   2.823   3.900   4.859 -1.0902  0.4615 -1.0081
 2169SOL    HW2 7124   2.923   3.788   4.841 -1.1093 -0.2615  2.6129
 2170SOL     OW 7125   5.824   1.626   3.146  0.4718  0.4735  0.6180
 2170SOL    HW1 7126   5.775   1.567   3.204 -0.6699  0.9477  0.1681
 2170SOL    HW2 7127   5.914   1.595   3.152 -0.1813 -1.8473 -0.2044
 2171SOL     OW 7128   5.523   2.803   4.738  0.6276  0.0723 -0.7628
 2171SOL    HW1 7129   5.481   2.828   4.656 -1.9853 -3.2493 -0.6332
 2171SOL    HW2 7130   5.521   2.707   4.738  1.7016 -0.0867  2.6069
 2172SOL     OW 7131   0.387   0.644   5.644  0.5512  1.1004 -0.1950
 2172SOL    HW1 7132   0.468   0.608   5.679  0.9533  0.4450 -1.7429
 2172SOL    HW2 7133   0.359   0.708   5.710  0.3506 -1.2442  2.1594
 2173SOL     OW 7134   4.778   5.772   3.670  0.0942  0.3878 -0.5350
 2173SOL    HW1 7135   4.864   5.764   3.628  1.3809 -0.6182  2.0910
 2173SOL    HW2 7136   4.740   5.851   3.632  1.2600 -0.2362 -3.2583
 2174SOL     OW 7137   2.497   2.939   6.999 -0.9113 -0.7531  0.6479
 2174SOL    HW1 7138   2.497   3.035   6.998  0.0514 -0.6359 -3.3595
 2174SOL    HW2 7139   2.589   2.915   6.997 -1.1604 -1.7419  0.5875
 2175SOL     OW 7140   6.315   0.299   6.033  0.1630  0.3977 -0.0222
 2175SOL    HW1 7141   6.373   0.230   6.000 -1.4010  0.2325 -2.6277
 2175SOL    HW2 7142   6.362   0.380   6.015  1.0874  0.1545  1.1455
 2176SOL     OW 7143   2.454   2.560   3.652  1.2613  0.0672 -0.0798
 2176SOL    HW1 7144   2.453   2.482   3.595 -1.3652  0.5934 -0.9181
 2176SOL    HW2 7145   2.409   2.532   3.732 -1.1784  1.0297 -1.0136
 2177SOL     OW 7146   4.465   1.337   3.090  0.2163  0.5960 -0.2540
 2177SOL    HW1 7147   4.425   1.378   3.167 -0.6894 -1.0167  0.1748
 2177SOL    HW2 7148   4.411   1.363   3.017 -2.4938 -2.4149  0.4405
 2178SOL     OW 7149   3.086   1.000   1.615  0.2398 -0.2570  0.1711
 2178SOL    HW1 7150   3.056   0.984   1.705 -1.7660 -0.0012 -0.4077
 2178SOL    HW2 7151   3.067   1.092   1.599  0.2309 -0.3920 -0.6364
 2179SOL     OW 7152   6.135   3.862   5.880  0.1542 -0.0501  0.2164
 2179SOL    HW1 7153   6.077   3.806   5.932  0.2238 -1.1297 -0.8040
 2179SOL    HW2 7154   6.094   3.948   5.882 -0.5528 -0.3888  0.9307
 2180SOL     OW 7155   7.041   1.420   6.201  0.4686  0.2967  0.0153
 2180SOL    HW1 7156   7.006   1.508   6.218  0.7535  0.1929  1.2521
 2180SOL    HW2 7157   7.126   1.419   6.245 -0.9113 -1.6374  2.9514
 2181SOL     OW 7158   1.111   6.360   4.397  0.2915  0.2862  0.1221
 2181SOL    HW1 7159   1.091   6.419   4.324 -0.0715  2.0717  1.5895
 2181SOL    HW2 7160   1.207   6.363   4.405  0.4159 -0.5996 -0.7762
 2182SOL     OW 7161   6.464   3.038   2.510  0.6243 -0.0453  0.7600
 2182SOL    HW1 7162   6.372   3.019   2.531  0.8693 -0.7229  1.2117
 2182SOL    HW2 7163   6.514   2.999   2.581  1.3065 -0.1631  0.2211
 2183SOL     OW 7164   3.645   5.357   5.351  0.0729 -0.1037  0.9755
 2183SOL    HW1 7165   3.705   5.299   5.304 -1.2924 -1.0539  0.3341
 2183SOL    HW2 7166   3.659   5.336   5.444  1.1469  0.1204  0.8695
 2184SOL     OW 7167   6.826   3.015   6.412 -0.0465  0.1123 -0.1963
 2184SOL    HW1 7168   6.886   3.061   6.472  0.6544 -1.4068  0.3105
 2184SOL    HW2 7169   6.835   3.062   6.329 -0.7793  2.0624  0.7657
 2185SOL     OW 7170   6.911   6.091   6.378 -0.0763 -0.1059  0.3932
 2185SOL    HW1 7171   6.949   6.012   6.341 -2.6718 -1.3616  0.2097
 2185SOL    HW2 7172   6.925   6.158   6.310  0.4077 -0.8843 -0.2993
 2186SOL     OW 7173   2.273   6.056   1.606 -0.0269  0.1248 -0.1210
 2186SOL    HW1 7174   2.314   6.025   1.686 -0.4281  1.4668  0.6364
 2186SOL    HW2 7175   2.201   6.111   1.635 -0.5361  0.1840 -1.4120
 2187SOL     OW 7176   6.798   5.906   6.031  0.0676  0.4692  0.1930
 2187SOL    HW1 7177   6.766   5.955   5.956 -0.5706  1.5802  1.1579
 2187SOL    HW2 7178   6.893   5.902   6.019 -0.1262 -0.3675 -1.2408
 2188SOL     OW 7179   1.457   5.183   3.429 -0.0923  0.4412  0.3708
 2188SOL    HW1 7180   1.509   5.259   3.404 -2.5700  2.3665  0.7202
 2188SOL    HW2 7181   1.448   5.191   3.524  1.9982 -1.9948  0.8973
 2189SOL     OW 7182   0.199   5.583   0.850  0.0096 -0.1893  0.0492
 2189SOL    HW1 7183   0.126   5.523   0.865  0.2621 -0.2794  1.0134
 2189SOL    HW2 7184   0.245   5.547   0.774  1.2163 -2.2895  1.6675
 2190SOL     OW 7185   0.673   6.838   1.107 -0.1703 -0.2137  0.0494
 2190SOL    HW1 7186   0.767   6.843   1.124 -0.2772  2.2423  0.2925
 2190SOL    HW2 7187   0.660   6.752   1.066  2.0513 -0.8770  0.6123
 2191SOL     OW 7188   3.685   5.654   0.249  0.0388 -0.2916  0.1655
 2191SOL    HW1 7189   3.652   5.641   0.338 -0.2290 -1.4436 -0.0788
 2191SOL    HW2 7190   3.624   5.606   0.193 -0.2365  1.0561 -0.7324
 2192SOL     OW 7191   2.100   5.183   4.969 -0.5237  0.4463  0.4056
 2192SOL    HW1 7192   2.173   5.193   4.908  1.2560  0.5069  2.4506
 2192SOL    HW2 7193   2.052   5.266   4.962  0.0381  0.7186 -0.3884
 2193SOL     OW 7194   0.429   1.726   4.172 -0.0401  0.3006  0.0726
 2193SOL    HW1 7195   0.398   1.770   4.251 -1.3951  4.5406 -2.4698
 2193SOL    HW2 7196   0.354   1.675   4.142 -0.3801  0.7015  0.2320
 2194SOL     OW 7197   2.310   1.455   3.497  0.1332  0.2853 -0.5410
 2194SOL    HW1 7198   2.330   1.401   3.574 -0.0453  0.6197 -0.2586
 2194SOL    HW2 7199   2.305   1.392   3.425 -3.6659 -0.6407  0.3212
 2195SOL     OW 7200   5.312   2.080   4.672  0.0721  0.3405  0.4389
 2195SOL    HW1 7201   5.291   2.090   4.579  0.4985  1.8500  0.4951
 2195SOL    HW2 7202   5.238   2.118   4.718 -0.3964 -0.8981  0.7497
 2196SOL     OW 7203   3.419   2.452   6.726  0.3462  0.0695  0.5518
 2196SOL    HW1 7204   3.326   2.449   6.751  0.6634 -0.6742  1.7268
 2196SOL    HW2 7205   3.431   2.539   6.689 -1.3110 -0.5300 -1.6875
 2197SOL     OW 7206   2.103   6.397   0.834 -0.0623 -0.2461 -0.6132
 2197SOL    HW1 7207   2.020   6.388   0.786 -0.7168  1.2591  0.1812
 2197SOL    HW2 7208   2.150   6.464   0.786  1.5678 -2.3473 -2.1539
 2198SOL     OW 7209   6.544   1.587   0.615  0.5907 -0.1059 -0.2044
 2198SOL    HW1 7210   6.511   1.669   0.577  1.6782  0.2693 -0.3666
 2198SOL    HW2 7211   6.465   1.542   0.645  0.0713  1.9219  1.7586
 2199SOL     OW 7212   1.067   0.145   3.512 -0.0004 -0.0589 -0.3025
 2199SOL    HW1 7213   1.032   0.057   3.500  0.9790 -0.5458  0.3074
 2199SOL    HW2 7214   1.070   0.157   3.606 -0.0376  0.5945 -0.3808
 2200SOL     OW 7215   4.432   1.040   6.349  0.3090  0.3449 -0.6735
 2200SOL    HW1 7216   4.519   1.023   6.313  0.7624  0.7452  0.2031
 2200SOL    HW2 7217   4.376   0.975   6.306  1.2695 -0.7753 -0.2967
 2201SOL     OW 7218   0.992   5.595   4.012 -0.1847  0.1032 -0.1741
 2201SOL    HW1 7219   0.961   5.588   4.103 -2.1238  3.7980 -0.3365
 2201SOL    HW2 7220   0.914   5.578   3.960  1.1813 -3.2337 -1.3502
 2202SOL     OW 7221   3.955   5.605   2.712  0.3864 -0.4352  0.4218
 2202SOL    HW1 7222   3.938   5.512   2.698  2.4159 -1.0493  1.6404
 2202SOL    HW2 7223   3.970   5.613   2.806  2.7817  0.6317  0.0262
 2203SOL     OW 7224   1.337   3.155   4.005 -0.5545  0.1336  0.4333
 2203SOL    HW1 7225   1.344   3.060   4.005  2.1463  0.2446  1.1591
 2203SOL    HW2 7226   1.393   3.183   4.078 -1.7958  2.2647  0.6551
 2204SOL     OW 7227   1.959   4.556   2.026 -0.3589  0.2744  0.3657
 2204SOL    HW1 7228   1.955   4.488   2.094  0.1220  1.1735  1.3225
 2204SOL    HW2 7229   1.872   4.596   2.028 -0.5593 -0.1273 -0.0220
 2205SOL     OW 7230   2.813   7.137   5.903 -0.2688 -0.3375  0.0914
 2205SOL    HW1 7231   2.905   7.120   5.879 -0.4558 -1.2143 -0.0241
 2205SOL    HW2 7232   2.792   7.219   5.858  1.1911  1.2158  2.0512
 2206SOL     OW 7233   5.433   2.050   1.871  0.2288 -0.1351  0.3756
 2206SOL    HW1 7234   5.511   2.030   1.819  2.0993 -1.4588  3.4221
 2206SOL    HW2 7235   5.376   1.975   1.858 -0.8356  1.0130 -2.1784
 2207SOL     OW 7236   6.765   5.159   4.439 -0.4201 -0.5210 -0.4871
 2207SOL    HW1 7237   6.778   5.246   4.478 -3.1821 -0.0552 -0.3868
 2207SOL    HW2 7238   6.753   5.175   4.346  0.1504 -0.9298 -0.6350
 2208SOL     OW 7239   3.536   6.252   3.243  1.1200 -0.5130  0.8908
 2208SOL    HW1 7240   3.545   6.330   3.189  0.4767  0.2377  1.8271
 2208SOL    HW2 7241   3.585   6.184   3.196  1.2802  0.3202 -0.1847
 2209SOL     OW 7242   6.534   1.364   2.171 -0.3211 -0.6678  0.0948
 2209SOL    HW1 7243   6.572   1.301   2.111 -0.6088 -0.5052 -0.2620
 2209SOL    HW2 7244   6.561   1.334   2.258  0.7920 -0.4283 -0.1581
 2210SOL     OW 7245   6.028   1.300   5.635 -0.5764 -0.5842 -0.2523
 2210SOL    HW1 7246   6.082   1.228   5.667 -1.1662 -0.7339  0.4188
 2210SOL    HW2 7247   6.030   1.291   5.540  0.4061 -0.7090 -0.2248
 2211SOL     OW 7248   1.731   0.721   7.046  0.4611 -0.3449 -0.3654
 2211SOL    HW1 7249   1.641   0.722   7.079  0.7844  0.6275  0.5217
 2211SOL    HW2 7250   1.728   0.661   6.971 -0.7774 -0.8372  0.0525
 2212SOL     OW 7251   7.049   3.738   0.200  0.1214 -0.2282  0.2445
 2212SOL    HW1 7252   7.062   3.777   0.113 -0.2358  1.0999  0.7636
 2212SOL    HW2 7253   6.958   3.757   0.221  0.1522 -0.7121  0.8377
 2213SOL     OW 7254   6.755   0.297   1.662 -0.0004  0.1372  0.5850
 2213SOL    HW1 7255   6.847   0.283   1.641  0.0923 -0.4447  1.3276
 2213SOL    HW2 7256   6.756   0.359   1.735 -0.3477  2.8277 -1.5188
 2214SOL     OW 7257   1.240   4.373   1.729 -0.7535 -0.2048  0.1226
 2214SOL    HW1 7258   1.172   4.426   1.771 -0.1800  0.0265  0.7858
 2214SOL    HW2 7259   1.313   4.375   1.790  0.4027  0.7840 -1.2150
 2215SOL     OW 7260   4.727   4.535   5.993  0.5052  0.3710 -0.0874
 2215SOL    HW1 7261   4.699   4.448   5.963  0.0106  0.9007 -1.2255
 2215SOL    HW2 7262   4.699   4.539   6.084  0.7642 -0.7608  0.0573
 2216SOL     OW 7263   2.055   0.209   3.722  1.0243  0.5138  0.2413
 2216SOL    HW1 7264   1.992   0.279   3.739  0.6668  0.7142 -1.6554
 2216SOL    HW2 7265   2.010   0.129   3.751  0.7362  0.8876  0.8198
 2217SOL     OW 7266   0.071   0.507   2.370 -0.1180 -0.2911 -0.1089
 2217SOL    HW1 7267   0.153   0.475   2.408 -1.3160 -3.0041  0.4015
 2217SOL    HW2 7268   0.080   0.492   2.276  0.0687 -0.3635 -0.0797
 2218SOL     OW 7269   1.472   4.655   5.800  0.1570 -0.4239 -0.2078
 2218SOL    HW1 7270   1.502   4.580   5.850 -0.4498 -0.7087 -0.2659
 2218SOL    HW2 7271   1.428   4.711   5.864 -1.1426 -1.0667 -0.5019
 2219SOL     OW 7272   5.702   5.957   5.643 -0.4733 -0.1232  0.1392
 2219SOL    HW1 7273   5.659   6.042   5.656 -0.7120 -0.1082 -0.6851
 2219SOL    HW2 7274   5.633   5.901   5.607  0.2976  0.0583 -1.7352
 2220SOL     OW 7275   0.775   2.770   4.111  0.2813  0.1250  0.2337
 2220SOL    HW1 7276   0.697   2.771   4.167  0.0925 -0.0839 -0.0264
 2220SOL    HW2 7277   0.794   2.677   4.098 -0.1134  0.1676 -0.6653
 2221SOL     OW 7278   3.856   4.126   5.169  0.0790  0.2869 -0.2770
 2221SOL    HW1 7279   3.768   4.100   5.198  0.7211 -0.7991  0.8168
 2221SOL    HW2 7280   3.891   4.049   5.126 -0.3335  1.4546 -2.8707
 2222SOL     OW 7281   5.918   6.284   2.160 -0.5180 -0.4735 -0.4624
 2222SOL    HW1 7282   5.907   6.320   2.072  1.2607  2.6120  0.4150
 2222SOL    HW2 7283   5.892   6.355   2.219  1.8947 -1.0234  1.4597
 2223SOL     OW 7284   2.467   1.280   3.333 -0.0039  0.0038 -0.7776
 2223SOL    HW1 7285   2.485   1.190   3.305  0.9294  0.5606 -2.0372
 2223SOL    HW2 7286   2.516   1.335   3.273 -0.2746  1.3715  0.1900
 2224SOL     OW 7287   2.757   5.508   2.803  0.5785  0.3799 -0.4617
 2224SOL    HW1 7288   2.737   5.599   2.783  0.9595  0.6727  0.4069
 2224SOL    HW2 7289   2.799   5.512   2.890 -0.7730 -0.7681  0.2763
 2225SOL     OW 7290   3.144   6.281   1.071 -0.4742  0.0670  0.3788
 2225SOL    HW1 7291   3.149   6.362   1.122  0.2576  0.1286  0.2181
 2225SOL    HW2 7292   3.143   6.309   0.980  0.9193 -0.1308  0.2831
 2226SOL     OW 7293   4.115   6.543   2.198  0.2577  0.2475  0.0419
 2226SOL    HW1 7294   4.198   6.501   2.222  0.7107 -0.0311 -1.7915
 2226SOL    HW2 7295   4.071   6.560   2.281  1.4224 -1.1017  0.9844
 2227SOL     OW 7296   3.840   3.599   2.483  0.0857 -0.5655 -0.2650
 2227SOL    HW1 7297   3.856   3.634   2.570  0.7828 -1.1823 -0.1370
 2227SOL    HW2 7298   3.874   3.666   2.424  0.9309 -0.7852 -0.0339
 2228SOL     OW 7299   1.246   0.957   3.626 -0.6301  0.1137 -0.1687
 2228SOL    HW1 7300   1.170   1.014   3.634  0.3385  1.1742  2.1327
 2228SOL    HW2 7301   1.231   0.887   3.690  0.6873  0.7976  0.9239
 2229SOL     OW 7302   5.871   0.140   2.369 -0.0229 -0.2285 -0.5399
 2229SOL    HW1 7303   5.845   0.232   2.370  0.2518 -0.1280  1.2878
 2229SOL    HW2 7304   5.966   0.142   2.376  0.0404 -0.6496 -1.2192
 2230SOL     OW 7305   3.042   2.068   2.547 -0.2594 -0.3028 -0.0254
 2230SOL    HW1 7306   3.033   2.154   2.588  1.8603 -0.2379  0.4070
 2230SOL    HW2 7307   3.033   2.006   2.619  1.3439 -0.2729  0.2411
 2231SOL     OW 7308   2.357   2.464   3.885 -0.2458  0.3460 -0.7211
 2231SOL    HW1 7309   2.341   2.428   3.973 -4.0731  0.1096 -1.3565
 2231SOL    HW2 7310   2.331   2.556   3.892  1.0068  0.7631 -1.2615
 2232SOL     OW 7311   4.473   2.515   5.151 -0.0194  0.9127 -0.2387
 2232SOL    HW1 7312   4.392   2.487   5.109 -0.5416 -0.3196  1.4567
 2232SOL    HW2 7313   4.469   2.610   5.152  0.0947  1.0223 -2.9968
 2233SOL     OW 7314   2.353   3.026   5.568  0.0342  0.7693 -0.6135
 2233SOL    HW1 7315   2.286   2.961   5.547 -2.1730  2.5543  0.4613
 2233SOL    HW2 7316   2.360   3.080   5.490  0.0332  0.7486 -0.6281
 2234SOL     OW 7317   3.947   1.758   4.439  0.2243 -0.1399 -0.0320
 2234SOL    HW1 7318   3.957   1.731   4.531  1.2150 -1.1615 -0.4137
 2234SOL    HW2 7319   3.996   1.692   4.390 -1.1121 -0.1647 -1.3898
 2235SOL     OW 7320   4.300   0.381   6.396 -0.2495  0.4832  0.6980
 2235SOL    HW1 7321   4.395   0.397   6.391 -0.3145  0.9046  0.7070
 2235SOL    HW2 7322   4.276   0.352   6.309 -0.1657  0.7126  0.5965
 2236SOL     OW 7323   6.687   4.529   4.464 -0.0998  0.2214 -0.1760
 2236SOL    HW1 7324   6.682   4.457   4.528 -1.7315  0.7955  0.3922
 2236SOL    HW2 7325   6.771   4.516   4.421 -0.3812 -2.0962 -0.1658
 2237SOL     OW 7326   3.236   0.416   6.565  0.5200 -0.1289  0.3287
 2237SOL    HW1 7327   3.305   0.450   6.623 -0.0359  0.3370  0.7275
 2237SOL    HW2 7328   3.166   0.388   6.625 -0.9759  2.3168 -0.1424
 2238SOL     OW 7329   1.294   1.653   1.599 -0.2960 -0.3582 -0.5691
 2238SOL    HW1 7330   1.299   1.650   1.695 -0.1399  2.1962 -0.4040
 2238SOL    HW2 7331   1.348   1.580   1.570  2.1690  0.5550  1.3288
 2239SOL     OW 7332   2.205   2.684   6.059  0.2857 -0.1510  0.6063
 2239SOL    HW1 7333   2.295   2.690   6.028  0.0182 -0.0236 -0.1536
 2239SOL    HW2 7334   2.213   2.676   6.154  1.1333 -1.0915  0.4745
 2240SOL     OW 7335   0.168   2.377   6.297  0.1088 -0.2251  0.1551
 2240SOL    HW1 7336   0.093   2.367   6.356  1.2690 -0.7421  1.5979
 2240SOL    HW2 7337   0.135   2.347   6.212 -1.7927  1.1420  0.3456
 2241SOL     OW 7338   5.162   6.252   1.653 -0.3022  0.1778  0.5059
 2241SOL    HW1 7339   5.156   6.265   1.747  0.0980  1.0568  0.4171
 2241SOL    HW2 7340   5.071   6.247   1.624 -0.4316  0.2420  0.8945
 2242SOL     OW 7341   2.237   2.744   0.899 -0.2518 -0.4177 -0.7313
 2242SOL    HW1 7342   2.279   2.817   0.852  1.1573 -0.5395  0.2620
 2242SOL    HW2 7343   2.147   2.743   0.867 -0.0908  1.2812 -1.3341
 2243SOL     OW 7344   2.472   5.009   5.917  0.3727  0.1316 -0.2763
 2243SOL    HW1 7345   2.529   4.939   5.883 -0.0443 -0.0917 -0.5241
 2243SOL    HW2 7346   2.452   5.062   5.840 -0.5488 -0.3549 -0.3855
 2244SOL     OW 7347   1.380   1.590   3.459  0.1075 -0.1955 -0.3407
 2244SOL    HW1 7348   1.307   1.530   3.444  0.2574 -0.5316  0.2620
 2244SOL    HW2 7349   1.457   1.534   3.465  0.4875  0.1845 -1.3583
 2245SOL     OW 7350   1.057   6.341   0.891 -0.0881 -0.2036  0.2537
 2245SOL    HW1 7351   1.098   6.406   0.834 -0.7799  0.1378  0.1412
 2245SOL    HW2 7352   1.131   6.292   0.928  0.6623  2.3777  2.4868
 2246SOL     OW 7353   1.218   1.586   1.857 -0.2949  0.6196  0.2628
 2246SOL    HW1 7354   1.123   1.588   1.859 -0.2811  1.5981  0.6714
 2246SOL    HW2 7355   1.244   1.637   1.934  0.5560  2.3091 -1.1063
 2247SOL     OW 7356   6.673   0.456   0.056 -0.0438 -0.2580 -0.1778
 2247SOL    HW1 7357   6.623   0.489  -0.019  0.5354 -0.4455 -0.6527
 2247SOL    HW2 7358   6.614   0.391   0.097 -1.2905  1.4671  0.9160
 2248SOL     OW 7359   1.604   1.670   6.150 -0.1720 -0.4994 -0.4773
 2248SOL    HW1 7360   1.566   1.620   6.078  0.2165  0.0570 -1.0784
 2248SOL    HW2 7361   1.627   1.755   6.111 -1.5489  0.4488  0.7076
 2249SOL     OW 7362   6.218   5.957   3.960  0.2229  0.3936  0.1359
 2249SOL    HW1 7363   6.134   5.970   3.917 -0.4849  2.7425  1.9884
 2249SOL    HW2 7364   6.202   5.887   4.024 -0.2036  0.5655  0.2153
 2250SOL     OW 7365   2.780   3.543   6.385 -0.7143  0.3859 -0.7964
 2250SOL    HW1 7366   2.841   3.611   6.358 -0.3701  0.3877 -0.0316
 2250SOL    HW2 7367   2.693   3.581   6.368 -0.5774  1.6892  1.1381
 2251SOL     OW 7368   4.956   6.040   5.511  0.1103  0.3464 -0.0004
 2251SOL    HW1 7369   4.913   6.027   5.596 -1.3362 -1.1949 -0.9088
 2251SOL    HW2 7370   4.899   6.103   5.465 -0.2170 -0.3375 -0.5476
 2252SOL     OW 7371   3.702   2.125   4.883 -0.4305  0.7342 -0.8858
 2252SOL    HW1 7372   3.697   2.059   4.951  0.8765  0.5288 -0.9629
 2252SOL    HW2 7373   3.645   2.093   4.813  1.0269 -0.9007 -1.3908
 2253SOL     OW 7374   1.240   3.535   2.299 -0.1840 -0.3626  0.7415
 2253SOL    HW1 7375   1.251   3.487   2.381 -2.1134  0.5582  1.5989
 2253SOL    HW2 7376   1.258   3.626   2.322  2.2898 -0.4098 -0.6015
 2254SOL     OW 7377   2.005   2.459   0.937  0.3306  0.2446  0.3393
 2254SOL    HW1 7378   1.922   2.504   0.924  0.2539 -0.3099 -1.2312
 2254SOL    HW2 7379   2.042   2.500   1.016 -0.9524  1.1838  0.4860
 2255SOL     OW 7380   3.401   1.610   6.255 -0.4836 -0.2692 -0.0806
 2255SOL    HW1 7381   3.491   1.602   6.224 -0.2986 -4.3117  0.9339
 2255SOL    HW2 7382   3.370   1.692   6.216  3.4893  1.2276 -0.6466
 2256SOL     OW 7383   3.671   1.161   1.496 -0.6207 -0.0579 -0.5292
 2256SOL    HW1 7384   3.626   1.245   1.501  0.4842  0.4851  0.8807
 2256SOL    HW2 7385   3.616   1.107   1.439 -0.1480  2.3564 -3.5001
 2257SOL     OW 7386   2.356   4.069   6.185  0.0263 -0.2865  0.4751
 2257SOL    HW1 7387   2.401   4.094   6.104 -1.9150  0.8655 -0.3308
 2257SOL    HW2 7388   2.381   4.136   6.248 -0.5629  0.3913  0.0101
 2258SOL     OW 7389   6.967   0.396   4.997 -0.1229 -0.0719  1.0592
 2258SOL    HW1 7390   6.895   0.334   4.999 -2.2089  2.1090 -0.5343
 2258SOL    HW2 7391   6.993   0.406   5.089 -2.7155 -0.0351  1.8599
 2259SOL     OW 7392   6.279   1.678   2.043  0.6257  0.0357 -0.0872
 2259SOL    HW1 7393   6.304   1.748   1.983 -3.4707 -0.1313 -2.3356
 2259SOL    HW2 7394   6.301   1.597   1.996 -1.7286 -0.0906 -1.0944
 2260SOL     OW 7395   4.147   6.371   1.867  0.1410  0.0717  0.1064
 2260SOL    HW1 7396   4.104   6.303   1.815 -0.0486 -0.3265  0.7711
 2260SOL    HW2 7397   4.225   6.329   1.903  0.7098  0.5832 -0.5078
 2261SOL     OW 7398   5.543   5.245   3.318  0.1989 -0.3148  0.1300
 2261SOL    HW1 7399   5.493   5.204   3.247  1.8962  0.8996 -1.8803
 2261SOL    HW2 7400   5.621   5.189   3.327  0.5822  0.2212  0.1653
 2262SOL     OW 7401   3.366   5.825   6.007 -0.0594  0.2904  1.3097
 2262SOL    HW1 7402   3.301   5.837   5.938  2.2090  3.2355 -0.5423
 2262SOL    HW2 7403   3.346   5.894   6.071  0.9218  0.8971  0.9733
 2263SOL     OW 7404   2.976   6.613   4.515  0.4360 -0.4395  0.6228
 2263SOL    HW1 7405   2.992   6.692   4.566 -1.8444 -0.3044  1.2265
 2263SOL    HW2 7406   2.947   6.646   4.429 -2.4960 -0.4571  1.4850
 2264SOL     OW 7407   5.901   3.945   2.511  0.0941 -0.4654 -0.2167
 2264SOL    HW1 7408   5.987   3.959   2.552  1.1441 -2.4280 -1.5792
 2264SOL    HW2 7409   5.844   3.918   2.583  1.4863 -2.3355  0.2633
 2265SOL     OW 7410   4.174   5.382   5.041  0.3458 -0.1235  0.0562
 2265SOL    HW1 7411   4.236   5.337   4.984  0.7363 -1.8474  1.7163
 2265SOL    HW2 7412   4.206   5.365   5.130 -0.4699  2.0823  0.8459
 2266SOL     OW 7413   6.318   2.168   4.552 -0.0748  0.5758  0.1285
 2266SOL    HW1 7414   6.239   2.220   4.537  0.1489  1.1568  0.8867
 2266SOL    HW2 7415   6.297   2.081   4.520 -1.8869  0.0690  2.4358
 2267SOL     OW 7416   7.126   2.744   1.799 -0.2179 -0.6629 -0.1858
 2267SOL    HW1 7417   7.057   2.803   1.769 -0.0220 -0.0071  0.6025
 2267SOL    HW2 7418   7.191   2.744   1.728 -0.6147 -0.5991 -0.5499
 2268SOL     OW 7419   6.895   6.150   2.705  0.1284  0.4584 -0.1809
 2268SOL    HW1 7420   6.824   6.159   2.641 -1.2864  0.6160  1.3663
 2268SOL    HW2 7421   6.969   6.196   2.664  0.3369 -2.1583 -3.1390
 2269SOL     OW 7422   1.007   1.050   2.618  0.5340 -0.4559  0.5808
 2269SOL    HW1 7423   0.993   1.008   2.703 -0.5110  1.4984  1.4247
 2269SOL    HW2 7424   0.969   1.137   2.627  0.8913  0.0067 -1.7314
 2270SOL     OW 7425   0.128   6.253   2.038 -0.0395  0.2029 -0.7270
 2270SOL    HW1 7426   0.143   6.333   1.987  0.7532 -0.7243 -2.0045
 2270SOL    HW2 7427   0.103   6.188   1.972 -1.1429 -0.4921  0.3509
 2271SOL     OW 7428   2.979   0.606   0.337  0.4160 -0.1338 -0.3683
 2271SOL    HW1 7429   2.926   0.685   0.351  0.7368  0.1002 -0.4618
 2271SOL    HW2 7430   3.018   0.619   0.250 -0.7175 -1.0812 -1.0495
 2272SOL     OW 7431   5.966   3.527   4.183  0.0499 -0.5966 -0.3864
 2272SOL    HW1 7432   6.012   3.510   4.101 -0.1362  0.6567 -0.7598
 2272SOL    HW2 7433   6.029   3.504   4.252  0.1630 -1.7655 -0.8521
 2273SOL     OW 7434   5.193   2.658   0.783 -0.1123  0.1253  1.0877
 2273SOL    HW1 7435   5.133   2.729   0.808 -0.2500  0.0729  0.9104
 2273SOL    HW2 7436   5.137   2.594   0.740  0.0649  0.0511  0.9660
 2274SOL     OW 7437   1.241   1.466   5.913  0.3944  0.5645 -0.4927
 2274SOL    HW1 7438   1.172   1.401   5.911  1.5947 -0.7921  0.1364
 2274SOL    HW2 7439   1.216   1.530   5.846 -1.7377  0.4624  0.1361
 2275SOL     OW 7440   4.430   6.775   6.212 -0.0704  0.1311  0.2170
 2275SOL    HW1 7441   4.479   6.692   6.215 -1.2262 -0.6202 -0.7433
 2275SOL    HW2 7442   4.378   6.775   6.292  0.3530  0.2041  0.4943
 2276SOL     OW 7443   3.412   3.036   0.088 -0.1681  0.4853 -0.9856
 2276SOL    HW1 7444   3.322   3.007   0.103 -0.8486  2.1084 -1.7506
 2276SOL    HW2 7445   3.463   2.955   0.089 -1.5139 -0.3939  0.2286
 2277SOL     OW 7446   6.278   5.155   3.291 -0.0723  0.2282  0.2600
 2277SOL    HW1 7447   6.231   5.145   3.209 -0.9709  1.2797  0.6133
 2277SOL    HW2 7448   6.358   5.202   3.268 -0.1724  0.2399 -0.0597
 2278SOL     OW 7449   6.606   1.890   0.835 -0.1384 -0.0102 -0.0896
 2278SOL    HW1 7450   6.520   1.906   0.796  0.9674  1.7529 -2.0534
 2278SOL    HW2 7451   6.616   1.960   0.900  0.3675  0.7455 -0.9496
 2279SOL     OW 7452   2.641   0.281   6.847 -0.8491 -0.1074  0.5936
 2279SOL    HW1 7453   2.668   0.336   6.920 -1.7080 -0.3690  1.1212
 2279SOL    HW2 7454   2.559   0.321   6.816  0.1119  0.7310 -1.0304
 2280SOL     OW 7455   0.538   6.568   3.159 -0.5348 -0.3544  0.2603
 2280SOL    HW1 7456   0.600   6.627   3.203 -1.2595 -1.1115  2.4584
 2280SOL    HW2 7457   0.477   6.627   3.114 -0.2027  0.5381  0.9320
 2281SOL     OW 7458   6.919   6.616   6.483 -0.0242 -0.5494 -0.5917
 2281SOL    HW1 7459   6.933   6.530   6.444  1.7765 -0.1742 -0.8559
 2281SOL    HW2 7460   7.007   6.649   6.500 -0.7103  0.6702  0.7960
 2282SOL     OW 7461   3.916   2.699   1.076 -0.3452 -0.4114  0.0384
 2282SOL    HW1 7462   3.848   2.730   1.015  0.0372  0.1414 -0.1089
 2282SOL    HW2 7463   3.960   2.779   1.105 -1.1745 -0.5642  1.8368
 2283SOL     OW 7464   4.622   5.267   6.866  0.2532  0.2172  0.0271
 2283SOL    HW1 7465   4.639   5.255   6.773 -0.2230  0.5576 -0.1061
 2283SOL    HW2 7466   4.598   5.180   6.898  2.8954 -0.4712  0.3808
 2284SOL     OW 7467   6.716   4.615   0.971 -0.5100 -0.3540 -0.5243
 2284SOL    HW1 7468   6.741   4.680   0.906 -0.4927 -0.7666 -0.9305
 2284SOL    HW2 7469   6.729   4.659   1.055  3.6434 -1.1193 -0.5224
 2285SOL     OW 7470   5.881   6.943   1.305 -0.0282  0.0062  0.3634
 2285SOL    HW1 7471   5.844   6.858   1.280 -0.3881 -0.3553  2.0494
 2285SOL    HW2 7472   5.838   7.006   1.246 -4.0066 -0.2766  2.5984
 2286SOL     OW 7473   6.001   0.955   5.761  0.1131 -0.2572 -0.1876
 2286SOL    HW1 7474   6.055   1.028   5.732 -1.9064  0.6475 -1.9706
 2286SOL    HW2 7475   6.063   0.884   5.777  1.8168  0.2065 -3.6341
 2287SOL     OW 7476   0.558   3.184   4.130 -0.1501 -0.1084 -0.6210
 2287SOL    HW1 7477   0.496   3.208   4.199  0.4406  0.5269 -0.3065
 2287SOL    HW2 7478   0.516   3.110   4.086 -1.2770  0.4974 -0.6047
 2288SOL     OW 7479   0.789   1.912   6.383  0.2544  0.1352  0.4230
 2288SOL    HW1 7480   0.707   1.901   6.335 -0.4074 -1.3930  1.8102
 2288SOL    HW2 7481   0.833   1.985   6.339 -1.5491  0.5788 -0.7485
 2289SOL     OW 7482   5.826   3.859   6.359 -0.5017  0.1658 -0.7155
 2289SOL    HW1 7483   5.793   3.827   6.442 -0.4551 -1.3697 -1.2597
 2289SOL    HW2 7484   5.754   3.843   6.297  0.1366 -0.4186 -1.3189
 2290SOL     OW 7485   2.738   2.223   2.450  0.1300  0.0917  0.4238
 2290SOL    HW1 7486   2.818   2.239   2.500 -0.1149 -0.0575  0.8694
 2290SOL    HW2 7487   2.671   2.207   2.516 -0.3764  0.6922  0.0636
 2291SOL     OW 7488   6.873   3.107   2.762  0.1263  0.0217  0.2599
 2291SOL    HW1 7489   6.884   3.160   2.841 -0.3718 -0.5912  0.7515
 2291SOL    HW2 7490   6.955   3.058   2.755 -0.3596 -0.9445  1.1816
 2292SOL     OW 7491   0.501   2.850   5.453 -0.4524 -0.0656 -0.8985
 2292SOL    HW1 7492   0.417   2.895   5.447 -0.0343  0.6494 -1.5448
 2292SOL    HW2 7493   0.487   2.766   5.410 -0.8521  0.0213 -0.9389
 2293SOL     OW 7494   4.283   6.986   4.034 -0.0347  0.1188 -0.2532
 2293SOL    HW1 7495   4.203   6.943   4.005  0.2648  0.1306 -1.1216
 2293SOL    HW2 7496   4.283   6.975   4.129 -0.5747 -0.7223 -0.3402
 2294SOL     OW 7497   3.758   3.153   6.320 -0.4597  0.2468  0.4570
 2294SOL    HW1 7498   3.849   3.182   6.309 -0.6617  0.4078 -0.8854
 2294SOL    HW2 7499   3.705   3.229   6.296 -0.9760  0.2683  1.5671
 2295SOL     OW 7500   3.229   4.666   1.730 -0.2940 -0.1996 -0.0460
 2295SOL    HW1 7501   3.250   4.573   1.737  0.6973 -0.1178 -1.3972
 2295SOL    HW2 7502   3.314   4.709   1.718 -0.6830  0.9615  1.1531
 2296SOL     OW 7503   2.822   6.204   1.352 -0.2815 -0.0449 -0.5587
 2296SOL    HW1 7504   2.811   6.143   1.280 -0.1703 -0.8085  0.0582
 2296SOL    HW2 7505   2.735   6.211   1.391 -0.3385  0.3548 -0.7510
 2297SOL     OW 7506   3.389   1.323   4.159  0.2201 -0.7278 -0.0771
 2297SOL    HW1 7507   3.453   1.361   4.220 -0.2547  1.1717 -0.6911
 2297SOL    HW2 7508   3.443   1.281   4.092  0.8421  0.3436 -0.2723
 2298SOL     OW 7509   4.166   0.050   7.243 -0.3469 -0.0402 -0.2926
 2298SOL    HW1 7510   4.247   0.007   7.271 -1.0802 -0.4735  1.2621
 2298SOL    HW2 7511   4.159   0.127   7.300 -1.6172 -0.6613  0.4298
 2299SOL     OW 7512   6.625   3.606   2.166  0.1582 -0.7936  0.0524
 2299SOL    HW1 7513   6.536   3.625   2.193  0.5054  0.3879  0.4200
 2299SOL    HW2 7514   6.658   3.546   2.233  0.4038  0.6480  1.2777
 2300SOL     OW 7515   6.941   2.768   2.043 -0.4539  0.0994 -0.2921
 2300SOL    HW1 7516   6.938   2.684   1.998  0.5021 -0.3242  0.4044
 2300SOL    HW2 7517   6.855   2.775   2.086  0.1819 -1.5197  1.3582
 2301SOL     OW 7518   0.147   0.267   0.416  0.7839  0.1927 -0.4037
 2301SOL    HW1 7519   0.110   0.338   0.363  0.3987 -0.3327 -0.8470
 2301SOL    HW2 7520   0.235   0.296   0.438  0.5093  0.9642 -0.2862
 2302SOL     OW 7521   6.611   3.137   4.228  0.2795  0.3482 -0.1002
 2302SOL    HW1 7522   6.587   3.221   4.267 -0.1626 -0.2139  0.8681
 2302SOL    HW2 7523   6.697   3.153   4.188  0.0272  1.3566 -0.2652
 2303SOL     OW 7524   3.074   5.636   6.100 -0.1829  0.1280 -0.0200
 2303SOL    HW1 7525   3.072   5.725   6.135 -1.4818 -0.2547  0.9729
 2303SOL    HW2 7526   2.994   5.596   6.134  0.4370 -1.4522 -0.3653
 2304SOL     OW 7527   1.160   5.384   1.921  0.0572  0.2196  0.3833
 2304SOL    HW1 7528   1.068   5.391   1.946  0.0898  1.3894  0.2094
 2304SOL    HW2 7529   1.160   5.397   1.826  0.4618  0.7943  0.4598
 2305SOL     OW 7530   4.717   6.434   1.551 -0.0294 -0.0655  0.0541
 2305SOL    HW1 7531   4.770   6.510   1.526  0.6562 -0.3993  0.4495
 2305SOL    HW2 7532   4.656   6.467   1.617 -2.3455  1.0011 -2.4315
 2306SOL     OW 7533   1.130   0.537   1.928 -0.3590 -0.0950  0.4862
 2306SOL    HW1 7534   1.102   0.519   2.018  0.8744  0.0775  0.9183
 2306SOL    HW2 7535   1.217   0.576   1.937  0.0998 -0.7528 -0.8136
 2307SOL     OW 7536   3.190   5.749   2.054 -0.1657  0.4780 -0.4849
 2307SOL    HW1 7537   3.141   5.820   2.012 -0.5160 -0.5126 -1.8209
 2307SOL    HW2 7538   3.170   5.757   2.147 -1.1439  1.3974 -0.7580
 2308SOL     OW 7539   1.150   5.037   3.629  0.0987  0.1300 -0.1783
 2308SOL    HW1 7540   1.210   5.013   3.559 -0.1982  1.1468 -0.7999
 2308SOL    HW2 7541   1.063   5.011   3.596  0.0178  0.1153  0.0445
 2309SOL     OW 7542   3.484   0.802   5.468 -0.0918  0.2714  0.2633
 2309SOL    HW1 7543   3.416   0.808   5.535 -1.8931  2.3366 -1.6099
 2309SOL    HW2 7544   3.552   0.862   5.498  0.2440 -0.6178  1.3639
 2310SOL     OW 7545   0.994   1.600   2.648  0.1510  0.0447 -0.6915
 2310SOL    HW1 7546   1.066   1.571   2.592 -1.0569  0.6172 -2.6742
 2310SOL    HW2 7547   1.036   1.634   2.726  2.1850  1.6635 -2.3588
 2311SOL     OW 7548   4.724   2.779   1.223  0.4114 -0.0800  0.3555
 2311SOL    HW1 7549   4.810   2.805   1.189  1.0013  1.7887  2.9697
 2311SOL    HW2 7550   4.740   2.694   1.265  0.8113 -0.0962  0.1738
 2312SOL     OW 7551   0.225   5.838   6.971  0.3557  0.4608  0.2995
 2312SOL    HW1 7552   0.187   5.871   6.890 -0.8571 -1.4627  0.0102
 2312SOL    HW2 7553   0.161   5.861   7.039 -0.1830 -0.6676  0.1929
 2313SOL     OW 7554   0.450   5.309   2.387  0.4350  0.6207  0.2164
 2313SOL    HW1 7555   0.476   5.226   2.427  2.3112  0.5308 -1.0661
 2313SOL    HW2 7556   0.521   5.369   2.408 -0.3756  1.6025  0.1903
 2314SOL     OW 7557   1.539   1.219   5.430 -0.5000  0.3970 -0.1430
 2314SOL    HW1 7558   1.491   1.159   5.487 -0.1702  0.0159 -0.2615
 2314SOL    HW2 7559   1.528   1.305   5.471  1.3192 -0.1135  1.5764
 2315SOL     OW 7560   6.741   2.712   6.667 -0.4768 -0.4396  0.3553
 2315SOL    HW1 7561   6.667   2.736   6.723 -0.7373  0.1958 -0.2574
 2315SOL    HW2 7562   6.758   2.620   6.689 -1.3514 -0.5519  0.6032
 2316SOL     OW 7563   0.168   3.083   1.876  0.2754  0.2576  0.0749
 2316SOL    HW1 7564   0.156   3.030   1.954 -0.0507 -0.2591 -0.3193
 2316SOL    HW2 7565   0.175   3.020   1.805 -0.1562  0.7429 -0.4090
 2317SOL     OW 7566   2.864   3.426   3.201 -0.5683  0.3402 -0.1798
 2317SOL    HW1 7567   2.850   3.333   3.181 -1.6913  0.4511  0.0015
 2317SOL    HW2 7568   2.827   3.473   3.126  2.9196  0.6535 -1.9011
 2318SOL     OW 7569   5.413   4.823   6.979 -0.3473 -0.0704  0.2440
 2318SOL    HW1 7570   5.397   4.729   6.986 -2.6121  0.1958 -0.4808
 2318SOL    HW2 7571   5.440   4.849   7.068 -1.3938 -1.1341  0.8989
 2319SOL     OW 7572   1.238   4.691   6.314 -0.3432 -0.3094  0.0118
 2319SOL    HW1 7573   1.241   4.764   6.252 -2.2247  0.2764  0.5316
 2319SOL    HW2 7574   1.233   4.613   6.260 -0.9260  0.1331 -0.5889
 2320SOL     OW 7575   3.326   3.075   6.340 -0.4580  0.4053  0.4533
 2320SOL    HW1 7576   3.234   3.070   6.313  0.3084 -1.2523 -2.2053
 2320SOL    HW2 7577   3.357   2.985   6.336  1.4849  1.0300  0.5357
 2321SOL     OW 7578   0.125   2.773   4.438  0.4694 -0.0898  0.1618
 2321SOL    HW1 7579   0.046   2.748   4.486  0.1486 -0.3512 -0.4909
 2321SOL    HW2 7580   0.187   2.704   4.458 -0.4142 -1.4841 -1.6320
 2322SOL     OW 7581   4.540   5.235   2.849 -0.2655 -0.3832  0.4863
 2322SOL    HW1 7582   4.560   5.320   2.808  0.0748 -0.9673 -0.5903
 2322SOL    HW2 7583   4.600   5.174   2.808  0.0250 -1.0297  1.8194
 2323SOL     OW 7584   0.422   3.918   3.006  0.4975  0.3080 -0.2288
 2323SOL    HW1 7585   0.436   3.870   3.088  2.3993  0.2386 -0.5452
 2323SOL    HW2 7586   0.442   4.009   3.027  1.9278  0.1527 -0.7899
 2324SOL     OW 7587   2.754   3.969   2.170 -0.1014  0.2115 -0.2269
 2324SOL    HW1 7588   2.668   3.928   2.178  1.0712 -2.2388  1.0294
 2324SOL    HW2 7589   2.786   3.943   2.084  0.0348 -0.2841 -0.0296
 2325SOL     OW 7590   6.556   4.405   5.815  0.1895  0.1335  0.1509
 2325SOL    HW1 7591   6.628   4.409   5.879  2.3253  1.3091 -2.1580
 2325SOL    HW2 7592   6.561   4.317   5.778  1.0345  0.4841 -0.5994
 2326SOL     OW 7593   4.271   6.526   0.022 -0.0858  0.0088 -0.0633
 2326SOL    HW1 7594   4.265   6.442   0.069  0.1306 -0.4410 -0.8270
 2326SOL    HW2 7595   4.258   6.592   0.090 -2.0218 -0.6584  0.2867
 2327SOL     OW 7596   6.300   4.586   0.817  0.0470  0.6934  0.2226
 2327SOL    HW1 7597   6.388   4.555   0.794  0.2354  0.2818  1.4245
 2327SOL    HW2 7598   6.251   4.582   0.735  0.7172 -0.5434 -0.1420
 2328SOL     OW 7599   2.989   4.804   5.002 -0.0129  0.3463  0.1874
 2328SOL    HW1 7600   2.901   4.836   5.021 -0.3151 -0.2749 -0.1692
 2328SOL    HW2 7601   2.983   4.769   4.913  0.4442 -0.2468  0.3904
 2329SOL     OW 7602   2.181   5.200   2.827 -0.0709  0.2112 -0.0163
 2329SOL    HW1 7603   2.262   5.186   2.779 -0.4961  0.9002 -0.9635
 2329SOL    HW2 7604   2.168   5.295   2.825 -0.6720  0.1492  0.5226
 2330SOL     OW 7605   4.092   0.986   0.289 -0.2189 -0.1183 -0.2745
 2330SOL    HW1 7606   4.091   0.943   0.374 -0.2570  2.1011  0.9292
 2330SOL    HW2 7607   4.000   0.997   0.266 -0.2093 -0.6435 -0.5758
 2331SOL     OW 7608   3.838   0.314   5.198 -0.1398 -0.1023  0.4435
 2331SOL    HW1 7609   3.905   0.275   5.142 -0.2364 -0.6127  0.6828
 2331SOL    HW2 7610   3.802   0.386   5.145  1.1018  0.6706  0.5969
 2332SOL     OW 7611   5.756   6.854   0.936 -0.2569 -0.0252 -0.4893
 2332SOL    HW1 7612   5.661   6.849   0.943 -0.2863  1.2380  0.1054
 2332SOL    HW2 7613   5.787   6.858   1.026  0.3310  0.0930 -0.6921
 2333SOL     OW 7614   4.523   7.171   3.880  0.3404  0.7258  0.4346
 2333SOL    HW1 7615   4.472   7.200   3.956  0.4790 -0.2521  0.9122
 2333SOL    HW2 7616   4.605   7.219   3.886  0.3138  0.7231  0.8515
 2334SOL     OW 7617   6.830   3.259   6.586  0.2323  0.3693 -0.1370
 2334SOL    HW1 7618   6.756   3.287   6.533 -0.2148  0.0300  0.2982
 2334SOL    HW2 7619   6.792   3.201   6.652  1.0365 -0.7228 -0.5995
 2335SOL     OW 7620   3.239   1.505   3.874 -0.2241  0.2711  0.0020
 2335SOL    HW1 7621   3.219   1.517   3.781  0.7154  0.8223 -0.1412
 2335SOL    HW2 7622   3.335   1.503   3.877 -0.2029 -3.0090  0.5431
 2336SOL     OW 7623   2.074   2.482   3.061 -0.4192  0.1160 -0.0602
 2336SOL    HW1 7624   1.997   2.425   3.068 -1.1985  1.2009  0.5085
 2336SOL    HW2 7625   2.038   2.571   3.058  0.7299  0.5763 -1.5932
 2337SOL     OW 7626   5.401   3.180   3.295  0.1522 -0.3627  0.1831
 2337SOL    HW1 7627   5.426   3.120   3.365  1.0058 -3.4056 -2.4905
 2337SOL    HW2 7628   5.469   3.170   3.229 -1.9233  0.3146 -2.2222
 2338SOL     OW 7629   1.939   6.384   4.805 -0.1240 -0.0878 -0.0362
 2338SOL    HW1 7630   1.850   6.352   4.816  0.7633 -2.3069  1.6496
 2338SOL    HW2 7631   1.954   6.383   4.711 -1.7326 -0.0536 -0.3153
 2339SOL     OW 7632   6.376   1.995   4.930  0.1006  0.0320 -0.1633
 2339SOL    HW1 7633   6.294   1.949   4.914 -0.4326  0.6112  0.8212
 2339SOL    HW2 7634   6.384   2.057   4.857  0.2386 -0.7936 -0.8610
 2340SOL     OW 7635   1.680   5.524   2.025 -0.2146 -0.0971  0.1408
 2340SOL    HW1 7636   1.714   5.533   2.114 -1.3733 -1.9286  0.8311
 2340SOL    HW2 7637   1.713   5.439   1.995 -1.3422 -0.3465 -0.4425
 2341SOL     OW 7638   3.300   1.881   6.650 -0.2967 -0.2673  0.3032
 2341SOL    HW1 7639   3.241   1.933   6.595 -0.1715 -2.2261 -1.8390
 2341SOL    HW2 7640   3.244   1.849   6.721 -0.7262  1.4326  0.7799
 2342SOL     OW 7641   1.844   0.469   4.912  0.3446 -0.5853 -0.9369
 2342SOL    HW1 7642   1.789   0.547   4.919 -2.1905 -2.3831  2.7193
 2342SOL    HW2 7643   1.906   0.478   4.984 -0.6979 -2.3242  0.2376
 2343SOL     OW 7644   3.331   2.629   5.961  0.0674  0.0539  0.1054
 2343SOL    HW1 7645   3.370   2.714   5.942  0.2777 -0.1756 -0.5300
 2343SOL    HW2 7646   3.404   2.574   5.987  0.3479 -0.5968 -1.8484
 2344SOL     OW 7647   0.770   4.837   4.907  0.5893 -0.4860  0.2313
 2344SOL    HW1 7648   0.765   4.757   4.855  1.8205 -0.2584 -0.2773
 2344SOL    HW2 7649   0.757   4.907   4.843 -2.8778 -0.2355  0.9968
 2345SOL     OW 7650   4.954   0.207   5.491  0.4884 -0.0181  0.9405
 2345SOL    HW1 7651   4.967   0.225   5.585 -0.3049 -0.1605  1.0822
 2345SOL    HW2 7652   4.923   0.289   5.455  4.3921  1.2589  0.0111
 2346SOL     OW 7653   2.797   4.499   5.738 -0.1494  0.5433 -0.4241
 2346SOL    HW1 7654   2.809   4.506   5.643  1.5878  1.6879 -0.1756
 2346SOL    HW2 7655   2.757   4.582   5.764 -3.5139 -0.9288 -0.4558
 2347SOL     OW 7656   4.386   2.910   7.106  0.0449  0.0368 -0.2811
 2347SOL    HW1 7657   4.444   2.921   7.181 -1.2809 -1.9256  1.1416
 2347SOL    HW2 7658   4.434   2.949   7.032  3.0131 -1.1616  0.8590
 2348SOL     OW 7659   4.201   0.415   5.090  0.1227 -0.1773  0.1708
 2348SOL    HW1 7660   4.154   0.436   5.010  0.1902  1.0555  0.4353
 2348SOL    HW2 7661   4.290   0.395   5.062  0.3103  0.8755 -0.0150
 2349SOL     OW 7662   6.824   6.220   5.294  0.0225  0.3225 -0.0895
 2349SOL    HW1 7663   6.851   6.148   5.351 -0.8308  0.5839  0.6718
 2349SOL    HW2 7664   6.881   6.293   5.319 -0.7001  0.5932  0.8340
 2350SOL     OW 7665   1.786   2.697   0.203 -0.1537  0.1279 -0.4081
 2350SOL    HW1 7666   1.843   2.746   0.144  0.5459  1.1527  1.0664
 2350SOL    HW2 7667   1.716   2.758   0.225 -0.0511 -0.0181  0.3313
 2351SOL     OW 7668   0.939   2.315   6.622 -0.5152 -0.1817 -0.0394
 2351SOL    HW1 7669   0.960   2.405   6.596 -1.2112  0.5127  1.6894
 2351SOL    HW2 7670   0.892   2.279   6.546 -1.6737  1.4689 -0.1577
 2352SOL     OW 7671   6.606   2.291   1.879 -0.2185 -0.3620 -0.4437
 2352SOL    HW1 7672   6.651   2.266   1.959  2.4469 -0.5073 -1.8755
 2352SOL    HW2 7673   6.561   2.212   1.850  0.9569 -1.0595 -0.4190
 2353SOL     OW 7674   2.647   4.395   5.046  0.4511 -0.1824  0.9094
 2353SOL    HW1 7675   2.710   4.433   5.107 -0.4330  2.1915  0.4781
 2353SOL    HW2 7676   2.562   4.424   5.079 -0.2740 -1.6480  0.3802
 2354SOL     OW 7677   6.102   4.498   2.372 -0.4108  0.6145 -0.1907
 2354SOL    HW1 7678   6.104   4.484   2.278 -1.7905  0.1708 -0.1820
 2354SOL    HW2 7679   6.194   4.507   2.398 -0.0062  0.4645 -1.5277
 2355SOL     OW 7680   3.595   2.918   6.066 -0.1420  0.1009 -0.0700
 2355SOL    HW1 7681   3.646   2.845   6.031  0.2947 -0.6738  2.0470
 2355SOL    HW2 7682   3.633   2.936   6.152 -0.1080  2.9930 -0.5886
 2356SOL     OW 7683   2.295   1.641   1.296 -0.0349 -0.5702  0.4658
 2356SOL    HW1 7684   2.330   1.639   1.207 -0.7307 -1.5401  0.1936
 2356SOL    HW2 7685   2.365   1.680   1.348  0.8053 -0.9547 -0.3291
 2357SOL     OW 7686   5.253   0.645   6.106 -0.2995 -0.4233 -0.0611
 2357SOL    HW1 7687   5.178   0.597   6.141  0.4593 -2.0567 -0.5518
 2357SOL    HW2 7688   5.316   0.647   6.178 -0.3877 -0.0157  0.0068
 2358SOL     OW 7689   1.156   5.803   5.135 -0.6857  0.3056 -0.4425
 2358SOL    HW1 7690   1.235   5.832   5.088 -1.6049  0.8514 -1.7149
 2358SOL    HW2 7691   1.185   5.790   5.225  0.3566  2.8030 -0.3325
 2359SOL     OW 7692   5.198   1.234   3.078 -0.4256  0.2877 -0.2450
 2359SOL    HW1 7693   5.244   1.282   3.147  0.2293 -0.8611  0.1456
 2359SOL    HW2 7694   5.107   1.262   3.085 -0.3639  0.2006  1.0697
 2360SOL     OW 7695   3.494   0.503   3.943 -0.6682 -0.6417  0.2940
 2360SOL    HW1 7696   3.470   0.589   3.908 -0.6684 -0.6234  0.3398
 2360SOL    HW2 7697   3.590   0.503   3.941 -0.6615 -0.4922  0.6580
 2361SOL     OW 7698   3.458   2.971   0.911  0.2013  0.4486 -0.2154
 2361SOL    HW1 7699   3.543   2.995   0.875  0.0149  0.9104 -0.3600
 2361SOL    HW2 7700   3.413   2.926   0.839 -0.1304  1.2763 -0.5427
 2362SOL     OW 7701   5.123   5.758   6.288  0.2031  0.2784 -0.2960
 2362SOL    HW1 7702   5.200   5.786   6.337 -0.9047  1.1844  1.0246
 2362SOL    HW2 7703   5.069   5.837   6.282 -0.2446 -0.1098 -1.9770
 2363SOL     OW 7704   4.856   6.861   0.181 -0.0700  0.9736  0.0951
 2363SOL    HW1 7705   4.896   6.779   0.209  0.7692  0.5348 -2.2518
 2363SOL    HW2 7706   4.828   6.902   0.263 -0.2015 -1.4499  1.3751
 2364SOL     OW 7707   2.000   1.949   4.673 -0.5296  0.2143 -0.2244
 2364SOL    HW1 7708   1.989   1.998   4.592  4.6057 -0.9727 -2.0202
 2364SOL    HW2 7709   1.985   1.858   4.649 -1.0666  0.0455  0.7173
 2365SOL     OW 7710   2.092   2.032   2.389 -0.2715  0.4619 -0.0242
 2365SOL    HW1 7711   2.065   2.035   2.481 -0.9348  2.2713 -0.2339
 2365SOL    HW2 7712   2.188   2.029   2.392 -0.2327  1.7552  0.7488
 2366SOL     OW 7713   4.803   0.586   5.586 -0.0971 -0.0458  0.2848
 2366SOL    HW1 7714   4.842   0.506   5.622 -0.2735 -0.5181 -0.5579
 2366SOL    HW2 7715   4.827   0.585   5.494 -1.6737 -0.0897 -0.1545
 2367SOL     OW 7716   5.353   3.620   0.832 -0.3611  0.1206  0.1483
 2367SOL    HW1 7717   5.318   3.695   0.785 -0.5786 -0.3611 -0.4715
 2367SOL    HW2 7718   5.379   3.558   0.764  0.4373 -0.0951  0.6298
 2368SOL     OW 7719   4.809   5.334   4.925 -0.0034  0.6973  0.1113
 2368SOL    HW1 7720   4.819   5.240   4.911 -0.6175  0.8719 -1.7486
 2368SOL    HW2 7721   4.847   5.349   5.012  2.0411 -0.9204 -0.4193
 2369SOL     OW 7722   4.357   2.960   1.777  0.3693 -0.1986 -0.0034
 2369SOL    HW1 7723   4.372   3.054   1.763  0.9453 -0.5682 -2.2535
 2369SOL    HW2 7724   4.313   2.955   1.862  2.2651  1.9290  1.2109
 2370SOL     OW 7725   6.086   6.580   2.256 -0.0945 -0.2053  0.3687
 2370SOL    HW1 7726   6.118   6.492   2.234  1.3047  0.6887 -1.3394
 2370SOL    HW2 7727   6.132   6.603   2.337 -0.3693 -0.9826  0.7543
 2371SOL     OW 7728   3.505   1.783   3.216 -0.3004 -0.0767  0.1366
 2371SOL    HW1 7729   3.569   1.804   3.149  0.8537 -2.3133  0.4501
 2371SOL    HW2 7730   3.530   1.696   3.248 -1.4412  0.4307  2.7047
 2372SOL     OW 7731   2.822   1.882   0.355  0.2995  0.1314  0.6918
 2372SOL    HW1 7732   2.855   1.842   0.436 -0.2866 -0.7532  0.5015
 2372SOL    HW2 7733   2.860   1.970   0.355  2.4234 -0.7159  0.6458
 2373SOL     OW 7734   6.452   3.996   1.571  0.4669 -0.3272  0.3933
 2373SOL    HW1 7735   6.390   4.015   1.641 -0.1149  0.3208 -0.2918
 2373SOL    HW2 7736   6.455   4.075   1.518 -1.3419 -1.7556 -2.0273
 2374SOL     OW 7737   4.284   5.568   1.568 -0.4740 -0.3421  0.3339
 2374SOL    HW1 7738   4.331   5.501   1.519  1.2515  0.9266  0.1728
 2374SOL    HW2 7739   4.352   5.613   1.619 -0.9498  3.2738 -1.8507
 2375SOL     OW 7740   0.281   1.455   0.641 -0.3793  0.3738 -0.1094
 2375SOL    HW1 7741   0.186   1.440   0.646 -0.3154  0.2834  1.4854
 2375SOL    HW2 7742   0.292   1.515   0.568 -1.4058 -1.4338 -1.8449
 2376SOL     OW 7743   5.130   2.292   4.760  0.1145 -0.3115 -0.3409
 2376SOL    HW1 7744   5.046   2.254   4.733  0.4302 -1.1504 -0.1585
 2376SOL    HW2 7745   5.109   2.344   4.837  0.1472 -2.4924  1.2063
 2377SOL     OW 7746   4.374   0.669   6.811  0.2982  0.3142 -0.6453
 2377SOL    HW1 7747   4.318   0.604   6.854  0.1785  0.1937 -0.9839
 2377SOL    HW2 7748   4.391   0.633   6.725 -0.3022  1.0367 -1.0789
 2378SOL     OW 7749   1.022   1.401   4.116 -0.0404  0.2669  0.1880
 2378SOL    HW1 7750   1.113   1.414   4.089  0.0664  1.4032  1.0551
 2378SOL    HW2 7751   1.028   1.348   4.195 -0.0880  0.9591  0.6581
 2379SOL     OW 7752   6.035   6.723   5.334  0.1671 -0.0191 -0.3649
 2379SOL    HW1 7753   5.977   6.649   5.320 -0.9370  0.8738 -0.6182
 2379SOL    HW2 7754   6.117   6.697   5.291  0.6061 -2.0270  1.5299
 2380SOL     OW 7755   5.864   4.564   1.489  0.5423  0.1521 -0.2921
 2380SOL    HW1 7756   5.885   4.564   1.396  1.5181 -0.7179 -0.0851
 2380SOL    HW2 7757   5.807   4.488   1.501  1.6881 -0.6857  0.0651
 2381SOL     OW 7758   1.128   3.315   4.619 -0.1261  0.2226 -0.1554
 2381SOL    HW1 7759   1.210   3.266   4.614 -0.9054 -1.4498  1.8137
 2381SOL    HW2 7760   1.143   3.382   4.685 -0.8397 -1.3223  1.6692
 2382SOL     OW 7761   4.804   0.909   3.556  0.4560  0.3692  1.2915
 2382SOL    HW1 7762   4.739   0.972   3.587  0.7789  1.7558 -0.6637
 2382SOL    HW2 7763   4.753   0.843   3.508  0.3279  0.4313  1.3427
 2383SOL     OW 7764   3.953   4.074   0.599 -0.1758  0.4633 -0.4617
 2383SOL    HW1 7765   3.936   3.998   0.543 -0.4459 -1.8124  2.4752
 2383SOL    HW2 7766   4.041   4.103   0.575  0.7866 -2.1053 -0.3047
 2384SOL     OW 7767   4.589   6.838   5.950  0.5336  0.3724 -0.0850
 2384SOL    HW1 7768   4.678   6.874   5.953  1.5899 -2.0053 -0.2774
 2384SOL    HW2 7769   4.550   6.861   6.034  1.2530  1.5786 -0.0595
 2385SOL     OW 7770   0.294   5.691   0.258  0.3358 -0.6913  0.2563
 2385SOL    HW1 7771   0.332   5.754   0.197 -1.4320  0.7347  0.5622
 2385SOL    HW2 7772   0.199   5.697   0.244  0.0205 -2.0650  1.4881
 2386SOL     OW 7773   6.618   6.902   4.126  0.1511  0.1847  0.4541
 2386SOL    HW1 7774   6.601   6.940   4.040 -0.6184 -0.4605  0.3058
 2386SOL    HW2 7775   6.691   6.842   4.112  1.2948  1.4830  0.6643
 2387SOL     OW 7776   4.671   2.773   0.409 -0.4835 -0.2166 -0.1065
 2387SOL    HW1 7777   4.632   2.739   0.490 -0.8211 -0.2692 -0.2901
 2387SOL    HW2 7778   4.705   2.859   0.434 -1.9534  0.4447 -0.2695
 2388SOL     OW 7779   2.682   5.155   6.963  0.5787 -0.3096 -0.4166
 2388SOL    HW1 7780   2.750   5.088   6.972  0.3923 -0.6797 -1.5940
 2388SOL    HW2 7781   2.658   5.151   6.871 -1.2629 -0.4053  0.0430
 2389SOL     OW 7782   1.410   6.484   6.735 -0.2973 -0.0126 -0.1841
 2389SOL    HW1 7783   1.431   6.463   6.644 -0.4804 -0.3053 -0.1589
 2389SOL    HW2 7784   1.416   6.401   6.782  1.3130  0.3841  0.3788
 2390SOL     OW 7785   4.975   0.586   0.323 -0.0582 -0.5038  0.0913
 2390SOL    HW1 7786   4.889   0.628   0.317 -0.0470 -0.4757  0.1232
 2390SOL    HW2 7787   4.977   0.524   0.251  0.4315  0.4774 -0.7681
 2391SOL     OW 7788   4.705   2.384   4.321 -0.4019 -0.4279 -0.5378
 2391SOL    HW1 7789   4.684   2.415   4.233 -0.1802  0.7748 -0.1788
 2391SOL    HW2 7790   4.644   2.429   4.378  2.4760  2.6148  0.4461
 2392SOL     OW 7791   6.563   6.535   6.054  0.2006 -0.1330  0.1204
 2392SOL    HW1 7792   6.579   6.626   6.080 -0.4359 -0.1013  0.4369
 2392SOL    HW2 7793   6.509   6.542   5.975  1.8342 -0.2335 -1.0486
 2393SOL     OW 7794   4.109   4.785   6.542 -0.0202  0.3183  0.1287
 2393SOL    HW1 7795   4.166   4.804   6.616  1.5153  0.2227 -0.9714
 2393SOL    HW2 7796   4.108   4.689   6.536 -0.1898  0.3230  0.0639
 2394SOL     OW 7797   3.462   3.506   7.171  0.5071  0.2994 -0.1239
 2394SOL    HW1 7798   3.499   3.525   7.258  0.1364 -0.1489  0.1409
 2394SOL    HW2 7799   3.442   3.412   7.175 -0.9499  0.5953 -0.1392
 2395SOL     OW 7800   2.109   6.185   3.732  0.2594 -0.0901  0.1626
 2395SOL    HW1 7801   2.062   6.199   3.649  1.8543 -0.8739 -0.9208
 2395SOL    HW2 7802   2.042   6.152   3.792 -0.8177 -0.0809 -0.9919
 2396SOL     OW 7803   1.387   4.660   4.008 -0.1875  0.0901 -0.0710
 2396SOL    HW1 7804   1.481   4.659   3.992 -0.1625 -1.0021  0.0617
 2396SOL    HW2 7805   1.348   4.658   3.921 -0.1042  1.4938 -0.1535
 2397SOL     OW 7806   2.375   2.587   4.276  0.0043  0.6652  0.4162
 2397SOL    HW1 7807   2.463   2.590   4.238 -0.0457 -0.3994  0.1781
 2397SOL    HW2 7808   2.382   2.524   4.347 -0.4881  0.8307  0.6129
 2398SOL     OW 7809   0.292   2.919   2.759 -0.3334 -0.0624  0.2843
 2398SOL    HW1 7810   0.272   2.826   2.759  0.5250 -0.2605 -0.1590
 2398SOL    HW2 7811   0.285   2.946   2.850 -1.2341 -0.4082  0.3240
 2399SOL     OW 7812   0.381   4.969   6.321  0.4215 -0.7050  0.3780
 2399SOL    HW1 7813   0.296   4.946   6.358 -0.1590  0.3170 -0.2786
 2399SOL    HW2 7814   0.374   4.945   6.229  0.1738  1.0226 -0.0865
 2400SOL     OW 7815   3.772   6.770   2.665  0.1326  0.0722 -0.2063
 2400SOL    HW1 7816   3.798   6.742   2.753 -1.3666 -0.6578  0.0404
 2400SOL    HW2 7817   3.852   6.764   2.613  0.5899 -1.6283  0.6171
 2401SOL     OW 7818   4.390   2.052   2.162  0.4058  0.8090  0.1238
 2401SOL    HW1 7819   4.399   2.081   2.071 -2.0111 -2.5970 -1.4232
 2401SOL    HW2 7820   4.338   2.121   2.204  0.1335  1.6785 -1.5385
 2402SOL     OW 7821   0.384   3.088   0.379 -0.1060 -0.2217  0.1637
 2402SOL    HW1 7822   0.364   3.118   0.468  0.3010 -2.0801  0.9360
 2402SOL    HW2 7823   0.300   3.057   0.345 -0.0887 -0.3661  0.2519
 2403SOL     OW 7824   4.107   4.957   7.220  0.9315 -0.3299  0.9785
 2403SOL    HW1 7825   4.146   4.918   7.141  0.6636 -2.8602  2.0152
 2403SOL    HW2 7826   4.018   4.981   7.194  1.8149  1.9351 -0.3232
 2404SOL     OW 7827   0.254   5.132   3.883 -0.2298  0.3408  0.4473
 2404SOL    HW1 7828   0.218   5.221   3.879  0.8635  0.7499 -1.4033
 2404SOL    HW2 7829   0.177   5.075   3.887 -0.9533  1.3387  1.3673
 2405SOL     OW 7830   1.664   3.905   4.601 -0.0896  0.1710  0.2678
 2405SOL    HW1 7831   1.702   3.939   4.682 -1.1473 -0.2819  0.9806
 2405SOL    HW2 7832   1.726   3.931   4.533  1.4920 -0.5435  1.3702
 2406SOL     OW 7833   6.751   4.366   1.584  0.0268 -0.4078 -0.0173
 2406SOL    HW1 7834   6.846   4.359   1.574 -0.1316 -1.8787 -0.8505
 2406SOL    HW2 7835   6.717   4.363   1.494 -0.7998  0.2397  0.2645
 2407SOL     OW 7836   4.780   4.714   2.046 -0.5186  0.3946 -0.1946
 2407SOL    HW1 7837   4.776   4.625   2.009 -0.7931  0.7369 -1.0161
 2407SOL    HW2 7838   4.866   4.719   2.087 -1.2509 -0.9251  1.6431
 2408SOL     OW 7839   4.701   0.209   4.622 -0.0639  0.1483 -0.3922
 2408SOL    HW1 7840   4.632   0.150   4.590 -0.5727  0.7224 -0.3556
 2408SOL    HW2 7841   4.750   0.232   4.543  0.9422 -1.3371 -0.2349
 2409SOL     OW 7842   3.632   3.521   4.945  0.2985  0.7598 -0.3294
 2409SOL    HW1 7843   3.622   3.440   4.995  0.7083  1.1897  0.4665
 2409SOL    HW2 7844   3.565   3.515   4.876 -0.3790  0.2294  0.3553
 2410SOL     OW 7845   7.101   1.651   3.067 -0.1102 -0.2161 -0.0541
 2410SOL    HW1 7846   7.182   1.669   3.115  1.1473 -0.8097 -1.8297
 2410SOL    HW2 7847   7.069   1.569   3.104 -1.4390  1.3072  2.4843
 2411SOL     OW 7848   5.624   0.163   1.314  0.0359  0.3349  0.1948
 2411SOL    HW1 7849   5.536   0.201   1.305  0.2365  0.9235  0.6290
 2411SOL    HW2 7850   5.609   0.075   1.348 -0.4980 -0.4076 -1.8397
 2412SOL     OW 7851   0.001   2.848   1.999  0.0978  0.3698 -0.6892
 2412SOL    HW1 7852  -0.031   2.844   1.909 -1.0229 -1.1503 -0.2636
 2412SOL    HW2 7853  -0.078   2.841   2.052  0.9974 -2.7086  0.4153
 2413SOL     OW 7854   2.834   3.782   3.271 -0.2983  0.5249 -0.2934
 2413SOL    HW1 7855   2.777   3.856   3.250 -1.4402 -0.3876 -0.5336
 2413SOL    HW2 7856   2.820   3.719   3.200 -1.7401 -1.2255  1.4222
 2414SOL     OW 7857   2.834   4.330   6.299 -0.2900  0.2995  0.1072
 2414SOL    HW1 7858   2.874   4.375   6.224 -0.8156 -0.4949 -0.6705
 2414SOL    HW2 7859   2.878   4.367   6.376  1.2666  0.1420 -0.6626
 2415SOL     OW 7860   2.064   1.479   4.482  0.5224 -0.3312  0.1059
 2415SOL    HW1 7861   2.091   1.456   4.571 -1.2643 -0.2984  0.6930
 2415SOL    HW2 7862   1.970   1.460   4.480  0.2288  1.0987 -1.3114
 2416SOL     OW 7863   1.771   5.979   2.142  0.2983  0.3042  0.6938
 2416SOL    HW1 7864   1.705   6.046   2.161  0.2098  0.1652  0.8784
 2416SOL    HW2 7865   1.733   5.926   2.073 -0.2049 -0.3770  1.4760
 2417SOL     OW 7866   2.522   1.573   2.592  0.7965 -0.1989  0.4453
 2417SOL    HW1 7867   2.443   1.608   2.635 -0.2678  1.2965 -2.4807
 2417SOL    HW2 7868   2.582   1.648   2.587 -0.3633  0.7053 -3.2807
 2418SOL     OW 7869   0.313   1.676   2.352 -0.5954  0.0377 -0.0805
 2418SOL    HW1 7870   0.226   1.712   2.333 -0.5036 -0.1233 -0.8599
 2418SOL    HW2 7871   0.374   1.737   2.309 -0.2901  0.4341  0.8967
 2419SOL     OW 7872   3.145   3.694   5.204 -0.5182 -0.0330 -0.4139
 2419SOL    HW1 7873   3.149   3.767   5.265  1.5466  0.7486 -1.3921
 2419SOL    HW2 7874   3.237   3.676   5.182 -0.9148 -3.1937  0.0776
 2420SOL     OW 7875   5.047   2.054   1.856 -0.7311 -0.0039 -0.0364
 2420SOL    HW1 7876   5.010   1.989   1.796 -0.5669 -0.1919  0.0648
 2420SOL    HW2 7877   5.117   2.097   1.807  1.6101 -2.3462  1.0048
 2421SOL     OW 7878   6.862   2.692   4.439 -0.1323  0.3797  0.5887
 2421SOL    HW1 7879   6.835   2.773   4.481 -1.1954  0.6153 -0.4818
 2421SOL    HW2 7880   6.797   2.678   4.371  0.0534 -1.3657  0.7310
 2422SOL     OW 7881   0.879   3.694   5.793  0.2808 -0.0498 -0.1021
 2422SOL    HW1 7882   0.909   3.671   5.705  1.4441 -0.9415  0.4929
 2422SOL    HW2 7883   0.953   3.673   5.849  0.1997  2.1101  0.9187
 2423SOL     OW 7884   2.209   4.703   1.273 -0.3502 -0.5807  0.2794
 2423SOL    HW1 7885   2.148   4.772   1.247  0.0565 -0.1955  0.3357
 2423SOL    HW2 7886   2.278   4.705   1.207  0.0207 -0.4653  0.6650
 2424SOL     OW 7887   0.973   0.339   3.159 -0.6694  0.5727  0.1563
 2424SOL    HW1 7888   1.047   0.288   3.191 -1.8249 -1.9383 -0.8676
 2424SOL    HW2 7889   0.907   0.333   3.228 -1.4695 -0.9703 -0.6724
 2425SOL     OW 7890   1.583   0.491   2.880 -0.5621  0.3548  0.2342
 2425SOL    HW1 7891   1.671   0.526   2.896  1.1969 -2.2940 -2.5392
 2425SOL    HW2 7892   1.533   0.518   2.957  2.4519  2.5620  1.6581
 2426SOL     OW 7893   6.583   2.971   0.368 -0.1282  0.3438 -0.0380
 2426SOL    HW1 7894   6.656   3.017   0.327  1.5160 -1.9302  0.1159
 2426SOL    HW2 7895   6.507   3.028   0.354  1.4350  2.2670 -1.2248
 2427SOL     OW 7896   5.878   4.736   0.102  0.5024 -0.1550  0.3846
 2427SOL    HW1 7897   5.879   4.829   0.081 -4.5448  0.2020  0.4037
 2427SOL    HW2 7898   5.837   4.695   0.026 -0.1040 -1.8670  1.5763
 2428SOL     OW 7899   3.814   1.456   5.924  0.5248 -0.1734  0.6094
 2428SOL    HW1 7900   3.770   1.541   5.917 -0.1212 -0.2510  2.7668
 2428SOL    HW2 7901   3.871   1.466   6.001  0.4675 -1.6741  0.8620
 2429SOL     OW 7902   7.223   2.265   6.458  0.1294 -0.3147 -0.3222
 2429SOL    HW1 7903   7.254   2.217   6.535  0.1411  1.9866  1.2193
 2429SOL    HW2 7904   7.131   2.282   6.477  0.6867  2.2962  0.3845
 2430SOL     OW 7905   3.589   6.714   6.051  0.0757 -0.2135 -0.2503
 2430SOL    HW1 7906   3.667   6.729   6.104 -0.5702  1.1462  0.3859
 2430SOL    HW2 7907   3.587   6.620   6.036  0.1204 -0.6999  2.4308
 2431SOL     OW 7908   0.289   1.771   4.621 -0.2191  0.4046  0.0376
 2431SOL    HW1 7909   0.281   1.770   4.526 -0.8186  1.1120  0.0700
 2431SOL    HW2 7910   0.379   1.745   4.638 -0.2245 -0.1400 -0.7012
 2432SOL     OW 7911   1.477   5.053   1.408 -0.2949 -0.1673 -0.2109
 2432SOL    HW1 7912   1.520   5.052   1.322  0.7975 -0.2842  0.3160
 2432SOL    HW2 7913   1.516   5.128   1.453  0.5505 -1.1927  0.8434
 2433SOL     OW 7914   5.758   1.214   5.613 -0.1640 -0.2714  0.1959
 2433SOL    HW1 7915   5.848   1.243   5.596  0.2814 -1.7637 -0.1302
 2433SOL    HW2 7916   5.703   1.277   5.566  0.7581  0.0935 -0.4219
 2434SOL     OW 7917   0.023   6.474   3.050 -0.0528  0.3298 -0.3200
 2434SOL    HW1 7918   0.040   6.382   3.067  3.8250  1.3303  2.3594
 2434SOL    HW2 7919   0.073   6.494   2.970  0.3645  0.4407 -0.0305
 2435SOL     OW 7920   6.814   0.914   1.101 -0.0518  0.3728  0.0738
 2435SOL    HW1 7921   6.817   0.820   1.081  0.7842  0.8114 -2.0541
 2435SOL    HW2 7922   6.734   0.924   1.153  0.6141 -1.7112  1.6617
 2436SOL     OW 7923   0.090   5.548   6.233 -0.5924 -0.0353  0.3890
 2436SOL    HW1 7924   0.168   5.496   6.254 -1.1076 -1.0624 -0.1904
 2436SOL    HW2 7925   0.058   5.512   6.151 -0.7538  1.4756 -0.2574
 2437SOL     OW 7926   7.107   6.990   4.872 -0.6227 -0.1221  0.1945
 2437SOL    HW1 7927   7.056   7.052   4.819  0.5525  0.5645 -0.1492
 2437SOL    HW2 7928   7.081   6.904   4.838 -2.1896  0.1499  0.6030
 2438SOL     OW 7929   0.342   0.126   0.928  0.3654 -0.1473  0.0752
 2438SOL    HW1 7930   0.334   0.130   1.023 -0.1643  0.0919  0.0240
 2438SOL    HW2 7931   0.277   0.061   0.900 -0.9055  1.2186 -0.2786
 2439SOL     OW 7932   6.248   3.777   4.144  0.5665 -0.4874  0.7319
 2439SOL    HW1 7933   6.196   3.753   4.221 -1.5825  0.1399 -0.4612
 2439SOL    HW2 7934   6.184   3.789   4.074  2.1466  2.0770 -0.4094
 2440SOL     OW 7935   3.580   3.598   6.656 -0.5153 -0.0536 -0.2695
 2440SOL    HW1 7936   3.658   3.652   6.665  0.8475 -1.2635 -3.3685
 2440SOL    HW2 7937   3.553   3.579   6.746  3.2518 -0.2308  0.9764
 2441SOL     OW 7938   6.398   6.770   6.363 -0.0447 -0.6390  0.0379
 2441SOL    HW1 7939   6.380   6.679   6.342  0.9414 -0.6259 -0.9797
 2441SOL    HW2 7940   6.325   6.797   6.418  0.4700 -2.5116  1.7780
 2442SOL     OW 7941   6.004   1.560   3.986 -0.5180  0.4464  0.0387
 2442SOL    HW1 7942   6.061   1.483   3.988  0.0103  0.8309  0.1212
 2442SOL    HW2 7943   5.939   1.541   3.918  1.2843  1.1050 -1.9677
 2443SOL     OW 7944   3.647   2.611   1.893 -0.3872  0.5886 -0.0515
 2443SOL    HW1 7945   3.678   2.540   1.836 -0.5105  1.2780 -0.9984
 2443SOL    HW2 7946   3.671   2.691   1.847 -1.4947  1.1565  0.3188
 2444SOL     OW 7947   2.862   6.924   1.185  0.1461 -0.0813  0.2739
 2444SOL    HW1 7948   2.790   6.981   1.158  0.3197 -0.3890 -0.9337
 2444SOL    HW2 7949   2.864   6.855   1.118  1.1885 -0.3955  0.6045
 2445SOL     OW 7950   5.364   2.314   7.241  0.2259  0.5663  0.1490
 2445SOL    HW1 7951   5.458   2.335   7.238  0.5104 -0.3884  1.5328
 2445SOL    HW2 7952   5.325   2.370   7.174  1.7753  1.0326 -0.4098
 2446SOL     OW 7953   3.544   4.659   5.173  0.4496 -0.1231  0.1534
 2446SOL    HW1 7954   3.456   4.631   5.200  0.2125 -1.8529 -2.1424
 2446SOL    HW2 7955   3.601   4.589   5.204  0.9569  0.6391  0.9887
 2447SOL     OW 7956   5.063   4.618   5.072  0.2418 -0.2315 -0.2279
 2447SOL    HW1 7957   4.994   4.566   5.032  0.5470  0.2168 -1.4175
 2447SOL    HW2 7958   5.138   4.608   5.012  0.7133  0.5112  0.2131
 2448SOL     OW 7959   4.399   2.843   4.266  0.0595 -0.0992 -0.7207
 2448SOL    HW1 7960   4.362   2.876   4.184 -0.4295 -0.1001 -0.5024
 2448SOL    HW2 7961   4.349   2.763   4.284 -0.0946  0.1096 -0.2240
 2449SOL     OW 7962   4.233   3.361   0.266  0.3457 -0.0085  0.0772
 2449SOL    HW1 7963   4.318   3.363   0.310 -0.6296  0.0186  2.0351
 2449SOL    HW2 7964   4.176   3.417   0.319 -1.0272 -0.3637 -0.9469
 2450SOL     OW 7965   0.268   5.285   4.705 -0.0612 -0.6482  0.4745
 2450SOL    HW1 7966   0.287   5.202   4.748 -0.1142 -1.1199 -0.4097
 2450SOL    HW2 7967   0.339   5.297   4.642 -0.4957 -0.4248  0.0218
 2451SOL     OW 7968   3.267   5.401   0.795  0.2971 -0.1164  0.0493
 2451SOL    HW1 7969   3.189   5.368   0.751  0.0030  0.4415  0.1431
 2451SOL    HW2 7970   3.316   5.445   0.726  0.0289  0.4136  0.1883
 2452SOL     OW 7971   0.029   3.196   3.964  0.0943 -0.3795  0.1280
 2452SOL    HW1 7972  -0.051   3.235   3.999 -0.0007  0.3143 -0.8189
 2452SOL    HW2 7973   0.090   3.197   4.038 -1.5248 -3.3665  1.6891
 2453SOL     OW 7974   4.189   1.216   0.961 -0.3363  0.4711  0.0255
 2453SOL    HW1 7975   4.145   1.266   1.029  0.2061 -0.9076  1.4344
 2453SOL    HW2 7976   4.280   1.208   0.991 -0.4993 -1.7180  0.1051
 2454SOL     OW 7977   4.324   4.065   5.001 -0.2609 -0.1089 -0.5751
 2454SOL    HW1 7978   4.348   3.974   4.982 -1.0122 -0.3348 -0.4678
 2454SOL    HW2 7979   4.282   4.061   5.087 -2.6061 -0.0784 -1.6477
 2455SOL     OW 7980   4.369   1.143   3.738  0.0611 -0.3620  0.5036
 2455SOL    HW1 7981   4.458   1.143   3.701 -0.3443  1.0803 -0.5821
 2455SOL    HW2 7982   4.352   1.235   3.759 -1.4285 -0.5009  0.0170
 2456SOL     OW 7983   6.501   2.969   5.339  0.1215  0.2906  0.1069
 2456SOL    HW1 7984   6.592   2.995   5.324  0.2276  0.9494  1.7501
 2456SOL    HW2 7985   6.450   3.031   5.287  0.5157  1.6992  1.3512
 2457SOL     OW 7986   1.357   6.831   2.336 -0.2871 -0.5244  0.4709
 2457SOL    HW1 7987   1.441   6.800   2.370 -0.4998 -1.4593  0.1773
 2457SOL    HW2 7988   1.347   6.919   2.372 -0.1066 -1.1490  2.1243
 2458SOL     OW 7989   6.278   0.643   3.930  0.2129 -0.3788  0.1150
 2458SOL    HW1 7990   6.333   0.721   3.934  1.2644 -1.0775 -0.3609
 2458SOL    HW2 7991   6.189   0.676   3.943  0.4191  1.1531 -1.7801
 2459SOL     OW 7992   3.265   5.061   0.712 -0.2879  0.3825  0.2132
 2459SOL    HW1 7993   3.242   4.989   0.771  2.2517 -1.2445 -0.5991
 2459SOL    HW2 7994   3.246   5.027   0.624  0.7748  0.7329 -0.1724
 2460SOL     OW 7995   5.678   4.733   5.157  0.5429  0.0516 -0.0530
 2460SOL    HW1 7996   5.625   4.741   5.235  0.1988 -0.1122 -0.2672
 2460SOL    HW2 7997   5.662   4.813   5.108  0.6604  0.0980 -0.0168
 2461SOL     OW 7998   3.463   6.766   5.561 -0.3886 -0.0087 -0.0846
 2461SOL    HW1 7999   3.412   6.837   5.600  1.5527  2.5350 -1.8245
 2461SOL    HW2 8000   3.512   6.728   5.633 -1.7082  0.1716  0.9426
 2462SOL     OW 8001   1.107   4.982   5.091 -0.1963  0.3512  0.5919
 2462SOL    HW1 8002   1.182   4.993   5.032 -0.7615  1.8200  0.1118
 2462SOL    HW2 8003   1.139   5.013   5.176  0.0974 -0.1874  0.6879
 2463SOL     OW 8004   4.236   0.861   1.249 -0.2871  0.5507 -0.1212
 2463SOL    HW1 8005   4.268   0.917   1.320 -0.5411 -0.2823  0.6710
 2463SOL    HW2 8006   4.168   0.914   1.206  0.5059  1.4167 -0.3416
 2464SOL     OW 8007   2.588   1.494   0.321  0.4742  0.2469  0.2074
 2464SOL    HW1 8008   2.577   1.561   0.253  0.1292  1.3638  1.3246
 2464SOL    HW2 8009   2.677   1.462   0.308  0.2755  0.1363 -1.0291
 2465SOL     OW 8010   6.069   5.502   3.883  0.2506  0.1450  0.1518
 2465SOL    HW1 8011   6.041   5.543   3.965  2.4411  1.6541  0.2188
 2465SOL    HW2 8012   6.106   5.573   3.832 -0.2635 -0.9411 -1.8215
 2466SOL     OW 8013   5.201   5.520   5.120  0.0887 -0.5332 -0.0730
 2466SOL    HW1 8014   5.202   5.592   5.183  0.2367  0.4902 -1.2085
 2466SOL    HW2 8015   5.270   5.461   5.150 -1.2858 -1.2000  1.9460
 2467SOL     OW 8016   4.565   2.653   0.670  0.1232 -0.0906 -0.2684
 2467SOL    HW1 8017   4.472   2.654   0.692  0.4462 -0.4010  1.1517
 2467SOL    HW2 8018   4.608   2.698   0.742  1.0802  0.1039 -0.9397
 2468SOL     OW 8019   0.737   6.690   3.278 -0.6319 -0.3269 -0.4988
 2468SOL    HW1 8020   0.775   6.778   3.281  0.4077 -0.7609 -0.4209
 2468SOL    HW2 8021   0.785   6.641   3.345  0.9610 -1.7552 -2.5515
 2469SOL     OW 8022   4.101   4.711   4.870  0.9944  0.3152  0.0962
 2469SOL    HW1 8023   4.090   4.806   4.877 -0.2025  0.2553 -0.6742
 2469SOL    HW2 8024   4.138   4.698   4.782  0.4880  0.0278 -0.0777
 2470SOL     OW 8025   2.002   3.905   5.825 -0.3921  0.0344  0.1180
 2470SOL    HW1 8026   2.011   3.964   5.750  0.3171 -0.6664 -0.3610
 2470SOL    HW2 8027   1.973   3.962   5.896  2.1128  1.3591  0.1712
 2471SOL     OW 8028   3.991   1.900   1.350  0.1915  0.0770 -0.1072
 2471SOL    HW1 8029   3.942   1.893   1.269  0.0622  0.3610 -0.0525
 2471SOL    HW2 8030   4.079   1.927   1.323 -0.0851  1.0217 -0.0832
 2472SOL     OW 8031   3.713   3.307   3.464  0.3823  0.1545 -0.2700
 2472SOL    HW1 8032   3.662   3.358   3.528  0.5860  0.8710 -0.6689
 2472SOL    HW2 8033   3.654   3.296   3.389 -0.4391 -2.0425  0.5995
 2473SOL     OW 8034   4.652   7.051   1.374  0.1629  0.3532  0.6910
 2473SOL    HW1 8035   4.622   6.962   1.391 -0.2460  0.1552 -0.8832
 2473SOL    HW2 8036   4.575   7.105   1.386 -0.3539  0.1095 -1.1907
 2474SOL     OW 8037   2.605   1.452   3.134  0.3343  0.0665 -0.5153
 2474SOL    HW1 8038   2.669   1.438   3.065  0.9160 -0.2743  0.0839
 2474SOL    HW2 8039   2.652   1.501   3.202 -0.3919  0.9129 -0.6030
 2475SOL     OW 8040   6.420   0.340   1.207  0.4682  0.1632  0.0071
 2475SOL    HW1 8041   6.403   0.253   1.169  0.3128  0.1453  0.1158
 2475SOL    HW2 8042   6.444   0.322   1.297  0.4580  0.2329  0.0236
 2476SOL     OW 8043   0.707   6.346   3.154  0.0224  0.3483  0.1892
 2476SOL    HW1 8044   0.761   6.363   3.231 -0.6258  0.5625  0.6026
 2476SOL    HW2 8045   0.655   6.426   3.143  1.7372  1.2832 -1.8447
 2477SOL     OW 8046   1.076   2.719   4.649 -0.4438 -0.0056 -0.4295
 2477SOL    HW1 8047   1.043   2.808   4.637 -0.5066  0.2846  1.6155
 2477SOL    HW2 8048   1.117   2.697   4.565  2.1132  3.0261 -0.1326
 2478SOL     OW 8049   5.523   3.238   1.760  0.2197  0.1006  0.0502
 2478SOL    HW1 8050   5.537   3.318   1.709  1.4541 -0.1087  0.0290
 2478SOL    HW2 8051   5.607   3.192   1.757 -0.2459 -0.8408  0.6918
 2479SOL     OW 8052   1.727   6.553   7.134  0.8487  0.7341  0.3466
 2479SOL    HW1 8053   1.810   6.600   7.124  1.2516 -0.1965 -1.0245
 2479SOL    HW2 8054   1.667   6.597   7.074  0.9049  0.2321 -0.0870
 2480SOL     OW 8055   2.437   2.717   5.378  0.1588 -0.0954 -0.8735
 2480SOL    HW1 8056   2.517   2.762   5.406 -0.0890 -0.4833  0.4892
 2480SOL    HW2 8057   2.403   2.771   5.307  1.5735  0.1369 -1.4193
 2481SOL     OW 8058   4.252   1.130   4.863 -0.2301 -0.2319  0.3308
 2481SOL    HW1 8059   4.279   1.218   4.888 -0.6814  0.3047 -0.9814
 2481SOL    HW2 8060   4.209   1.141   4.778 -0.2036 -1.7321  0.0928
 2482SOL     OW 8061   0.995   4.047   1.968  0.1633  0.4240 -0.1094
 2482SOL    HW1 8062   0.968   4.100   1.894  1.3790 -0.2936 -1.1098
 2482SOL    HW2 8063   1.062   3.989   1.933 -1.1855 -1.8796  0.8878
 2483SOL     OW 8064   0.826   1.424   3.588 -0.6242  0.6225 -0.4347
 2483SOL    HW1 8065   0.827   1.341   3.635  1.5818  1.0367  0.3786
 2483SOL    HW2 8066   0.796   1.402   3.500 -0.6291 -0.9356 -0.0648
 2484SOL     OW 8067   4.573   2.908   2.949 -0.0534 -0.0354 -0.4967
 2484SOL    HW1 8068   4.659   2.867   2.956 -0.4368 -0.8968 -0.7403
 2484SOL    HW2 8069   4.579   2.986   3.004  0.6318 -0.4997  0.1014
 2485SOL     OW 8070   0.738   2.929   3.515 -0.1247  0.2067  0.1303
 2485SOL    HW1 8071   0.825   2.948   3.550  0.2160  0.2062 -0.6930
 2485SOL    HW2 8072   0.755   2.879   3.435 -0.7829  2.2701 -1.3780
 2486SOL     OW 8073   2.676   5.537   3.590  0.3697  0.1155 -0.4413
 2486SOL    HW1 8074   2.723   5.476   3.646  1.2297  0.0106 -1.2590
 2486SOL    HW2 8075   2.744   5.591   3.549 -0.1776 -0.1571 -1.7939
 2487SOL     OW 8076   3.280   6.323   2.805  0.0066 -0.4358 -0.4689
 2487SOL    HW1 8077   3.290   6.246   2.860 -0.7467  0.0804  0.4131
 2487SOL    HW2 8078   3.221   6.380   2.854 -2.4372 -0.8311 -2.7020
 2488SOL     OW 8079   2.664   6.796   1.466  0.7832  0.6112 -0.4471
 2488SOL    HW1 8080   2.721   6.744   1.522  0.0018 -0.0097 -0.2169
 2488SOL    HW2 8081   2.658   6.746   1.385 -2.2719 -1.2283  0.7584
 2489SOL     OW 8082   7.230   1.509   5.733 -0.0134  0.6690 -0.4880
 2489SOL    HW1 8083   7.297   1.572   5.758 -1.5931  3.3174 -2.3874
 2489SOL    HW2 8084   7.205   1.467   5.815  3.3266  0.0926  0.3785
 2490SOL     OW 8085   3.169   5.502   5.867  0.0467  0.1837  0.3386
 2490SOL    HW1 8086   3.123   5.555   5.932 -0.1344  0.1960  0.1992
 2490SOL    HW2 8087   3.108   5.494   5.794  1.0501  1.9572 -0.7490
 2491SOL     OW 8088   6.636   0.082   5.152 -0.2149  0.1936  0.3071
 2491SOL    HW1 8089   6.674   0.140   5.087  3.0753 -0.6154  1.3380
 2491SOL    HW2 8090   6.607   0.141   5.222 -1.7755  0.8815 -0.8480
 2492SOL     OW 8091   5.115   0.182   6.834 -0.3213 -0.0104  0.1574
 2492SOL    HW1 8092   5.114   0.088   6.848  1.7050  0.0629  1.0697
 2492SOL    HW2 8093   5.106   0.220   6.922  1.3267  0.5889  0.0993
 2493SOL     OW 8094   2.078   0.072   5.579  0.2480 -0.0220 -0.0152
 2493SOL    HW1 8095   2.042  -0.010   5.614 -1.4186  0.8791  0.4596
 2493SOL    HW2 8096   2.038   0.081   5.493 -1.0925  1.2333  0.7114
 2494SOL     OW 8097   0.356   5.453   6.265 -0.1291 -0.0547 -0.6836
 2494SOL    HW1 8098   0.433   5.511   6.259  0.2825 -0.6129 -0.8469
 2494SOL    HW2 8099   0.371   5.387   6.198 -0.0070 -1.0472  0.2992
 2495SOL     OW 8100   7.138   0.598   1.706 -0.3892  0.0014 -0.1804
 2495SOL    HW1 8101   7.098   0.639   1.629  0.4680  1.3119  0.0393
 2495SOL    HW2 8102   7.147   0.670   1.768  0.9622 -0.5732  0.3103
 2496SOL     OW 8103   6.419   5.608   2.737 -0.0507 -0.0063 -0.1266
 2496SOL    HW1 8104   6.390   5.642   2.652 -1.0479  0.8100  0.4999
 2496SOL    HW2 8105   6.424   5.514   2.725  0.7510  0.1716 -1.3509
 2497SOL     OW 8106   6.068   3.032   5.550  0.6034 -0.1817 -0.1547
 2497SOL    HW1 8107   6.081   2.944   5.514  0.6631 -0.2123 -0.0567
 2497SOL    HW2 8108   6.037   3.018   5.639  1.3903 -0.1006  0.1411
 2498SOL     OW 8109   2.844   1.100   2.923 -0.0331 -0.2583  0.0738
 2498SOL    HW1 8110   2.840   1.090   2.827  0.6797 -1.0912  0.1154
 2498SOL    HW2 8111   2.936   1.084   2.944  0.1016  1.2966  0.7671
 2499SOL     OW 8112   0.375   1.880   6.744 -0.1908  0.1644 -0.0577
 2499SOL    HW1 8113   0.404   1.941   6.676  1.3145 -0.9339 -0.4567
 2499SOL    HW2 8114   0.337   1.935   6.812  1.4329  1.5740 -0.2412
 2500SOL     OW 8115   6.860   5.410   3.115 -0.5444  0.6976  0.1021
 2500SOL    HW1 8116   6.808   5.406   3.035  0.7351 -0.4901 -0.7207
 2500SOL    HW2 8117   6.845   5.326   3.158  1.5335 -0.1641 -0.7455
 2501SOL     OW 8118   1.627   4.839   1.210  0.1847  0.2218 -0.7937
 2501SOL    HW1 8119   1.648   4.927   1.179  2.5331  0.3730  1.0068
 2501SOL    HW2 8120   1.687   4.782   1.162 -0.9553 -0.3816 -1.5483
 2502SOL     OW 8121   4.902   1.000   6.064  0.3282 -0.1073  0.8021
 2502SOL    HW1 8122   4.986   0.954   6.069  0.4856 -0.0075 -0.5668
 2502SOL    HW2 8123   4.926   1.091   6.043 -0.1464 -0.4415 -1.4348
 2503SOL     OW 8124   1.357   1.887   3.793  0.0105 -0.2238  0.4335
 2503SOL    HW1 8125   1.422   1.864   3.860  0.5519  0.6068  0.2058
 2503SOL    HW2 8126   1.409   1.913   3.717 -0.5831  0.7268  0.3413
 2504SOL     OW 8127   2.647   2.497   6.107  0.2848  0.5709 -0.1809
 2504SOL    HW1 8128   2.629   2.431   6.175 -0.1048 -0.3750 -1.1675
 2504SOL    HW2 8129   2.659   2.446   6.027  0.3975  1.6853 -0.8967
 2505SOL     OW 8130   2.479   2.402   3.411  0.2834  0.1892 -0.2489
 2505SOL    HW1 8131   2.468   2.313   3.446 -3.1238  0.8109  0.7176
 2505SOL    HW2 8132   2.451   2.395   3.319 -2.0392  0.5010  0.3575
 2506SOL     OW 8133   6.885   1.160   1.170  0.4743  0.4733  0.3806
 2506SOL    HW1 8134   6.823   1.208   1.115  1.3305 -0.8710 -1.8555
 2506SOL    HW2 8135   6.862   1.068   1.157  1.3293  0.0774  1.5551
 2507SOL     OW 8136   5.385   4.225   1.173 -0.2440 -0.1288  0.3478
 2507SOL    HW1 8137   5.325   4.250   1.243 -0.6491 -0.4173  0.1045
 2507SOL    HW2 8138   5.461   4.189   1.219  0.4516  1.6940  0.7208
 2508SOL     OW 8139   0.595   5.671   0.053 -0.0968 -0.5838 -0.7064
 2508SOL    HW1 8140   0.602   5.765   0.068 -2.1665 -0.2080 -1.8398
 2508SOL    HW2 8141   0.659   5.632   0.114 -0.2814  1.4367  0.8748
 2509SOL     OW 8142   1.470   2.879   4.707 -0.0238  0.4160  0.4987
 2509SOL    HW1 8143   1.515   2.801   4.674  2.8563  1.6695  1.0895
 2509SOL    HW2 8144   1.391   2.846   4.749 -0.1857 -1.8839 -1.4205
 2510SOL     OW 8145   4.738   2.022   3.330  0.0387  0.6343  0.1274
 2510SOL    HW1 8146   4.785   2.064   3.258 -0.1797 -0.5020 -0.7071
 2510SOL    HW2 8147   4.782   1.938   3.343 -0.4382  0.4702  0.7607
 2511SOL     OW 8148   1.535   0.322   1.046  0.3057 -0.0761  0.2278
 2511SOL    HW1 8149   1.510   0.303   0.956 -0.2078 -3.5077  0.9778
 2511SOL    HW2 8150   1.520   0.416   1.055 -0.8709  0.1565 -2.8527
 2512SOL     OW 8151   4.151   4.456   5.663 -0.2513 -0.0821  0.0846
 2512SOL    HW1 8152   4.092   4.393   5.706  1.0975 -0.7252  1.0658
 2512SOL    HW2 8153   4.176   4.516   5.733 -1.8889  1.9148 -0.9404
 2513SOL     OW 8154   0.176   6.690   3.396  0.6158 -0.3560 -0.4095
 2513SOL    HW1 8155   0.193   6.781   3.418 -0.1104 -0.1768 -0.5585
 2513SOL    HW2 8156   0.177   6.688   3.300  1.5314 -0.6899 -0.4054
 2514SOL     OW 8157   7.214   3.656   3.643 -0.3209 -0.0312 -0.1721
 2514SOL    HW1 8158   7.292   3.703   3.614 -0.5720  0.3632 -0.2155
 2514SOL    HW2 8159   7.144   3.722   3.643 -0.4704 -0.1677  0.6990
 2515SOL     OW 8160   6.180   0.855   0.832  0.1720  0.1452  0.3639
 2515SOL    HW1 8161   6.087   0.839   0.817 -0.0642 -0.2856  2.1375
 2515SOL    HW2 8162   6.192   0.948   0.810 -0.4849  0.0193 -0.6196
 2516SOL     OW 8163   0.149   2.702   0.810  0.2212  0.0592 -0.0809
 2516SOL    HW1 8164   0.154   2.781   0.756 -0.8635  0.5138  0.4579
 2516SOL    HW2 8165   0.222   2.709   0.871 -0.7938  1.4990  1.0412
 2517SOL     OW 8166   4.806   0.837   1.358  0.0590  0.1808 -0.3706
 2517SOL    HW1 8167   4.726   0.888   1.370  0.4889  0.3123  2.5945
 2517SOL    HW2 8168   4.787   0.753   1.400  1.2149 -0.0612 -0.3116
 2518SOL     OW 8169   5.556   5.336   6.502  0.1882  0.5862 -0.4856
 2518SOL    HW1 8170   5.631   5.378   6.543  0.0354 -0.2371  0.6669
 2518SOL    HW2 8171   5.484   5.351   6.563 -0.0951 -0.4766 -0.5460
 2519SOL     OW 8172   4.839   2.706   3.722  0.1973  0.4472  0.0865
 2519SOL    HW1 8173   4.800   2.767   3.658 -1.2977 -0.2700  0.2703
 2519SOL    HW2 8174   4.933   2.714   3.708 -0.0696  0.5854 -1.9781
 2520SOL     OW 8175   3.869   7.187   5.453 -0.4308 -0.2885 -0.0224
 2520SOL    HW1 8176   3.958   7.204   5.425 -0.5754 -0.4587 -0.5881
 2520SOL    HW2 8177   3.876   7.107   5.506 -0.1164  0.2015  0.6867
 2521SOL     OW 8178   5.931   0.117   1.353 -0.0359  0.0898 -0.1367
 2521SOL    HW1 8179   5.854   0.100   1.299  0.9729 -1.3322 -1.2217
 2521SOL    HW2 8180   5.946   0.211   1.346 -0.2170  0.0081 -1.9617
 2522SOL     OW 8181   6.048   6.420   1.332 -0.0162 -0.2250  0.8552
 2522SOL    HW1 8182   6.006   6.335   1.335  1.0979 -0.8595 -0.3725
 2522SOL    HW2 8183   6.111   6.419   1.405  2.8364 -2.1097 -1.3957
 2523SOL     OW 8184   6.517   2.752   6.837  0.1292  0.6287  0.4501
 2523SOL    HW1 8185   6.424   2.763   6.856 -0.1489 -1.4386  0.4821
 2523SOL    HW2 8186   6.539   2.666   6.872  1.3913 -0.1197 -1.9499
 2524SOL     OW 8187   3.715   0.139   6.273  0.5340 -0.3582  0.5414
 2524SOL    HW1 8188   3.702   0.104   6.362  1.5041 -2.4786 -0.0770
 2524SOL    HW2 8189   3.644   0.202   6.261 -1.0742 -1.7961  1.9495
 2525SOL     OW 8190   4.796   4.483   7.049 -0.3052 -0.4819 -0.2006
 2525SOL    HW1 8191   4.754   4.503   7.133  0.1303  1.2300 -0.3459
 2525SOL    HW2 8192   4.843   4.563   7.027  1.4674 -1.6793 -0.9767
 2526SOL     OW 8193   5.911   2.801   6.888 -0.2964 -0.4639 -0.0361
 2526SOL    HW1 8194   5.967   2.875   6.866  1.2491 -2.0359 -1.8212
 2526SOL    HW2 8195   5.959   2.754   6.957  0.2670 -1.3985 -1.0313
 2527SOL     OW 8196   1.901   3.456   5.193 -0.0319 -0.3734 -0.2994
 2527SOL    HW1 8197   1.966   3.470   5.262  1.1591  0.4933 -1.5140
 2527SOL    HW2 8198   1.921   3.369   5.158 -1.9875 -1.7564  1.7282
 2528SOL     OW 8199   7.177   4.314   4.233 -0.1440  0.3685 -0.5494
 2528SOL    HW1 8200   7.116   4.365   4.179 -4.9396 -2.0290  2.0069
 2528SOL    HW2 8201   7.215   4.379   4.293 -2.2947  1.6918 -0.5120
 2529SOL     OW 8202   4.607   5.394   3.108 -0.6944 -0.3653 -0.3083
 2529SOL    HW1 8203   4.568   5.349   3.183 -0.0879 -0.3678  0.0073
 2529SOL    HW2 8204   4.583   5.340   3.033 -2.5218  0.3740 -0.3187
 2530SOL     OW 8205   1.398   3.031   0.853 -0.2430 -0.2515 -0.4411
 2530SOL    HW1 8206   1.407   2.949   0.806  0.3300  1.1767 -2.9907
 2530SOL    HW2 8207   1.317   3.069   0.821 -0.0634  0.5860  0.0494
 2531SOL     OW 8208   5.442   4.117   7.024 -0.3119  0.0610  0.4109
 2531SOL    HW1 8209   5.536   4.108   7.011 -0.3406 -0.7493  0.7119
 2531SOL    HW2 8210   5.426   4.081   7.111 -1.0790 -1.0950 -0.1851
 2532SOL     OW 8211   4.421   4.451   3.646  0.1511  0.2285 -0.3535
 2532SOL    HW1 8212   4.352   4.408   3.595 -0.1947 -0.0774  0.3590
 2532SOL    HW2 8213   4.460   4.380   3.698  1.0398  0.3888 -0.7860
 2533SOL     OW 8214   0.896   6.789   4.846 -0.4624  0.1886 -0.4516
 2533SOL    HW1 8215   0.823   6.850   4.856  0.1008  0.5719  1.8258
 2533SOL    HW2 8216   0.974   6.840   4.867  0.3866 -0.4958 -1.7890
 2534SOL     OW 8217   5.599   4.718   3.954 -0.4127 -0.1326  0.1123
 2534SOL    HW1 8218   5.683   4.711   3.998 -0.5923 -1.1609  0.3204
 2534SOL    HW2 8219   5.535   4.717   4.025 -0.6720 -1.1591 -0.1203
 2535SOL     OW 8220   1.776   1.575   4.799 -0.3120  0.0325 -0.3295
 2535SOL    HW1 8221   1.784   1.652   4.743 -0.6014  1.0785  0.9935
 2535SOL    HW2 8222   1.685   1.549   4.792 -0.1734 -0.3094 -0.9154
 2536SOL     OW 8223   7.225   3.807   2.369 -0.5942  0.3044  0.1951
 2536SOL    HW1 8224   7.237   3.896   2.403 -0.5723  1.2583 -2.1518
 2536SOL    HW2 8225   7.130   3.798   2.362 -0.5662  1.2680 -2.1909
 2537SOL     OW 8226   5.271   5.311   0.097 -0.9032  0.0078 -0.7321
 2537SOL    HW1 8227   5.329   5.377   0.058 -1.9446  0.7116 -1.1535
 2537SOL    HW2 8228   5.184   5.335   0.065 -1.2889 -1.7042 -1.0505
 2538SOL     OW 8229   4.097   2.521   1.658  0.2876  0.6425 -0.4373
 2538SOL    HW1 8230   4.031   2.504   1.592 -0.4682 -2.2797  0.9065
 2538SOL    HW2 8231   4.174   2.551   1.609 -1.5970  3.0608 -2.1237
 2539SOL     OW 8232   3.454   4.499   4.685  0.4701 -0.2784 -0.3099
 2539SOL    HW1 8233   3.455   4.563   4.614  2.7326 -0.8026 -0.8300
 2539SOL    HW2 8234   3.444   4.551   4.765 -1.2145  0.3872 -0.9146
 2540SOL     OW 8235   1.429   0.042   6.274 -0.2729  0.5210 -0.2524
 2540SOL    HW1 8236   1.412   0.125   6.231 -0.9796  0.9270  0.7786
 2540SOL    HW2 8237   1.440   0.064   6.366  0.9706 -0.3629 -0.1606
 2541SOL     OW 8238   1.408   2.815   2.873  0.6061  0.1020  0.6550
 2541SOL    HW1 8239   1.454   2.808   2.956  1.7218  0.7344  0.1027
 2541SOL    HW2 8240   1.400   2.724   2.842 -1.0776 -0.2907  2.0850
 2542SOL     OW 8241   5.379   1.995   3.961  0.5269 -0.1096 -0.3080
 2542SOL    HW1 8242   5.422   1.940   4.027  2.0943 -0.0919 -1.2637
 2542SOL    HW2 8243   5.447   2.011   3.896 -1.2469 -0.9471 -2.4751
 2543SOL     OW 8244   6.429   2.331   1.486  0.0413 -0.3172 -0.2258
 2543SOL    HW1 8245   6.392   2.339   1.574  0.2758  0.2848 -0.1801
 2543SOL    HW2 8246   6.376   2.390   1.432 -0.3898 -1.0189 -0.5863
 2544SOL     OW 8247   5.066   4.096   1.800  0.4779  0.2139 -0.0966
 2544SOL    HW1 8248   5.040   4.012   1.763  1.6839  0.0134 -0.5280
 2544SOL    HW2 8249   5.079   4.153   1.724 -1.6325  1.2158  0.2359
 2545SOL     OW 8250   6.260   3.298   2.086  0.1333 -0.1524  0.0866
 2545SOL    HW1 8251   6.276   3.329   2.175  0.9177  0.8317 -0.3790
 2545SOL    HW2 8252   6.348   3.285   2.049 -0.1771 -0.0778 -0.6968
 2546SOL     OW 8253   3.184   6.187   4.244 -0.8526 -0.1904  0.4008
 2546SOL    HW1 8254   3.092   6.207   4.228 -0.6157 -0.7809 -2.1033
 2546SOL    HW2 8255   3.233   6.245   4.186  0.5340  1.1630  2.7172
 2547SOL     OW 8256   0.066   5.902   5.420  0.0419  0.4367 -0.7378
 2547SOL    HW1 8257   0.136   5.967   5.423  0.5894 -0.1660  2.0708
 2547SOL    HW2 8258   0.102   5.830   5.368  0.6695  1.0247 -1.1333
 2548SOL     OW 8259   5.983   6.884   1.546 -0.1096  0.0334 -0.1570
 2548SOL    HW1 8260   5.972   6.907   1.453  1.4210  2.0748  0.0951
 2548SOL    HW2 8261   6.051   6.944   1.577  0.7175 -1.8283  1.8547
 2549SOL     OW 8262   3.626   0.212   3.318 -0.4748 -0.1130  0.2805
 2549SOL    HW1 8263   3.640   0.255   3.402  3.1428 -1.1462  0.3746
 2549SOL    HW2 8264   3.615   0.119   3.340  1.6627 -0.5626 -0.3505
 2550SOL     OW 8265   4.193   6.801   6.043 -0.3888 -0.3593 -0.3174
 2550SOL    HW1 8266   4.116   6.744   6.052 -0.2782 -0.7293 -1.5043
 2550SOL    HW2 8267   4.265   6.749   6.080 -0.2181 -1.2075 -1.7225
 2551SOL     OW 8268   3.443   1.284   2.048  0.5096  0.2811 -0.2291
 2551SOL    HW1 8269   3.388   1.349   2.091  0.0391 -1.2409  1.6369
 2551SOL    HW2 8270   3.444   1.210   2.109 -0.0573 -1.9943 -2.7824
 2552SOL     OW 8271   6.701   4.031   4.467 -0.3905 -0.3003 -0.3140
 2552SOL    HW1 8272   6.667   4.002   4.383 -1.0466  0.0615 -0.1795
 2552SOL    HW2 8273   6.624   4.059   4.516  0.2646  3.4359 -1.1232
 2553SOL     OW 8274   6.796   2.303   2.932 -0.4127 -0.3022  0.4157
 2553SOL    HW1 8275   6.789   2.389   2.891  1.4592 -0.3667 -0.1208
 2553SOL    HW2 8276   6.803   2.242   2.859 -0.0832 -0.7347  0.8031
 2554SOL     OW 8277   0.925   4.136   6.959  0.4108  0.3782  0.1670
 2554SOL    HW1 8278   0.980   4.059   6.947  0.4177  0.3991  0.0620
 2554SOL    HW2 8279   0.839   4.109   6.927  0.1499  0.0797  1.0953
 2555SOL     OW 8280   6.454   6.347   5.138  0.1021 -0.1216 -0.0764
 2555SOL    HW1 8281   6.447   6.252   5.135 -1.0713 -0.0168 -2.1642
 2555SOL    HW2 8282   6.418   6.371   5.223 -0.4167 -1.4680  0.1049
 2556SOL     OW 8283   3.491   2.627   0.801 -0.6986  0.3606 -0.1186
 2556SOL    HW1 8284   3.447   2.710   0.786  0.7675  0.9366 -1.4980
 2556SOL    HW2 8285   3.421   2.566   0.822 -1.7233  2.2404  2.6582
 2557SOL     OW 8286   6.252   2.817   6.226  0.2439  0.9045  0.0054
 2557SOL    HW1 8287   6.285   2.889   6.172 -1.2379  0.3110 -1.8068
 2557SOL    HW2 8288   6.176   2.853   6.271  1.2376  1.2782  1.4560
 2558SOL     OW 8289   5.855   2.537   6.219 -0.4929  0.4476 -0.0117
 2558SOL    HW1 8290   5.785   2.527   6.282  1.2340  2.1902  2.3660
 2558SOL    HW2 8291   5.932   2.501   6.263  0.4772  0.2694 -1.7656
 2559SOL     OW 8292   1.458   1.667   4.920  0.2280 -0.2377 -0.0359
 2559SOL    HW1 8293   1.478   1.599   4.984  1.1153 -0.9585 -1.0481
 2559SOL    HW2 8294   1.523   1.735   4.937 -0.8363  0.5356  1.1645
 2560SOL     OW 8295   4.833   7.008   2.431  0.1715  0.0634 -0.1781
 2560SOL    HW1 8296   4.882   6.943   2.379  2.2121  2.2067 -1.1101
 2560SOL    HW2 8297   4.746   7.010   2.391  0.6566 -0.7401 -1.3432
 2561SOL     OW 8298   6.727   4.585   5.622 -0.5230 -0.7608 -0.2654
 2561SOL    HW1 8299   6.798   4.626   5.671  0.2065 -0.6245 -1.3887
 2561SOL    HW2 8300   6.746   4.491   5.627 -0.9065 -0.8120  0.3730
 2562SOL     OW 8301   2.032   2.465   0.513 -0.0019 -0.1715 -0.0653
 2562SOL    HW1 8302   2.086   2.449   0.436  0.4212 -0.0016  0.1904
 2562SOL    HW2 8303   2.090   2.445   0.587 -0.1339  0.4752  0.2228
 2563SOL     OW 8304   5.133   4.991   1.734 -0.9518 -0.2213 -0.5480
 2563SOL    HW1 8305   5.175   4.908   1.714  2.0366  1.3871 -1.5494
 2563SOL    HW2 8306   5.164   5.014   1.822 -0.8161  0.3555 -0.7405
 2564SOL     OW 8307   1.587   2.848   0.310 -0.0986  0.1508 -0.2983
 2564SOL    HW1 8308   1.633   2.881   0.387 -0.0579 -1.6973  0.5285
 2564SOL    HW2 8309   1.500   2.825   0.341  0.0340 -0.9643 -0.6789
 2565SOL     OW 8310   2.030   5.602   6.154  0.3822 -0.0237  0.2179
 2565SOL    HW1 8311   2.085   5.627   6.228  1.5083 -1.3889 -0.1218
 2565SOL    HW2 8312   2.054   5.663   6.084  1.0380 -0.2308  0.2587
 2566SOL     OW 8313   0.031   7.007   0.472 -0.4008  0.0954  0.1471
 2566SOL    HW1 8314  -0.041   7.070   0.483 -0.1480  0.3884  0.1380
 2566SOL    HW2 8315   0.103   7.059   0.436  0.0916 -0.0156  0.9412
 2567SOL     OW 8316   1.230   1.352   5.493  0.4242 -0.4945  0.2445
 2567SOL    HW1 8317   1.176   1.300   5.554 -0.6481 -0.3961 -0.5816
 2567SOL    HW2 8318   1.244   1.293   5.419  1.1211 -0.3679  0.2736
 2568SOL     OW 8319   2.685   6.276   5.639 -0.3425  0.4335 -0.1239
 2568SOL    HW1 8320   2.724   6.355   5.603  1.1104 -0.4151 -0.5073
 2568SOL    HW2 8321   2.713   6.274   5.731  2.6771 -1.3544 -0.9448
 2569SOL     OW 8322   2.798   6.857   3.374 -0.1548  0.0315  0.6487
 2569SOL    HW1 8323   2.748   6.777   3.356 -1.3350  0.6110  1.2524
 2569SOL    HW2 8324   2.871   6.854   3.312 -1.1309 -0.6846 -0.5139
 2570SOL     OW 8325   1.228   6.554   7.158 -0.0737  0.4344  0.0658
 2570SOL    HW1 8326   1.216   6.642   7.123 -0.2248 -0.0941 -1.2757
 2570SOL    HW2 8327   1.142   6.528   7.190 -0.4925  0.0828 -1.2725
 2571SOL     OW 8328   6.425   3.738   2.035  0.3426  0.0041  0.4395
 2571SOL    HW1 8329   6.520   3.728   2.041  0.5063  0.8470 -0.4445
 2571SOL    HW2 8330   6.410   3.769   1.946 -0.9806 -2.3171 -0.2182
 2572SOL     OW 8331   5.309   3.874   0.746 -0.1919  0.2611 -0.1393
 2572SOL    HW1 8332   5.324   3.938   0.676 -0.3484  1.4097  0.8341
 2572SOL    HW2 8333   5.342   3.917   0.825  2.3014 -1.9775  0.1817
 2573SOL     OW 8334   4.539   5.701   5.565 -0.2811  0.2152  0.2094
 2573SOL    HW1 8335   4.605   5.718   5.498 -1.2346  2.8486 -0.1736
 2573SOL    HW2 8336   4.576   5.737   5.646  0.2002 -1.5408  0.8133
 2574SOL     OW 8337   4.134   1.374   3.249  0.1113 -0.3827  0.1846
 2574SOL    HW1 8338   4.124   1.280   3.235  1.8867 -0.7678  1.1031
 2574SOL    HW2 8339   4.102   1.389   3.338  0.3756 -0.2412  0.2590
 2575SOL     OW 8340   0.280   6.825   3.990 -0.2679  0.0630 -0.1672
 2575SOL    HW1 8341   0.298   6.919   3.989  0.3673  0.0351  2.2204
 2575SOL    HW2 8342   0.358   6.785   3.951  0.9817  0.4207  1.8071
 2576SOL     OW 8343   4.317   5.538   0.019  0.4504 -0.1657  0.5230
 2576SOL    HW1 8344   4.285   5.596  -0.049 -2.0967  1.2024  2.7014
 2576SOL    HW2 8345   4.293   5.450  -0.012  1.7109  0.1295 -1.4626
 2577SOL     OW 8346   4.013   1.490   3.028  0.3845 -0.0302  0.0200
 2577SOL    HW1 8347   4.058   1.494   3.113 -0.8478  0.0915  0.6884
 2577SOL    HW2 8348   4.059   1.422   2.980  0.4125 -0.8812  1.2005
 2578SOL     OW 8349   0.113   3.081   5.162 -0.2835 -0.1371  0.0139
 2578SOL    HW1 8350   0.062   3.021   5.216  0.3040 -0.2349  0.4682
 2578SOL    HW2 8351   0.063   3.163   5.163  0.7926  0.5790  2.5688
 2579SOL     OW 8352   7.172   6.856   6.142 -0.6103 -0.4063  0.0974
 2579SOL    HW1 8353   7.236   6.875   6.210 -0.0192  1.7280 -0.9649
 2579SOL    HW2 8354   7.224   6.840   6.063 -1.3031  1.1613 -0.7371
 2580SOL     OW 8355   6.529   7.002   7.184 -0.6179 -0.7792  0.3415
 2580SOL    HW1 8356   6.454   7.023   7.128  1.4373  0.4361 -2.1339
 2580SOL    HW2 8357   6.544   7.082   7.235 -0.1251 -0.5004 -0.2374
 2581SOL     OW 8358   0.122   4.493   2.427  0.1326  0.5847 -0.3795
 2581SOL    HW1 8359   0.047   4.479   2.484  0.0309  0.3172 -0.5793
 2581SOL    HW2 8360   0.093   4.465   2.341  0.8593 -0.7184 -0.2234
 2582SOL     OW 8361   2.741   0.623   7.049 -0.0599 -0.0319 -0.2312
 2582SOL    HW1 8362   2.662   0.573   7.069 -0.6319  0.5978 -0.8732
 2582SOL    HW2 8363   2.810   0.556   7.040 -0.4708 -0.5711  0.4853
 2583SOL     OW 8364   5.010   5.166   0.846 -0.3920 -0.6893  0.0141
 2583SOL    HW1 8365   5.062   5.090   0.872  0.1759 -0.5775 -0.7687
 2583SOL    HW2 8366   5.070   5.240   0.853 -0.3787 -0.5807 -1.0692
 2584SOL     OW 8367   3.272   0.332   1.500  0.4195 -0.1676  0.0211
 2584SOL    HW1 8368   3.197   0.276   1.519  0.3111 -0.4179 -1.0751
 2584SOL    HW2 8369   3.333   0.276   1.452 -0.6761  1.1598 -3.1899
 2585SOL     OW 8370   3.347   5.693   0.019 -0.1744  0.0207  0.0771
 2585SOL    HW1 8371   3.253   5.681   0.033 -0.2425 -1.1758 -1.1260
 2585SOL    HW2 8372   3.352   5.750  -0.058 -0.0276 -2.7615 -2.1117
 2586SOL     OW 8373   2.321   6.518   1.517  0.6286  0.5024  0.3243
 2586SOL    HW1 8374   2.340   6.572   1.595 -1.6028 -0.1617  1.4165
 2586SOL    HW2 8375   2.226   6.522   1.509  0.7426 -0.2639 -1.8287
 2587SOL     OW 8376   1.274   0.051   4.343 -0.3574  0.2844 -0.1149
 2587SOL    HW1 8377   1.273   0.102   4.262 -0.4759 -1.3452 -1.1848
 2587SOL    HW2 8378   1.263  -0.039   4.314  3.3481 -0.8148  1.3790
 2588SOL     OW 8379   0.045   2.842   6.877  0.0013 -0.2270  0.0525
 2588SOL    HW1 8380   0.017   2.770   6.821  0.1601 -0.3164  0.0881
 2588SOL    HW2 8381   0.030   2.920   6.825  1.0700 -0.3699 -0.5059
 2589SOL     OW 8382   2.165   3.439   2.535  0.1429 -0.6515 -0.3138
 2589SOL    HW1 8383   2.252   3.400   2.542 -0.3892 -1.7584  0.5311
 2589SOL    HW2 8384   2.128   3.403   2.455  0.2059 -0.7119 -0.3152
 2590SOL     OW 8385   4.959   6.651   6.758  0.2477  0.3661  0.2681
 2590SOL    HW1 8386   5.005   6.734   6.776  1.2485  0.1825 -1.2260
 2590SOL    HW2 8387   5.003   6.587   6.814 -0.9674  0.9106  1.9385
 2591SOL     OW 8388   4.695   4.033   1.583  0.1335  0.2338  0.1673
 2591SOL    HW1 8389   4.603   4.043   1.605  0.2932 -0.8414  1.4891
 2591SOL    HW2 8390   4.729   4.122   1.579 -1.0820  0.6614 -0.9558
 2592SOL     OW 8391   0.601   6.011   5.483  0.0886  0.2296 -0.3816
 2592SOL    HW1 8392   0.530   5.992   5.545 -0.0209 -0.4586 -0.7052
 2592SOL    HW2 8393   0.583   6.100   5.453  0.1849  0.6034  0.6221
 2593SOL     OW 8394   7.210   0.056   1.763  0.2114 -0.1518 -0.7990
 2593SOL    HW1 8395   7.126   0.016   1.741 -0.2080  0.8714 -1.1039
 2593SOL    HW2 8396   7.255   0.064   1.679 -0.0201  0.6976 -0.8481
 2594SOL     OW 8397   4.873   2.984   7.171  0.1233  0.1618 -0.1379
 2594SOL    HW1 8398   4.858   3.021   7.258 -2.0692 -1.0050  0.0526
 2594SOL    HW2 8399   4.831   3.047   7.112 -1.3253 -0.6367 -0.0210
 2595SOL     OW 8400   3.591   6.356   0.905  0.3783 -0.3369  0.0818
 2595SOL    HW1 8401   3.683   6.330   0.912  0.4417 -0.0763  0.2280
 2595SOL    HW2 8402   3.551   6.288   0.850  0.5254 -0.7803  0.5229
 2596SOL     OW 8403   3.938   0.172   3.578 -0.1997  0.5529  0.3263
 2596SOL    HW1 8404   4.020   0.193   3.623 -1.2775  0.7345  2.3503
 2596SOL    HW2 8405   3.923   0.080   3.599  0.7228 -0.2505 -2.2043
 2597SOL     OW 8406   2.933   3.003   3.414  0.1913  0.2534  0.5092
 2597SOL    HW1 8407   2.878   3.018   3.491 -2.6743  1.7900 -1.6566
 2597SOL    HW2 8408   2.917   2.911   3.390 -0.3710  0.3030  0.6887
 2598SOL     OW 8409   1.204   3.055   5.591 -0.4820  0.0948 -0.1975
 2598SOL    HW1 8410   1.245   2.991   5.533 -1.2377  0.2437 -0.9321
 2598SOL    HW2 8411   1.110   3.037   5.584 -0.5964  0.2136  0.8816
 2599SOL     OW 8412   2.558   1.761   1.676 -0.1170 -0.0972 -0.8506
 2599SOL    HW1 8413   2.589   1.685   1.725 -0.8887 -0.8263 -1.4707
 2599SOL    HW2 8414   2.465   1.768   1.699 -0.1795  0.3258 -1.2199
 2600SOL     OW 8415   0.573   2.048   1.478  0.0558  0.1259  0.5217
 2600SOL    HW1 8416   0.527   1.965   1.488  0.6680 -0.3633 -0.5387
 2600SOL    HW2 8417   0.665   2.023   1.469  0.0878  0.7895 -1.3010
 2601SOL     OW 8418   2.616   0.231   0.525 -0.5777  0.2115  0.1909
 2601SOL    HW1 8419   2.620   0.136   0.525  0.7745  0.2343 -0.8905
 2601SOL    HW2 8420   2.596   0.254   0.435 -1.4455  0.9609  0.5552
 2602SOL     OW 8421   2.346   5.294   2.039 -0.1680  0.2948  0.0022
 2602SOL    HW1 8422   2.339   5.308   2.133 -0.8546 -0.6545  0.1008
 2602SOL    HW2 8423   2.267   5.334   2.002 -1.0575 -1.3502  0.0743
 2603SOL     OW 8424   4.960   5.952   4.292 -0.5322 -0.5507  0.3836
 2603SOL    HW1 8425   4.902   6.029   4.297  0.5612  0.3056  0.2628
 2603SOL    HW2 8426   5.034   5.982   4.239  1.1109 -0.9000  2.4096
 2604SOL     OW 8427   1.783   0.070   3.493 -0.3789 -0.5793  0.4480
 2604SOL    HW1 8428   1.849   0.014   3.533 -0.8703 -0.6698  1.1400
 2604SOL    HW2 8429   1.744   0.119   3.565 -0.3986  0.2017 -0.0688
 2605SOL     OW 8430   2.937   3.862   4.095  0.3167 -0.3076  0.1365
 2605SOL    HW1 8431   2.844   3.865   4.120  0.3208 -2.0346  0.4990
 2605SOL    HW2 8432   2.942   3.788   4.035  1.3190  0.3360 -0.5839
 2606SOL     OW 8433   6.234   1.106   6.549  0.5625 -0.1350  0.8742
 2606SOL    HW1 8434   6.243   1.126   6.456  0.9903  1.2054  1.1833
 2606SOL    HW2 8435   6.140   1.109   6.566  0.3456 -1.9306  0.1864
 2607SOL     OW 8436   4.633   2.009   4.800  0.1380 -0.6708 -0.1367
 2607SOL    HW1 8437   4.641   2.083   4.740 -0.0812 -1.8896 -1.7432
 2607SOL    HW2 8438   4.690   1.942   4.763  1.4306 -0.8800  2.0524
 2608SOL     OW 8439   5.297   2.338   0.518 -0.3316 -0.5284  0.1879
 2608SOL    HW1 8440   5.323   2.328   0.609  0.5965 -0.2504 -0.0401
 2608SOL    HW2 8441   5.202   2.353   0.522 -0.0329  1.5207  1.2852
 2609SOL     OW 8442   0.825   5.247   3.183 -0.2539 -0.3335 -0.0256
 2609SOL    HW1 8443   0.809   5.319   3.121  0.4380 -1.4666 -1.5790
 2609SOL    HW2 8444   0.912   5.265   3.218 -1.1875  1.0674  1.7668
 2610SOL     OW 8445   5.956   3.820   6.118 -0.3205 -0.0559  0.2865
 2610SOL    HW1 8446   5.926   3.903   6.081 -0.0914  0.8984  2.1003
 2610SOL    HW2 8447   5.913   3.815   6.204  0.5975 -1.2254  0.7124
 2611SOL     OW 8448   5.822   0.565   2.199 -0.4757  0.1613  0.4321
 2611SOL    HW1 8449   5.903   0.604   2.232 -0.8912 -0.8018  2.8127
 2611SOL    HW2 8450   5.761   0.638   2.192 -0.6611  0.3129  2.9037
 2612SOL     OW 8451   1.343   1.856   5.642 -0.0202 -0.4067 -0.7288
 2612SOL    HW1 8452   1.338   1.951   5.636 -1.4394 -0.3455  0.7621
 2612SOL    HW2 8453   1.264   1.830   5.688  0.8331 -2.2312 -0.1681
 2613SOL     OW 8454   0.147   0.569   3.048 -0.1042 -0.3221 -0.4181
 2613SOL    HW1 8455   0.155   0.664   3.037  0.3565 -0.1639  1.0779
 2613SOL    HW2 8456   0.207   0.532   2.983  2.8480  0.5459  1.5844
 2614SOL     OW 8457   4.400   7.200   0.009  0.1710  0.1101 -0.1326
 2614SOL    HW1 8458   4.469   7.258  -0.025  0.6453 -0.3923 -0.0367
 2614SOL    HW2 8459   4.446   7.120   0.034 -0.5069 -0.3782 -0.4265
 2615SOL     OW 8460   3.004   3.810   0.555  0.1666 -0.5899 -0.2617
 2615SOL    HW1 8461   3.080   3.869   0.564 -1.5022  1.6476  0.1237
 2615SOL    HW2 8462   3.015   3.770   0.469  1.0420  0.8507 -0.8587
 2616SOL     OW 8463   1.018   5.484   1.202 -0.2249 -0.0959 -0.5271
 2616SOL    HW1 8464   0.965   5.446   1.272 -0.1490  1.7996  0.6292
 2616SOL    HW2 8465   1.073   5.412   1.171 -0.6297 -1.1088  1.0093
 2617SOL     OW 8466   7.031   1.448   5.514  0.3828 -0.0244 -0.4178
 2617SOL    HW1 8467   6.964   1.409   5.571 -0.5093  0.2008 -1.2972
 2617SOL    HW2 8468   7.100   1.476   5.575 -0.7977  0.7251  0.6342
 2618SOL     OW 8469   5.620   3.975   4.358 -0.3616  0.6391  0.5137
 2618SOL    HW1 8470   5.694   4.008   4.306  0.1072 -0.4932  0.4324
 2618SOL    HW2 8471   5.547   3.971   4.296 -0.3919  1.3624  0.4923
 2619SOL     OW 8472   2.752   3.691   3.017  0.6960  0.5550  0.5745
 2619SOL    HW1 8473   2.717   3.769   2.973 -2.3345 -0.4863  0.9349
 2619SOL    HW2 8474   2.760   3.626   2.947  0.5519  0.3555  0.7437
 2620SOL     OW 8475   2.269   6.684   5.559 -0.2598  0.3300  0.1066
 2620SOL    HW1 8476   2.345   6.647   5.603 -1.5594 -1.6203  0.8331
 2620SOL    HW2 8477   2.278   6.655   5.468 -0.4619 -0.5011  0.3404
 2621SOL     OW 8478   0.290   5.444   5.285  0.4035 -0.4431  0.0844
 2621SOL    HW1 8479   0.329   5.481   5.206 -0.4070  0.3589  0.0473
 2621SOL    HW2 8480   0.243   5.366   5.255  0.4989 -0.4082 -0.1536
 2622SOL     OW 8481   6.837   5.414   4.528  0.2031  0.0525  0.1640
 2622SOL    HW1 8482   6.774   5.406   4.599  2.6241  1.6882  2.7089
 2622SOL    HW2 8483   6.791   5.463   4.460 -1.5061  0.5105  1.5910
 2623SOL     OW 8484   0.380   4.770   1.560  0.1259  0.0693 -0.5748
 2623SOL    HW1 8485   0.373   4.702   1.493  1.9586 -0.6379 -0.1122
 2623SOL    HW2 8486   0.313   4.833   1.537 -1.6542 -1.8787 -1.0200
 2624SOL     OW 8487   0.033   4.970   6.663 -0.5873 -0.4087  0.0284
 2624SOL    HW1 8488   0.044   4.894   6.607 -0.9969  0.7189 -1.6578
 2624SOL    HW2 8489  -0.042   4.949   6.718 -0.3489 -1.4398 -0.0288
 2625SOL     OW 8490   1.174   4.093   4.669 -0.4704 -0.0684  0.2009
 2625SOL    HW1 8491   1.255   4.062   4.629 -0.3204 -0.4360  0.7673
 2625SOL    HW2 8492   1.169   4.045   4.752 -0.5181  1.0113  0.8507
 2626SOL     OW 8493   1.088   1.017   4.113 -0.0475 -0.2731  0.4376
 2626SOL    HW1 8494   1.043   1.023   4.197 -0.4017 -2.4166  0.4512
 2626SOL    HW2 8495   1.018   1.027   4.047  0.2470  1.5386  0.3362
 2627SOL     OW 8496   6.768   5.741   1.489  0.5390  0.1394  0.4979
 2627SOL    HW1 8497   6.675   5.761   1.498 -0.1323 -2.6602  0.4875
 2627SOL    HW2 8498   6.798   5.728   1.579  0.5170 -0.5514  0.4074
 2628SOL     OW 8499   7.129   1.004   0.678  0.2781  0.0266 -0.0408
 2628SOL    HW1 8500   7.214   0.973   0.709  0.0813  0.5164  1.0264
 2628SOL    HW2 8501   7.070   0.929   0.691  0.3941 -0.0845 -0.1450
 2629SOL     OW 8502   2.865   6.498   5.163 -0.1171  0.5241 -0.2703
 2629SOL    HW1 8503   2.796   6.551   5.124 -1.6895 -1.5332 -0.4341
 2629SOL    HW2 8504   2.820   6.445   5.229  1.2676 -1.0133 -0.5061
 2630SOL     OW 8505   2.897   2.090   3.951 -0.1245 -0.1545 -0.0748
 2630SOL    HW1 8506   2.858   2.080   4.038 -1.3099  0.3708 -0.5188
 2630SOL    HW2 8507   2.983   2.128   3.967 -0.3863  0.0629  0.8650
 2631SOL     OW 8508   3.469   5.763   6.969 -0.1475 -0.0438 -0.1492
 2631SOL    HW1 8509   3.414   5.818   6.913  0.2481  0.2743 -0.2367
 2631SOL    HW2 8510   3.465   5.676   6.929  0.9613  0.4047 -1.3086
 2632SOL     OW 8511   6.009   5.508   5.227  0.0377  0.0505 -0.2886
 2632SOL    HW1 8512   5.954   5.444   5.271 -0.2540  0.1313 -0.5341
 2632SOL    HW2 8513   6.044   5.462   5.151  0.1110  0.0743 -0.2695
 2633SOL     OW 8514   4.683   6.164   2.061 -0.0264 -0.1541  0.2912
 2633SOL    HW1 8515   4.768   6.153   2.103 -0.1048 -1.7429  0.0784
 2633SOL    HW2 8516   4.665   6.258   2.068  2.4490  0.5173 -1.0268
 2634SOL     OW 8517   1.830   1.155   2.261  0.3341  0.2676  0.2221
 2634SOL    HW1 8518   1.894   1.190   2.199  0.3856  0.0675  0.1614
 2634SOL    HW2 8519   1.883   1.118   2.332  0.3678 -1.5026 -0.6649
 2635SOL     OW 8520   0.967   3.813   3.018 -0.1890 -0.0081 -0.7355
 2635SOL    HW1 8521   1.051   3.822   2.972 -0.4103  0.1257 -1.1194
 2635SOL    HW2 8522   0.924   3.738   2.976  0.4354 -1.1391  0.5650
 2636SOL     OW 8523   5.413   2.540   5.523 -0.0528 -0.2952 -0.5217
 2636SOL    HW1 8524   5.455   2.599   5.587  0.4157  1.8434 -2.6570
 2636SOL    HW2 8525   5.448   2.454   5.544 -1.0078 -0.0086  2.9700
 2637SOL     OW 8526   6.455   3.448   4.891 -0.3204  0.4782 -0.0489
 2637SOL    HW1 8527   6.389   3.494   4.943  0.0172 -0.5295  1.3285
 2637SOL    HW2 8528   6.537   3.464   4.938  0.4259  1.5766 -1.6469
 2638SOL     OW 8529   2.610   6.106   3.134  0.1369  0.0755 -0.0475
 2638SOL    HW1 8530   2.681   6.159   3.099  0.6341 -0.5319  0.0309
 2638SOL    HW2 8531   2.590   6.043   3.064 -0.4505  0.3640 -0.1429
 2639SOL     OW 8532   1.162   4.809   5.395 -0.2258 -0.3532 -0.3426
 2639SOL    HW1 8533   1.073   4.813   5.359 -0.5620 -2.1759  0.1686
 2639SOL    HW2 8534   1.217   4.793   5.318 -0.5121 -0.6173 -0.4977
 2640SOL     OW 8535   4.267   3.709   3.249  0.2134 -0.3859 -0.4377
 2640SOL    HW1 8536   4.254   3.696   3.343  2.6820  1.9636  0.3521
 2640SOL    HW2 8537   4.196   3.767   3.222 -0.3704 -0.8863  0.0018
 2641SOL     OW 8538   4.731   0.440   4.332 -0.1516 -0.1402 -0.2941
 2641SOL    HW1 8539   4.802   0.502   4.313  1.1736 -1.5248 -0.0312
 2641SOL    HW2 8540   4.683   0.480   4.404  1.2012  0.2023  0.4552
 2642SOL     OW 8541   6.247   4.606   1.706  0.4619  0.1142 -0.1577
 2642SOL    HW1 8542   6.297   4.620   1.787  1.5673 -0.6635 -0.6925
 2642SOL    HW2 8543   6.291   4.660   1.641 -0.3623  0.6534 -0.2851
 2643SOL     OW 8544   3.837   3.274   1.966 -0.4134 -0.8751 -0.3451
 2643SOL    HW1 8545   3.800   3.206   1.909  0.1283 -1.0667 -0.4753
 2643SOL    HW2 8546   3.771   3.287   2.034 -0.9606 -0.8198 -0.8770
 2644SOL     OW 8547   6.181   3.106   1.863  0.1420  0.3943 -0.0614
 2644SOL    HW1 8548   6.276   3.092   1.855  0.0494 -0.0816 -0.3928
 2644SOL    HW2 8549   6.173   3.185   1.916  0.7028 -0.5404  1.4695
 2645SOL     OW 8550   6.735   3.448   1.977  0.1369  0.2941 -0.1955
 2645SOL    HW1 8551   6.696   3.522   2.024 -2.1474 -0.5656 -0.6123
 2645SOL    HW2 8552   6.721   3.373   2.034  2.0887  0.0654  0.0446
 2646SOL     OW 8553   3.929   2.448   1.237 -0.4183  0.2622  0.4171
 2646SOL    HW1 8554   3.906   2.526   1.188  1.1861  0.5396  0.0348
 2646SOL    HW2 8555   4.024   2.453   1.247 -0.3769 -1.2184  1.1102
 2647SOL     OW 8556   2.593   4.606   5.456 -0.1801  0.2452  0.2411
 2647SOL    HW1 8557   2.683   4.616   5.424 -0.5264  0.2927 -0.7657
 2647SOL    HW2 8558   2.592   4.650   5.541  0.8368 -0.0710  0.4284
 2648SOL     OW 8559   1.197   6.145   0.011 -0.3355 -0.1160 -0.3399
 2648SOL    HW1 8560   1.263   6.205  -0.023 -0.6646 -0.2972 -1.3291
 2648SOL    HW2 8561   1.142   6.125  -0.064  0.5947 -2.7539 -0.4376
 2649SOL     OW 8562   4.083   2.143   6.650  0.0160 -0.2520  0.0990
 2649SOL    HW1 8563   3.989   2.127   6.663  0.0053  0.6683  1.3987
 2649SOL    HW2 8564   4.088   2.235   6.623  0.4279 -0.8480 -2.0506
 2650SOL     OW 8565   5.309   3.070   1.479 -0.4001 -0.1587 -0.2296
 2650SOL    HW1 8566   5.401   3.076   1.456 -0.5361  0.4540 -0.6396
 2650SOL    HW2 8567   5.307   3.083   1.574 -0.3466  3.5305 -0.6122
 2651SOL     OW 8568   6.780   0.335   6.234  0.0457  0.1651  0.0088
 2651SOL    HW1 8569   6.752   0.425   6.251  1.3432  0.6788 -0.3654
 2651SOL    HW2 8570   6.722   0.304   6.165  0.5774  1.3156 -1.0013
 2652SOL     OW 8571   2.708   6.576   0.266  0.5760  0.1104 -0.0389
 2652SOL    HW1 8572   2.715   6.566   0.171  1.1808 -0.4840  0.0576
 2652SOL    HW2 8573   2.799   6.580   0.296  0.4267 -1.1943  0.6562
 2653SOL     OW 8574   1.489   6.867   1.479  0.1613  0.0972 -0.2335
 2653SOL    HW1 8575   1.402   6.881   1.442 -0.2235 -0.1509  0.5631
 2653SOL    HW2 8576   1.499   6.938   1.543 -0.6926 -1.5420  1.8549
 2654SOL     OW 8577   7.204   2.724   4.814 -0.0357 -0.0538  0.0433
 2654SOL    HW1 8578   7.153   2.803   4.795  0.1998  0.1567  0.2693
 2654SOL    HW2 8579   7.230   2.734   4.906 -0.1539 -0.4805  0.1240
 2655SOL     OW 8580   4.066   0.541   3.665 -0.1639 -0.2236  0.1884
 2655SOL    HW1 8581   4.046   0.501   3.750  1.0418 -0.5130  0.3540
 2655SOL    HW2 8582   4.162   0.541   3.661 -0.2100 -0.5842 -1.3518
 2656SOL     OW 8583   4.186   4.432   6.311  0.0334  0.1621 -0.1518
 2656SOL    HW1 8584   4.167   4.448   6.403  0.4357 -0.6573  0.0844
 2656SOL    HW2 8585   4.108   4.463   6.264 -0.2776  0.3462  0.4781
 2657SOL     OW 8586   7.027   4.418   2.011 -1.4978  0.2100  0.1239
 2657SOL    HW1 8587   6.992   4.491   2.063 -2.3937  0.0276 -0.2102
 2657SOL    HW2 8588   7.027   4.451   1.921  0.7151  0.7810  0.2757
 2658SOL     OW 8589   4.283   0.384   3.072  0.4495 -0.5846  0.2712
 2658SOL    HW1 8590   4.350   0.451   3.090  1.0182 -1.0261 -0.1628
 2658SOL    HW2 8591   4.231   0.380   3.153 -1.1672  2.1299 -0.5292
 2659SOL     OW 8592   3.930   6.138   3.027 -0.4611  0.2060 -0.5374
 2659SOL    HW1 8593   3.881   6.076   3.081  0.3046 -0.1265 -0.2166
 2659SOL    HW2 8594   4.022   6.112   3.038 -0.1903  0.9963 -0.9120
 2660SOL     OW 8595   7.210   2.291   3.282 -0.8071  0.3210  0.3383
 2660SOL    HW1 8596   7.277   2.223   3.274  0.8109  1.9415 -0.4368
 2660SOL    HW2 8597   7.200   2.304   3.376  0.4198  0.4569  0.4634
 2661SOL     OW 8598   1.056   1.930   5.423  0.3674 -0.2762 -0.0555
 2661SOL    HW1 8599   1.009   1.965   5.347 -1.4388  0.2333  1.2323
 2661SOL    HW2 8600   1.025   1.982   5.497  2.9745  0.0636  0.9232
 2662SOL     OW 8601   0.492   1.423   5.143  0.1006 -0.2775  0.2075
 2662SOL    HW1 8602   0.409   1.467   5.128  0.0795  0.7348  2.6423
 2662SOL    HW2 8603   0.558   1.488   5.118  0.1015 -0.1825  0.4447
 2663SOL     OW 8604   5.164   3.819   6.524  0.2458 -0.2794 -0.0819
 2663SOL    HW1 8605   5.146   3.823   6.430 -1.1737  0.3190  0.1871
 2663SOL    HW2 8606   5.243   3.871   6.535  0.1444  0.0661 -0.8847
 2664SOL     OW 8607   4.102   2.490   0.611  0.1402  0.1902 -0.5478
 2664SOL    HW1 8608   4.130   2.515   0.699 -0.8841  0.5937 -0.3241
 2664SOL    HW2 8609   4.149   2.550   0.553 -0.7887  1.3598 -0.1307
 2665SOL     OW 8610   5.615   7.087   0.179 -0.3170  0.2572  0.8487
 2665SOL    HW1 8611   5.630   7.016   0.241  2.4239 -1.3242 -1.3755
 2665SOL    HW2 8612   5.562   7.048   0.110  2.0023 -0.0296 -0.8634
 2666SOL     OW 8613   1.380   5.891   5.034  0.2839 -0.3593 -0.5108
 2666SOL    HW1 8614   1.412   5.815   5.083 -1.1674 -0.0762  0.9583
 2666SOL    HW2 8615   1.455   5.951   5.031  0.7410 -0.8598  0.4032
 2667SOL     OW 8616   2.314   4.970   0.488  0.0520 -0.6931  0.4451
 2667SOL    HW1 8617   2.336   5.047   0.540  0.9081 -0.1112 -0.7245
 2667SOL    HW2 8618   2.386   4.962   0.425 -0.1049 -2.3562  0.4278
 2668SOL     OW 8619   2.196   2.705   1.798 -0.2824  0.3922  0.0625
 2668SOL    HW1 8620   2.136   2.659   1.857 -1.4174  0.4980 -0.9644
 2668SOL    HW2 8621   2.144   2.778   1.764  0.4365  0.4958 -0.8332
 2669SOL     OW 8622   1.256   0.762   5.888  0.2162  0.0405  0.4156
 2669SOL    HW1 8623   1.305   0.811   5.822  0.6145  0.3670  0.9489
 2669SOL    HW2 8624   1.258   0.672   5.857  1.3958 -0.0043  0.5568
 2670SOL     OW 8625   3.292   1.477   2.118 -0.1866  0.0119  0.3916
 2670SOL    HW1 8626   3.257   1.515   2.037  1.7135  1.5981  0.2199
 2670SOL    HW2 8627   3.303   1.552   2.177  0.7538 -0.7396  1.2195
 2671SOL     OW 8628   6.643   4.349   6.245  0.0760 -0.0778  0.3360
 2671SOL    HW1 8629   6.724   4.353   6.194 -1.0862 -2.1820 -1.8870
 2671SOL    HW2 8630   6.599   4.270   6.213 -1.5423 -0.6141  3.5212
 2672SOL     OW 8631   1.594   1.446   2.609 -0.4343  0.1166 -0.1002
 2672SOL    HW1 8632   1.661   1.511   2.590  1.2793 -1.6008 -0.2904
 2672SOL    HW2 8633   1.575   1.458   2.702 -1.0661  1.6579 -0.4069
 2673SOL     OW 8634   6.784   6.307   6.562  0.5843 -0.3375  0.0003
 2673SOL    HW1 8635   6.769   6.216   6.588 -1.8886  0.6229  2.4458
 2673SOL    HW2 8636   6.813   6.351   6.642 -0.9984  1.5353 -0.3773
 2674SOL     OW 8637   3.114   6.181   4.880  0.0008  0.5348 -0.0843
 2674SOL    HW1 8638   3.075   6.110   4.829 -0.2483  1.0273 -0.5842
 2674SOL    HW2 8639   3.048   6.203   4.946  0.7516 -0.8492  1.2053
 2675SOL     OW 8640   3.642   6.618   2.874 -0.2453  0.3405  0.1248
 2675SOL    HW1 8641   3.734   6.631   2.899  0.1807  0.8194 -1.5235
 2675SOL    HW2 8642   3.605   6.706   2.873 -0.2910  0.3158 -0.7032
 2676SOL     OW 8643   5.609   5.677   4.324  0.1056 -0.0211 -0.4991
 2676SOL    HW1 8644   5.613   5.635   4.410  0.4745  1.4723  0.2510
 2676SOL    HW2 8645   5.555   5.618   4.271 -0.4926 -0.7636  0.8812
 2677SOL     OW 8646   4.252   4.947   1.429 -0.7174  0.1031  0.4056
 2677SOL    HW1 8647   4.212   4.879   1.482  0.3968 -0.3960  0.6339
 2677SOL    HW2 8648   4.342   4.917   1.415 -0.2594  1.4243  0.3385
 2678SOL     OW 8649   2.474   6.708   3.679  0.5660  0.1995 -0.1898
 2678SOL    HW1 8650   2.469   6.640   3.746 -0.7086  0.6763  0.2348
 2678SOL    HW2 8651   2.468   6.661   3.596 -2.5640 -0.1257  0.1124
 2679SOL     OW 8652   0.221   6.955   2.568  0.0012  0.3767  0.3548
 2679SOL    HW1 8653   0.265   7.039   2.554  0.7015  0.2823  1.8149
 2679SOL    HW2 8654   0.129   6.974   2.555  0.1084  1.4918  1.0636
 2680SOL     OW 8655   5.853   4.031   3.021 -0.2933 -0.5109 -0.0834
 2680SOL    HW1 8656   5.809   3.977   2.956  1.3668 -0.4212 -1.3718
 2680SOL    HW2 8657   5.866   4.115   2.977 -0.4496  0.0580  0.9192
 2681SOL     OW 8658   5.554   3.966   0.186 -0.0773 -0.7401  0.5908
 2681SOL    HW1 8659   5.597   3.880   0.179  0.8967 -0.1631 -0.9684
 2681SOL    HW2 8660   5.567   4.006   0.100 -2.3125  0.1647  0.6232
 2682SOL     OW 8661   1.772   4.041   5.456  0.5184  0.3312 -0.0462
 2682SOL    HW1 8662   1.713   4.115   5.467  1.0155  0.6518  0.5355
 2682SOL    HW2 8663   1.774   4.026   5.362 -0.7038  0.1291 -0.0550
 2683SOL     OW 8664   0.438   6.343   6.029 -0.0941 -0.0930  0.1607
 2683SOL    HW1 8665   0.478   6.275   5.975  1.7531  0.7704  0.3743
 2683SOL    HW2 8666   0.489   6.343   6.110 -0.7814  0.7908  0.6101
 2684SOL     OW 8667   5.074   2.222   2.393  0.1983 -0.4200  0.1298
 2684SOL    HW1 8668   5.097   2.289   2.329 -2.4000  2.9270  2.3319
 2684SOL    HW2 8669   5.049   2.146   2.340 -0.1786  1.5407 -2.7464
 2685SOL     OW 8670   1.756   1.445   2.387 -0.5887 -0.4765 -0.7545
 2685SOL    HW1 8671   1.725   1.373   2.442 -0.1640 -0.5463 -0.6011
 2685SOL    HW2 8672   1.769   1.405   2.301  1.0839 -0.9502 -0.3079
 2686SOL     OW 8673   1.576   4.625   7.076 -0.5947  0.3774 -0.6577
 2686SOL    HW1 8674   1.507   4.664   7.130  0.9084  0.7904  1.0207
 2686SOL    HW2 8675   1.588   4.687   7.004  0.0182  1.7624  0.6122
 2687SOL     OW 8676   0.038   5.375   0.921  0.4857  0.3639 -0.1118
 2687SOL    HW1 8677  -0.016   5.363   1.000  1.1983  0.8745  0.4763
 2687SOL    HW2 8678  -0.015   5.342   0.850  0.3338 -1.3280  0.7459
 2688SOL     OW 8679   5.530   5.362   4.549  0.2522 -0.3131 -0.4811
 2688SOL    HW1 8680   5.461   5.392   4.490 -0.3931  0.3064  0.5560
 2688SOL    HW2 8681   5.589   5.437   4.557 -0.3819  0.0986  0.6780
 2689SOL     OW 8682   5.533   1.442   6.585 -0.3002  0.7149  0.8822
 2689SOL    HW1 8683   5.481   1.468   6.508 -1.4777  0.6620  1.6251
 2689SOL    HW2 8684   5.549   1.525   6.630  0.1346  0.7102  0.7362
 2690SOL     OW 8685   5.668   4.108   7.180 -0.2046 -0.5296  0.1479
 2690SOL    HW1 8686   5.661   4.201   7.159 -3.5128 -0.2731  1.7548
 2690SOL    HW2 8687   5.732   4.105   7.251 -1.2047  0.8160  1.1767
 2691SOL     OW 8688   6.808   0.043   3.932  0.5912 -0.4469 -0.3136
 2691SOL    HW1 8689   6.780   0.081   4.016  2.0456  0.6638 -0.2870
 2691SOL    HW2 8690   6.740   0.070   3.870  0.0387 -0.3915  0.2984
 2692SOL     OW 8691   4.102   4.989   4.880  0.6039  0.3329  0.3017
 2692SOL    HW1 8692   4.028   5.028   4.928  1.0515  1.3574  0.1896
 2692SOL    HW2 8693   4.155   5.064   4.853  0.5857 -0.2304 -1.4566
 2693SOL     OW 8694   6.661   0.060   2.676  0.4349 -0.0376 -0.3536
 2693SOL    HW1 8695   6.621   0.100   2.753 -2.1752 -2.0176 -0.5485
 2693SOL    HW2 8696   6.696  -0.023   2.707 -0.6149 -0.8413 -1.2388
 2694SOL     OW 8697   1.187   2.495   5.671 -0.3323  0.3576  0.1993
 2694SOL    HW1 8698   1.277   2.470   5.652 -0.6763 -0.8592  0.0829
 2694SOL    HW2 8699   1.159   2.435   5.740 -0.5821  1.7201  1.3385
 2695SOL     OW 8700   1.458   0.275   6.131  0.0303  0.0588  0.1346
 2695SOL    HW1 8701   1.387   0.333   6.103 -0.4262  0.0659  1.2363
 2695SOL    HW2 8702   1.531   0.334   6.148 -0.1148  0.2023  0.2678
 2696SOL     OW 8703   5.342   3.006   0.857  0.4080 -0.4349  0.2243
 2696SOL    HW1 8704   5.360   3.070   0.788  1.7453 -1.4240 -0.3946
 2696SOL    HW2 8705   5.260   2.965   0.831  0.1294  0.2360  0.0232
 2697SOL     OW 8706   1.904   1.135   1.456  0.5482 -0.4174  0.2686
 2697SOL    HW1 8707   1.911   1.171   1.545  0.5045  0.1001  0.0627
 2697SOL    HW2 8708   1.874   1.208   1.403  2.8201 -0.0555 -0.6210
 2698SOL     OW 8709   6.146   1.089   3.462  0.1315 -0.6064 -0.3085
 2698SOL    HW1 8710   6.164   1.117   3.552  0.1933 -0.6995 -0.2913
 2698SOL    HW2 8711   6.214   1.131   3.409 -0.5609  0.3420 -0.4652
 2699SOL     OW 8712   3.078   5.177   4.124  0.3807  0.4663  0.2148
 2699SOL    HW1 8713   3.172   5.163   4.112  0.5465  0.9904  0.8044
 2699SOL    HW2 8714   3.073   5.233   4.202 -0.3673  1.2089 -0.3496
 2700SOL     OW 8715   6.030   6.417   5.016  0.5478 -0.0396 -0.2709
 2700SOL    HW1 8716   6.024   6.512   5.008  0.1433  0.0374  0.7674
 2700SOL    HW2 8717   5.974   6.383   4.946 -0.0488  0.4982 -0.0622
 2701SOL     OW 8718   5.492   4.915   0.515  0.1557 -0.1437  0.0417
 2701SOL    HW1 8719   5.452   5.001   0.510 -2.0746 -1.1841 -1.5596
 2701SOL    HW2 8720   5.585   4.933   0.531 -0.0180  2.5812 -1.3872
 2702SOL     OW 8721   5.117   6.394   1.967  0.3523 -0.0270 -0.4003
 2702SOL    HW1 8722   5.143   6.378   2.058 -1.5463  0.5500  0.2973
 2702SOL    HW2 8723   5.163   6.475   1.943 -0.8071  1.0520  0.8337
 2703SOL     OW 8724   3.600   6.133   2.982  0.0007  0.1170  0.4783
 2703SOL    HW1 8725   3.626   6.054   2.935  0.4200  0.2115  0.5529
 2703SOL    HW2 8726   3.593   6.200   2.914 -0.8361 -0.0891  0.3393
 2704SOL     OW 8727   3.441   5.700   4.400  0.0740 -0.3863 -0.0153
 2704SOL    HW1 8728   3.362   5.666   4.358  0.0445 -0.8603  0.4173
 2704SOL    HW2 8729   3.498   5.624   4.409  0.1283 -0.2706  0.6917
 2705SOL     OW 8730   4.310   7.199   2.410  0.3670 -0.7156  0.3694
 2705SOL    HW1 8731   4.381   7.214   2.348 -0.1617  1.6035  0.2594
 2705SOL    HW2 8732   4.330   7.254   2.485 -1.9196  1.0520 -0.2097
 2706SOL     OW 8733   2.986   2.747   3.216  0.6854 -0.3776  0.6046
 2706SOL    HW1 8734   3.042   2.825   3.209 -0.2054  0.3227  1.1251
 2706SOL    HW2 8735   2.917   2.761   3.151  0.4284 -0.6635  0.8135
 2707SOL     OW 8736   4.635   0.481   3.064 -0.7919 -0.2253 -0.1978
 2707SOL    HW1 8737   4.646   0.527   2.981  0.4283 -0.6843 -0.3033
 2707SOL    HW2 8738   4.612   0.391   3.039 -0.2001 -0.4211 -0.0490
 2708SOL     OW 8739   0.599   0.371   4.774 -0.8221 -0.0733 -0.4817
 2708SOL    HW1 8740   0.554   0.330   4.700 -0.2492 -1.7488  0.0398
 2708SOL    HW2 8741   0.542   0.352   4.849 -0.3715 -0.2218 -0.1725
 2709SOL     OW 8742   1.046   3.650   4.920  0.0749 -0.1207  0.7758
 2709SOL    HW1 8743   1.111   3.589   4.884 -0.1630  0.5589 -0.8851
 2709SOL    HW2 8744   1.001   3.685   4.843 -3.0345 -1.3548  1.8667
 2710SOL     OW 8745   2.286   3.981   5.386  0.8317  0.3756  0.1942
 2710SOL    HW1 8746   2.201   3.963   5.346  0.1032  0.5228  1.6154
 2710SOL    HW2 8747   2.289   4.076   5.395  0.3818  0.2867  1.6666
 2711SOL     OW 8748   2.349   2.404   2.639  0.1207 -0.1942 -0.1558
 2711SOL    HW1 8749   2.305   2.330   2.681  2.2237 -0.9935  0.7837
 2711SOL    HW2 8750   2.424   2.366   2.595  0.1984  1.1712 -1.2676
 2712SOL     OW 8751   1.719   1.290   3.276 -0.4209 -0.1480  0.1864
 2712SOL    HW1 8752   1.719   1.276   3.370 -0.6147  0.9715  0.3641
 2712SOL    HW2 8753   1.807   1.262   3.248 -0.0777  0.2626  0.8243
 2713SOL     OW 8754   4.217   6.526   6.051 -0.3581  0.2721  0.0768
 2713SOL    HW1 8755   4.122   6.513   6.050 -0.4174  0.5833  0.7789
 2713SOL    HW2 8756   4.244   6.510   5.961 -0.9217 -0.9807  0.0967
 2714SOL     OW 8757   2.963   0.853   3.846  0.0465 -0.3372  0.4495
 2714SOL    HW1 8758   2.901   0.780   3.846 -1.3971  0.8319  0.3266
 2714SOL    HW2 8759   2.930   0.913   3.779  0.4522  0.9955  1.3880
 2715SOL     OW 8760   0.550   2.598   3.436  0.2668 -0.5413  0.3486
 2715SOL    HW1 8761   0.566   2.638   3.521  0.4911 -0.4838  0.2782
 2715SOL    HW2 8762   0.622   2.537   3.424 -0.3929 -1.4190  0.7270
 2716SOL     OW 8763   2.064   6.013   2.010  0.1721  0.3498  0.2681
 2716SOL    HW1 8764   2.010   6.038   2.085  0.6306 -0.5362  0.9189
 2716SOL    HW2 8765   2.084   5.920   2.026  2.2057  0.7423  0.2566
 2717SOL     OW 8766   2.135   1.461   5.980  0.1993 -0.6485 -0.2583
 2717SOL    HW1 8767   2.049   1.487   5.948  0.6689 -0.8497 -1.7310
 2717SOL    HW2 8768   2.137   1.492   6.071 -0.8363  0.7135 -0.6767
 2718SOL     OW 8769   5.127   3.162   3.250  0.1692  0.3245  0.6476
 2718SOL    HW1 8770   5.221   3.167   3.266  0.4120  2.9770 -1.0634
 2718SOL    HW2 8771   5.094   3.248   3.274 -0.9614  1.1429 -3.1804
 2719SOL     OW 8772   6.005   4.500   3.916  0.1277 -0.0891 -0.2105
 2719SOL    HW1 8773   5.947   4.556   3.968 -0.7338  3.3601 -4.3700
 2719SOL    HW2 8774   5.957   4.418   3.907 -1.1001  0.3644  1.6700
 2720SOL     OW 8775   1.171   5.398   5.902 -0.1028 -0.0456 -0.1388
 2720SOL    HW1 8776   1.193   5.389   5.809 -0.8405 -0.9608 -0.2546
 2720SOL    HW2 8777   1.207   5.319   5.943  0.4577  0.4867  0.4082
 2721SOL     OW 8778   0.606   1.005   6.866 -0.1980 -0.3940 -0.1067
 2721SOL    HW1 8779   0.555   0.930   6.896  0.2689 -0.3163  0.9705
 2721SOL    HW2 8780   0.621   1.057   6.946  1.8560 -0.6201 -0.2891
 2722SOL     OW 8781   5.383   2.484   2.630  0.1780 -0.0561  0.4155
 2722SOL    HW1 8782   5.352   2.463   2.719  0.0945 -1.1657  0.1460
 2722SOL    HW2 8783   5.462   2.431   2.619  0.1536  0.0291 -0.1996
 2723SOL     OW 8784   2.756   3.401   2.571  0.5297 -0.3691 -0.0875
 2723SOL    HW1 8785   2.744   3.356   2.487 -1.4105 -0.8436  0.3776
 2723SOL    HW2 8786   2.790   3.334   2.630 -2.8300 -1.5499  0.7360
 2724SOL     OW 8787   2.023   1.866   3.231 -0.1229 -0.5537  0.7705
 2724SOL    HW1 8788   2.072   1.790   3.262 -0.4943 -0.5025  1.5203
 2724SOL    HW2 8789   2.000   1.913   3.311 -0.3942  0.0394  0.3487
 2725SOL     OW 8790   3.562   5.741   6.316  0.2331 -0.3646 -0.0996
 2725SOL    HW1 8791   3.513   5.806   6.366 -0.2761 -0.0289 -1.0135
 2725SOL    HW2 8792   3.495   5.685   6.277  0.6706 -1.7302  1.0161
 2726SOL     OW 8793   3.596   5.837   5.164 -0.1375  1.0022  0.0054
 2726SOL    HW1 8794   3.542   5.842   5.243 -1.7957  1.3573 -1.1055
 2726SOL    HW2 8795   3.636   5.751   5.168 -1.3528  0.4335  0.5285
 2727SOL     OW 8796   2.391   4.320   3.015 -0.9530  0.7133  0.1187
 2727SOL    HW1 8797   2.383   4.414   3.025  1.8182  1.0850 -0.4120
 2727SOL    HW2 8798   2.474   4.298   3.056 -0.6425 -1.2174 -1.3712
 2728SOL     OW 8799   3.604   4.115   1.125  0.3105  0.6171 -0.1484
 2728SOL    HW1 8800   3.521   4.100   1.169 -0.3814  0.8314 -1.3327
 2728SOL    HW2 8801   3.584   4.104   1.032  2.1589 -2.0525 -0.3664
 2729SOL     OW 8802   7.018   4.828   3.000 -0.2587  0.3832  0.1483
 2729SOL    HW1 8803   7.065   4.855   2.921 -0.9978 -0.8318 -0.7365
 2729SOL    HW2 8804   6.927   4.823   2.973 -0.6820  0.9873  1.3837
 2730SOL     OW 8805   0.939   7.137   6.863 -0.0350 -0.6036  0.2960
 2730SOL    HW1 8806   0.862   7.187   6.893  0.3033  0.7861 -1.0395
 2730SOL    HW2 8807   0.998   7.137   6.938 -0.8172 -0.5862  0.9253
 2731SOL     OW 8808   2.612   4.277   4.640 -0.0659 -0.0571  0.4929
 2731SOL    HW1 8809   2.528   4.267   4.597 -0.0557  1.0921  0.1718
 2731SOL    HW2 8810   2.599   4.240   4.727 -0.8629 -0.0264  0.3941
 2732SOL     OW 8811   2.865   0.631   1.012  0.0139 -0.3493  0.0273
 2732SOL    HW1 8812   2.786   0.658   0.965  0.6502 -0.0375 -0.9102
 2732SOL    HW2 8813   2.898   0.711   1.053 -0.6247 -0.6534  1.1601
 2733SOL     OW 8814   1.325   3.870   6.165 -0.2400 -0.0406 -0.2158
 2733SOL    HW1 8815   1.316   3.871   6.070 -1.4093  0.0923 -0.1183
 2733SOL    HW2 8816   1.237   3.851   6.197 -0.1761  1.3635  0.8826
 2734SOL     OW 8817   6.204   4.866   3.829  0.2514  0.0318  0.5498
 2734SOL    HW1 8818   6.235   4.945   3.874 -0.5096  0.3594  0.5126
 2734SOL    HW2 8819   6.110   4.881   3.816  0.3494 -0.2872 -0.6704
 2735SOL     OW 8820   3.087   5.307   4.669  0.0890  0.8543 -0.1809
 2735SOL    HW1 8821   3.163   5.365   4.660 -1.3720  2.7691 -0.8403
 2735SOL    HW2 8822   3.032   5.350   4.735 -1.4287  0.6975 -1.2913
 2736SOL     OW 8823   3.258   1.731   4.349  0.0796  0.0276 -0.1011
 2736SOL    HW1 8824   3.239   1.641   4.322  1.3480 -0.3854  0.3405
 2736SOL    HW2 8825   3.305   1.769   4.275 -0.9754  0.5506 -0.5374
 2737SOL     OW 8826   6.900   2.429   5.245 -0.1699 -0.2738  0.2390
 2737SOL    HW1 8827   6.867   2.431   5.155 -0.7533 -2.4825  0.3403
 2737SOL    HW2 8828   6.978   2.373   5.241  0.1028  0.0438  1.0053
 2738SOL     OW 8829   4.383   2.033   2.613  0.0929  0.7056 -0.3385
 2738SOL    HW1 8830   4.373   2.086   2.534  0.9825  1.1683 -0.1524
 2738SOL    HW2 8831   4.344   2.086   2.682  3.3481  2.4338  0.3563
 2739SOL     OW 8832   4.773   0.147   6.853 -0.5838  0.0467 -0.0376
 2739SOL    HW1 8833   4.837   0.080   6.878 -0.9056 -0.1862  0.1635
 2739SOL    HW2 8834   4.780   0.153   6.758 -0.3421 -0.0578 -0.0261
 2740SOL     OW 8835   2.700   4.519   2.220 -0.1686  0.2163  0.0865
 2740SOL    HW1 8836   2.720   4.464   2.144  1.0238  1.2918 -0.4260
 2740SOL    HW2 8837   2.638   4.584   2.187 -0.6591 -0.1025  0.3779
 2741SOL     OW 8838   1.122   2.105   2.532  0.8171  0.5690  0.0970
 2741SOL    HW1 8839   1.082   2.172   2.587  0.9931 -0.8369  2.0768
 2741SOL    HW2 8840   1.216   2.120   2.542  0.8565  1.2377 -1.1011
 2742SOL     OW 8841   5.610   5.852   7.009  0.2196 -0.2527 -0.0183
 2742SOL    HW1 8842   5.662   5.817   6.937 -0.4269  0.0969 -0.6677
 2742SOL    HW2 8843   5.669   5.909   7.057  0.6420 -0.4623 -0.2892
 2743SOL     OW 8844   1.971   0.834   5.712 -0.3373 -0.3134  0.0569
 2743SOL    HW1 8845   2.014   0.759   5.672  0.0904  0.5731 -1.1946
 2743SOL    HW2 8846   1.914   0.868   5.644  0.2554  1.1225  0.2572
 2744SOL     OW 8847   0.561   6.485   2.510  0.0129 -0.4796  0.0173
 2744SOL    HW1 8848   0.597   6.424   2.574  0.7251  0.7687  0.8400
 2744SOL    HW2 8849   0.469   6.460   2.502  0.1107 -1.1710  0.9077
 2745SOL     OW 8850   5.902   2.948   3.986  0.5357 -0.5344 -0.0648
 2745SOL    HW1 8851   5.897   2.869   4.040  0.5245 -0.0744  0.6257
 2745SOL    HW2 8852   5.992   2.980   3.999  0.5730 -0.4882 -0.4239
 2746SOL     OW 8853   1.666   5.425   1.240 -0.3086  0.2071 -0.6832
 2746SOL    HW1 8854   1.634   5.376   1.165 -0.2811  0.1448 -0.6547
 2746SOL    HW2 8855   1.737   5.371   1.276  1.3413  1.3770 -2.0569
 2747SOL     OW 8856   7.226   7.127   5.585  0.2344  0.1822 -0.5465
 2747SOL    HW1 8857   7.230   7.075   5.665 -2.1712  0.2387 -0.2941
 2747SOL    HW2 8858   7.243   7.216   5.613  1.5764 -0.0785 -0.4958
 2748SOL     OW 8859   4.012   5.412   4.682 -0.6277 -0.0557  0.3232
 2748SOL    HW1 8860   3.938   5.429   4.739 -1.9807 -1.5930 -0.8867
 2748SOL    HW2 8861   4.031   5.319   4.694  0.3584  0.0540 -0.2472
 2749SOL     OW 8862   0.993   4.445   2.663 -0.0247  0.6249  0.4638
 2749SOL    HW1 8863   1.016   4.525   2.711  0.4315 -0.4189  2.0817
 2749SOL    HW2 8864   1.060   4.382   2.689  0.8473  0.2464 -2.3936
 2750SOL     OW 8865   6.371   2.737   5.802 -0.1208 -0.0004  0.0200
 2750SOL    HW1 8866   6.413   2.658   5.837  1.9121  0.8649 -0.3595
 2750SOL    HW2 8867   6.410   2.749   5.715 -1.1155  0.8903 -0.3244
 2751SOL     OW 8868   6.865   4.525   6.984  0.3752  0.1343 -0.0372
 2751SOL    HW1 8869   6.802   4.529   7.056  0.1082 -0.4658 -0.2314
 2751SOL    HW2 8870   6.853   4.608   6.938  1.7753  1.3246  1.5989
 2752SOL     OW 8871   1.444   5.361   3.963 -0.5824  0.1612  0.2625
 2752SOL    HW1 8872   1.506   5.420   3.921 -1.1218 -0.4539 -1.4901
 2752SOL    HW2 8873   1.435   5.395   4.052  3.3505 -0.5456  1.1386
 2753SOL     OW 8874   6.959   7.128   5.581  0.0836 -0.1987  0.2357
 2753SOL    HW1 8875   6.940   7.196   5.517 -0.1944 -3.0059 -2.9749
 2753SOL    HW2 8876   7.055   7.125   5.587  0.0913  0.7543  0.8453
 2754SOL     OW 8877   3.173   3.147   6.630  0.2053 -0.0951  0.8265
 2754SOL    HW1 8878   3.185   3.068   6.576 -1.2452  0.1166  0.1699
 2754SOL    HW2 8879   3.221   3.215   6.583 -1.7527  0.2908 -0.7359
 2755SOL     OW 8880   1.219   0.038   4.613  0.3823 -0.0333  0.5463
 2755SOL    HW1 8881   1.269   0.025   4.532  1.4649 -0.4726  1.2498
 2755SOL    HW2 8882   1.170  -0.044   4.624  0.6861 -0.2065  0.6282
 2756SOL     OW 8883   7.228   1.191   4.762 -0.6433  0.3257 -0.1751
 2756SOL    HW1 8884   7.257   1.233   4.681 -1.2908 -0.4115 -0.8134
 2756SOL    HW2 8885   7.287   1.224   4.830  0.7210 -0.0247 -1.1615
 2757SOL     OW 8886   0.164   4.253   2.818  0.0896  0.0368 -0.0437
 2757SOL    HW1 8887   0.172   4.180   2.757  1.9280  0.3261 -0.1935
 2757SOL    HW2 8888   0.152   4.212   2.904 -0.0160 -0.4065 -0.2694
 2758SOL     OW 8889   4.562   5.850   4.900  0.0029  0.1890 -0.2598
 2758SOL    HW1 8890   4.482   5.808   4.932  0.3008  0.4749  0.8960
 2758SOL    HW2 8891   4.563   5.831   4.806 -0.0554 -2.0700  0.1443
 2759SOL     OW 8892   2.213   3.728   3.542 -0.2865  0.0558 -0.7522
 2759SOL    HW1 8893   2.248   3.673   3.472  1.2860  0.6183 -0.4430
 2759SOL    HW2 8894   2.215   3.817   3.507 -1.3127  0.1300 -0.6680
 2760SOL     OW 8895   1.557   1.215   1.599  0.2682  0.2512 -0.0366
 2760SOL    HW1 8896   1.585   1.126   1.621  1.0051  0.5463  0.2261
 2760SOL    HW2 8897   1.609   1.272   1.655  1.0250  0.9417 -1.3827
 2761SOL     OW 8898   2.005   4.384   2.289 -0.0457 -0.3132 -0.3152
 2761SOL    HW1 8899   2.047   4.300   2.274 -0.4724 -0.5416 -0.2561
 2761SOL    HW2 8900   1.913   4.362   2.305  0.2739 -0.0619  2.2784
 2762SOL     OW 8901   3.737   5.544   6.361 -0.3730 -0.3878  0.7917
 2762SOL    HW1 8902   3.664   5.483   6.351 -0.5454  0.0217 -0.7820
 2762SOL    HW2 8903   3.702   5.628   6.331  0.8360 -0.2749 -0.4546
 2763SOL     OW 8904   1.983   0.370   6.577  0.3812  0.5228 -0.2948
 2763SOL    HW1 8905   1.939   0.355   6.494 -0.5119  0.8829  0.1034
 2763SOL    HW2 8906   1.940   0.448   6.613 -0.1485 -0.3875  1.1042
 2764SOL     OW 8907   3.406   4.914   2.766  0.4943 -0.2118 -0.3925
 2764SOL    HW1 8908   3.377   4.841   2.710 -0.7055  0.4153 -0.6215
 2764SOL    HW2 8909   3.325   4.953   2.799  1.0932  1.2941 -0.6191
 2765SOL     OW 8910   1.880   0.767   3.910 -0.3048  0.5000  0.1882
 2765SOL    HW1 8911   1.840   0.687   3.946 -0.1755  0.5388  0.4168
 2765SOL    HW2 8912   1.907   0.742   3.822  0.7138 -0.0344  0.6355
 2766SOL     OW 8913   1.062   6.069   0.247  0.1882  0.0733 -0.3067
 2766SOL    HW1 8914   1.133   6.090   0.186 -0.8050  0.9656 -1.1898
 2766SOL    HW2 8915   0.983   6.104   0.206 -0.6797 -0.2906  0.9738
 2767SOL     OW 8916   5.893   1.902   4.124 -0.4394  0.1160 -0.1034
 2767SOL    HW1 8917   5.929   1.981   4.164 -0.4197  0.1729 -0.2319
 2767SOL    HW2 8918   5.902   1.917   4.030 -2.9364  1.1371 -0.2381
 2768SOL     OW 8919   1.737   1.680   3.576  0.7992 -0.0033  0.5187
 2768SOL    HW1 8920   1.789   1.754   3.608 -1.0305  0.4930  2.6863
 2768SOL    HW2 8921   1.690   1.715   3.500  0.9628  0.6505  0.7130
 2769SOL     OW 8922   0.132   4.909   7.116 -0.2687  0.0015  0.3408
 2769SOL    HW1 8923   0.204   4.920   7.179 -0.2549 -0.6134  0.4393
 2769SOL    HW2 8924   0.164   4.947   7.035 -0.5955  1.5738  0.9155
 2770SOL     OW 8925   2.018   3.210   4.059  0.0824  0.0198  0.0075
 2770SOL    HW1 8926   2.085   3.234   3.994 -0.0717 -0.3526 -0.2923
 2770SOL    HW2 8927   1.935   3.232   4.017 -0.0009  0.1949  0.2603
 2771SOL     OW 8928   5.481   5.697   0.173 -0.4395  0.1026 -0.0850
 2771SOL    HW1 8929   5.467   5.761   0.104 -1.0765  0.2631  0.1859
 2771SOL    HW2 8930   5.476   5.747   0.254 -1.4000 -0.3448  0.1535
 2772SOL     OW 8931   3.006   0.872   5.421  0.0577  0.1204 -0.1110
 2772SOL    HW1 8932   3.034   0.962   5.406 -0.6540  0.2274 -0.8242
 2772SOL    HW2 8933   2.937   0.879   5.487 -0.5199  0.1884 -0.7054
 2773SOL     OW 8934   7.085   7.189   0.568 -0.2250  0.0995  0.3546
 2773SOL    HW1 8935   7.096   7.163   0.660 -1.3821  1.4291  0.8994
 2773SOL    HW2 8936   7.104   7.282   0.567 -0.7755  0.2113 -0.6487
 2774SOL     OW 8937   7.074   0.430   2.486 -0.4475 -0.2276 -0.3779
 2774SOL    HW1 8938   7.002   0.421   2.424 -2.4676  0.3566  1.7573
 2774SOL    HW2 8939   7.149   0.455   2.432 -1.9546 -0.2934 -2.6237
 2775SOL     OW 8940   1.230   4.350   3.965  0.2382  0.9732  0.0106
 2775SOL    HW1 8941   1.210   4.442   3.984  0.0097  0.6746  1.3600
 2775SOL    HW2 8942   1.160   4.322   3.906  0.0541  1.5408 -0.0554
 2776SOL     OW 8943   3.063   3.664   5.730  0.2230 -0.5217  0.1140
 2776SOL    HW1 8944   3.029   3.596   5.672 -0.9279  0.3169 -0.2064
 2776SOL    HW2 8945   2.990   3.723   5.745  1.0223  0.3036  0.9286
 2777SOL     OW 8946   3.974   7.114   1.337 -0.1034  0.3092 -0.1303
 2777SOL    HW1 8947   3.950   7.148   1.423 -0.0464  0.6809 -0.2591
 2777SOL    HW2 8948   3.898   7.132   1.282  1.2822  3.7306 -1.1690
 2778SOL     OW 8949   2.156   4.799   0.286 -0.3310  0.0537  0.4456
 2778SOL    HW1 8950   2.187   4.842   0.206 -0.1312  1.3296  1.1957
 2778SOL    HW2 8951   2.200   4.844   0.357 -1.0434 -0.6045  1.3332
 2779SOL     OW 8952   5.639   6.094   4.228  0.7759 -0.2959 -0.0924
 2779SOL    HW1 8953   5.719   6.145   4.218 -0.3728  1.6837  0.3320
 2779SOL    HW2 8954   5.575   6.139   4.173 -0.5944 -0.5689  1.2231
 2780SOL     OW 8955   6.012   1.094   7.089  0.0235  0.0919 -0.4601
 2780SOL    HW1 8956   6.050   1.049   7.165  0.1275  0.5621 -0.2264
 2780SOL    HW2 8957   5.948   1.033   7.055  0.7262 -0.5717 -0.6351
 2781SOL     OW 8958   3.578   2.840   3.261 -0.2444  0.0366  0.1045
 2781SOL    HW1 8959   3.639   2.818   3.331  0.3567  0.8765 -0.1400
 2781SOL    HW2 8960   3.569   2.758   3.211 -0.0370 -0.3420  0.6726
 2782SOL     OW 8961   4.482   2.646   7.060 -0.0086  0.2157  0.1845
 2782SOL    HW1 8962   4.479   2.733   7.100 -0.2955  0.0298  0.5808
 2782SOL    HW2 8963   4.466   2.661   6.967 -1.2411  0.4777  0.4268
 2783SOL     OW 8964   2.053   4.897   1.185 -0.1544 -0.4757  0.2089
 2783SOL    HW1 8965   2.121   4.952   1.224 -0.1034 -0.9052  0.7413
 2783SOL    HW2 8966   1.992   4.959   1.145  1.3967 -0.1040 -1.7901
 2784SOL     OW 8967   6.788   6.156   6.914  0.0637  0.1862  1.1781
 2784SOL    HW1 8968   6.719   6.216   6.886 -0.9520  0.0268  3.1801
 2784SOL    HW2 8969   6.855   6.212   6.953  2.2248  0.5734 -2.6639
 2785SOL     OW 8970   1.608   2.199   4.654  0.1784  0.2314  0.1356
 2785SOL    HW1 8971   1.606   2.270   4.589 -1.6010  1.6929  1.6737
 2785SOL    HW2 8972   1.668   2.230   4.721 -1.0814  0.6271  1.1203
 2786SOL     OW 8973   6.877   0.379   3.416 -0.1273  0.1903 -0.1137
 2786SOL    HW1 8974   6.939   0.369   3.344  0.5491  0.5729  0.4080
 2786SOL    HW2 8975   6.805   0.319   3.395  1.0573 -1.3071 -0.0246
 2787SOL     OW 8976   5.762   0.749   1.672 -0.0439 -0.4455 -0.0267
 2787SOL    HW1 8977   5.696   0.745   1.742 -0.5562  1.5768 -0.3366
 2787SOL    HW2 8978   5.712   0.760   1.592  0.6046 -1.0204 -0.5215
 2788SOL     OW 8979   4.401   5.861   6.376  0.4666 -0.6541  0.1565
 2788SOL    HW1 8980   4.337   5.829   6.312 -0.2814 -2.1086  1.5651
 2788SOL    HW2 8981   4.472   5.797   6.372  0.2916 -0.9035  0.9664
 2789SOL     OW 8982   3.597   5.850   4.843 -0.3278  0.4714 -0.4974
 2789SOL    HW1 8983   3.575   5.935   4.881 -2.7659 -0.6379  0.7812
 2789SOL    HW2 8984   3.650   5.808   4.911 -2.4590 -0.4828  0.6723
 2790SOL     OW 8985   1.898   6.745   4.285 -0.2548  0.4150  0.4068
 2790SOL    HW1 8986   1.992   6.737   4.273 -0.3251 -1.5642  0.7456
 2790SOL    HW2 8987   1.888   6.799   4.363  0.5672  1.2446 -0.0493
 2791SOL     OW 8988   3.223   1.899   2.212 -0.4261 -0.2112 -0.1605
 2791SOL    HW1 8989   3.208   1.979   2.262 -0.5358 -1.9697  2.9097
 2791SOL    HW2 8990   3.314   1.906   2.183  0.2630  0.1502  1.9361
 2792SOL     OW 8991   5.234   5.835   5.223 -0.1045 -0.1470  0.0731
 2792SOL    HW1 8992   5.179   5.805   5.150  2.6614 -3.1056 -1.0379
 2792SOL    HW2 8993   5.281   5.910   5.188 -0.8471  0.2340 -0.1433
 2793SOL     OW 8994   4.560   2.137   0.268 -0.3820  0.0559 -0.4910
 2793SOL    HW1 8995   4.537   2.075   0.199 -0.5003 -1.1318  0.5751
 2793SOL    HW2 8996   4.513   2.105   0.345  1.7578 -0.1792  0.7912
 2794SOL     OW 8997   2.383   5.631   4.826  0.0677 -0.2665 -0.4635
 2794SOL    HW1 8998   2.449   5.562   4.825  0.7043  0.2780  1.1863
 2794SOL    HW2 8999   2.421   5.700   4.882 -1.6866  0.2671  0.1166
 2795SOL     OW 9000   6.960   3.526   1.474  0.0385  0.2660 -0.1048
 2795SOL    HW1 9001   6.971   3.614   1.438  0.0034 -0.0982 -1.0316
 2795SOL    HW2 9002   6.898   3.537   1.546 -0.3659  0.9199 -0.5403
 2796SOL     OW 9003   1.987   3.337   3.730  0.1889  0.4039  0.0988
 2796SOL    HW1 9004   1.928   3.381   3.669 -1.0688  1.9148  2.2696
 2796SOL    HW2 9005   1.959   3.246   3.728 -2.5659  1.1148  1.2802
 2797SOL     OW 9006   2.143   3.178   2.097 -0.2389 -0.4792  0.3580
 2797SOL    HW1 9007   2.087   3.108   2.129 -2.2294  0.9754  0.2392
 2797SOL    HW2 9008   2.116   3.190   2.006  1.9962 -1.3303 -0.4890
 2798SOL     OW 9009   7.244   2.865   5.874  0.3897 -0.0521  0.8040
 2798SOL    HW1 9010   7.336   2.846   5.890  1.0596  1.4441 -0.9263
 2798SOL    HW2 9011   7.244   2.938   5.811 -1.9388 -1.4648 -1.0450
 2799SOL     OW 9012   1.997   6.386   4.526  0.0138 -0.2188 -0.1401
 2799SOL    HW1 9013   1.906   6.396   4.497  0.1462 -1.9756 -1.2896
 2799SOL    HW2 9014   2.044   6.357   4.448  1.3640 -0.3655  0.7043
 2800SOL     OW 9015   0.596   3.402   3.956  0.4110 -0.4728 -0.5645
 2800SOL    HW1 9016   0.602   3.341   4.030 -0.2824 -1.1138 -1.0235
 2800SOL    HW2 9017   0.539   3.359   3.893 -0.7755  0.9967 -0.5641
 2801SOL     OW 9018   0.106   5.255   2.038  0.1074 -0.0148 -0.2640
 2801SOL    HW1 9019   0.191   5.247   2.081 -0.4171  0.6315  0.9272
 2801SOL    HW2 9020   0.075   5.342   2.062 -2.1392 -1.2542  1.6559
 2802SOL     OW 9021   5.767   2.810   0.677  0.0385 -1.1387 -0.1962
 2802SOL    HW1 9022   5.699   2.813   0.744 -0.0307 -1.4130 -0.2538
 2802SOL    HW2 9023   5.796   2.901   0.668 -0.5845 -0.9595 -0.4422
 2803SOL     OW 9024   2.832   4.344   0.152  0.0155 -0.2739  0.5057
 2803SOL    HW1 9025   2.826   4.351   0.248  0.9642 -0.0544  0.5640
 2803SOL    HW2 9026   2.846   4.434   0.123 -0.6425 -0.2890  0.1180
 2804SOL     OW 9027   4.691   2.379   5.229 -0.0702  0.5208  0.0507
 2804SOL    HW1 9028   4.756   2.422   5.173  0.0928 -0.8991 -0.8923
 2804SOL    HW2 9029   4.607   2.414   5.200 -0.0317 -0.5023 -1.4420
 2805SOL     OW 9030   4.777   5.043   3.142 -0.0162  0.7611  0.1942
 2805SOL    HW1 9031   4.817   5.080   3.221  1.4406 -1.7495  0.7355
 2805SOL    HW2 9032   4.687   5.025   3.167  0.8840 -1.8061  2.0927
 2806SOL     OW 9033   5.086   4.759   3.018  0.3526  0.2836  0.2451
 2806SOL    HW1 9034   5.179   4.782   3.014  0.4225 -0.0814 -0.4307
 2806SOL    HW2 9035   5.072   4.706   2.939 -0.2277 -0.3943  0.7925
 2807SOL     OW 9036   2.095   4.570   2.583  0.0905 -0.1385  0.1029
 2807SOL    HW1 9037   2.025   4.635   2.582 -0.6154 -0.6147  3.5175
 2807SOL    HW2 9038   2.085   4.526   2.668  3.5585 -1.3359  0.0543
 2808SOL     OW 9039   6.221   6.817   4.905  0.0975  0.0430  0.9167
 2808SOL    HW1 9040   6.269   6.889   4.946  0.6802  0.6724 -0.7890
 2808SOL    HW2 9041   6.275   6.740   4.922  1.0132  0.5134  0.2058
 2809SOL     OW 9042   0.641   1.271   1.585 -0.0100  0.4077  0.1769
 2809SOL    HW1 9043   0.613   1.279   1.676  1.6991  2.3484  0.6291
 2809SOL    HW2 9044   0.704   1.199   1.585 -0.6189 -0.1276  0.3560
 2810SOL     OW 9045   1.884   0.427   5.251  0.3558  0.2702  0.1611
 2810SOL    HW1 9046   1.972   0.431   5.213 -0.1984 -0.9062 -1.3202
 2810SOL    HW2 9047   1.846   0.347   5.216 -1.2405  0.6471  0.9446
 2811SOL     OW 9048   4.067   0.068   2.508 -0.0663 -0.2599 -0.1887
 2811SOL    HW1 9049   4.146   0.016   2.522  1.3178  1.8339  0.1694
 2811SOL    HW2 9050   4.035   0.088   2.597  0.2563  0.6916 -0.2770
 2812SOL     OW 9051   0.870   1.224   0.963 -0.2392 -0.1005  0.1160
 2812SOL    HW1 9052   0.921   1.150   0.929  0.0599 -0.1032  0.5628
 2812SOL    HW2 9053   0.790   1.185   0.996  0.3546 -0.3719  1.2907
 2813SOL     OW 9054   6.458   6.396   3.906  0.3233 -0.1361 -0.4028
 2813SOL    HW1 9055   6.427   6.330   3.967 -0.9169  0.1770 -0.6551
 2813SOL    HW2 9056   6.459   6.477   3.957 -1.3865  0.2620 -0.9233
 2814SOL     OW 9057   3.746   5.310   6.596  0.2788 -0.2125  0.0932
 2814SOL    HW1 9058   3.788   5.385   6.638 -0.6390 -0.5928  1.8130
 2814SOL    HW2 9059   3.791   5.300   6.512  1.8896  0.8968  0.7805
 2815SOL     OW 9060   6.980   4.316   3.216 -0.5658  0.4051  0.1936
 2815SOL    HW1 9061   6.959   4.387   3.155  3.5889  0.3954 -1.5543
 2815SOL    HW2 9062   6.968   4.236   3.165  0.9538  0.2764  0.0027
 2816SOL     OW 9063   5.898   3.649   6.771  0.2205  0.3539  0.6390
 2816SOL    HW1 9064   5.868   3.733   6.806  2.7061  1.4094  0.4929
 2816SOL    HW2 9065   5.994   3.655   6.774  0.5012 -1.6259 -1.3799
 2817SOL     OW 9066   3.196   1.038   4.701 -0.0150  0.1150 -0.4153
 2817SOL    HW1 9067   3.228   1.035   4.791 -1.7013 -0.1363  0.2116
 2817SOL    HW2 9068   3.275   1.042   4.647  1.0135  0.9523  1.0940
 2818SOL     OW 9069   6.884   6.957   4.307 -0.0753  0.1104 -0.3721
 2818SOL    HW1 9070   6.883   6.966   4.403  1.6637 -0.0126 -0.3057
 2818SOL    HW2 9071   6.862   7.044   4.274  0.5096  0.4642  0.1518
 2819SOL     OW 9072   5.711   3.965   2.316  0.4225  0.0219 -0.1654
 2819SOL    HW1 9073   5.668   3.882   2.338  0.7228  0.0017  0.3777
 2819SOL    HW2 9074   5.771   3.980   2.389 -0.3019  1.1877  0.2247
 2820SOL     OW 9075   3.086   5.593   3.934 -0.0448 -0.1455 -0.1116
 2820SOL    HW1 9076   2.998   5.562   3.912 -0.2467  1.1664 -1.2924
 2820SOL    HW2 9077   3.092   5.679   3.893  1.4628  0.1948  0.7527
 2821SOL     OW 9078   5.723   3.376   5.271 -0.1318  0.3307 -0.4196
 2821SOL    HW1 9079   5.775   3.436   5.324 -1.8271  0.9615  0.6328
 2821SOL    HW2 9080   5.635   3.381   5.309 -0.6913 -1.6230 -1.3179
 2822SOL     OW 9081   0.906   0.603   4.292  0.0396 -0.6116 -0.3258
 2822SOL    HW1 9082   0.810   0.596   4.291  0.0478 -0.7201 -1.0067
 2822SOL    HW2 9083   0.933   0.547   4.365 -0.4863  0.6367  0.8683
 2823SOL     OW 9084   4.100   2.879   6.726  0.2033  0.3553 -0.0391
 2823SOL    HW1 9085   4.126   2.855   6.815  1.9574 -0.6132 -0.7569
 2823SOL    HW2 9086   4.161   2.830   6.670 -0.5854  1.2763 -1.7601
 2824SOL     OW 9087   0.530   4.373   1.646 -0.2201  0.3335  0.5147
 2824SOL    HW1 9088   0.528   4.310   1.574  0.3304 -0.1485  0.9055
 2824SOL    HW2 9089   0.447   4.421   1.639 -0.1066  0.3994 -0.5231
 2825SOL     OW 9090   6.163   5.093   1.663  0.3337  0.5502 -0.5403
 2825SOL    HW1 9091   6.202   5.079   1.749 -1.9052 -0.8596  0.3282
 2825SOL    HW2 9092   6.087   5.035   1.661  1.1508 -0.7013 -4.0794
 2826SOL     OW 9093   2.012   6.615   2.259  0.1931 -0.3773  0.5007
 2826SOL    HW1 9094   1.933   6.617   2.312 -0.4032 -1.5770 -0.2913
 2826SOL    HW2 9095   1.997   6.679   2.190  0.7533  0.8082  1.4400
 2827SOL     OW 9096   2.587   0.877   5.913  0.4811 -0.2201  0.4149
 2827SOL    HW1 9097   2.599   0.922   5.829 -0.9191 -0.7100 -0.0718
 2827SOL    HW2 9098   2.506   0.913   5.948  0.3626 -0.9717  0.9363
 2828SOL     OW 9099   3.023   3.685   1.463  0.1333 -0.1028  0.8238
 2828SOL    HW1 9100   2.945   3.634   1.486 -0.2937  0.2994  0.3081
 2828SOL    HW2 9101   3.035   3.744   1.537  0.6781 -0.9976  1.4603
 2829SOL     OW 9102   4.502   1.050   2.106  0.6346  0.6445 -0.0740
 2829SOL    HW1 9103   4.550   0.978   2.066  1.2748  0.2855  1.2777
 2829SOL    HW2 9104   4.569   1.112   2.135  0.2647  0.5340  1.0966
 2830SOL     OW 9105   0.503   2.505   3.954  0.4865 -0.2497 -0.5164
 2830SOL    HW1 9106   0.521   2.413   3.937  1.3076  0.1286 -1.9366
 2830SOL    HW2 9107   0.473   2.508   4.045  2.3061 -1.6698  0.1925
 2831SOL     OW 9108   5.200   1.009   6.353 -0.3663  0.5264 -0.2984
 2831SOL    HW1 9109   5.127   1.064   6.383 -1.4091 -0.8459 -0.2457
 2831SOL    HW2 9110   5.175   0.982   6.265  0.1288  0.0950 -0.3100
 2832SOL     OW 9111   4.197   6.022   3.078  0.2443  0.3761  0.2112
 2832SOL    HW1 9112   4.253   6.047   3.005 -2.0322  0.3024 -1.6487
 2832SOL    HW2 9113   4.222   5.932   3.097 -0.4630 -0.3098 -1.8665
 2833SOL     OW 9114   2.315   5.504   3.328 -0.7140 -0.2330 -0.5130
 2833SOL    HW1 9115   2.364   5.429   3.296  0.5629 -0.1493  1.0757
 2833SOL    HW2 9116   2.314   5.493   3.423  0.2523  2.1569 -0.1543
 2834SOL     OW 9117   4.730   7.063   1.069  0.5332  0.4803 -0.1582
 2834SOL    HW1 9118   4.716   7.109   0.987 -1.4824 -0.1059 -0.1909
 2834SOL    HW2 9119   4.660   7.093   1.127  0.4308 -0.9579  0.5183
 2835SOL     OW 9120   5.531   2.634   3.349  0.1551 -0.1457  0.4956
 2835SOL    HW1 9121   5.435   2.637   3.349  0.1390 -0.4014 -0.5408
 2835SOL    HW2 9122   5.557   2.701   3.286  0.6047 -1.1932 -0.4600
 2836SOL     OW 9123   4.196   6.978   1.408  0.2400  0.1656  0.2110
 2836SOL    HW1 9124   4.181   6.887   1.384  0.1065  0.5312 -1.1935
 2836SOL    HW2 9125   4.125   7.026   1.365 -0.1389  0.8666  1.5507
 2837SOL     OW 9126   6.740   6.410   5.516 -0.1209  0.3061 -0.1388
 2837SOL    HW1 9127   6.791   6.434   5.594  0.0303 -0.8984  0.1652
 2837SOL    HW2 9128   6.754   6.482   5.455 -1.6712  2.1998  1.5680
 2838SOL     OW 9129   5.940   3.092   2.338 -0.2533  0.5083 -0.2681
 2838SOL    HW1 9130   5.875   3.144   2.289  0.5645  4.2954  2.2228
 2838SOL    HW2 9131   6.024   3.118   2.300  0.2931  2.5244  2.1198
 2839SOL     OW 9132   0.520   1.718   0.820 -0.2255  0.0505  0.1212
 2839SOL    HW1 9133   0.601   1.667   0.822 -0.8699 -1.0755 -1.0164
 2839SOL    HW2 9134   0.498   1.733   0.912  0.7078 -0.5576  0.4510
 2840SOL     OW 9135   5.743   2.513   4.813  0.8341 -0.5081 -0.3435
 2840SOL    HW1 9136   5.695   2.551   4.887  1.2097  0.4053 -0.5551
 2840SOL    HW2 9137   5.720   2.420   4.815  1.0961 -0.5722  1.1321
 2841SOL     OW 9138   6.515   6.301   6.834  0.3637  0.3693 -0.1922
 2841SOL    HW1 9139   6.521   6.345   6.919 -0.1647 -0.6823  0.4259
 2841SOL    HW2 9140   6.516   6.371   6.770  0.1335  1.2353  0.7240
 2842SOL     OW 9141   6.993   2.554   4.975 -0.4392  0.4333  0.2376
 2842SOL    HW1 9142   6.984   2.499   4.897 -2.1821 -0.6776  1.1556
 2842SOL    HW2 9143   6.967   2.641   4.946 -0.8035  0.0947 -0.4771
 2843SOL     OW 9144   7.223   6.691   6.521 -0.2029  0.0045 -0.0220
 2843SOL    HW1 9145   7.286   6.762   6.536 -1.1287  0.8011  0.1628
 2843SOL    HW2 9146   7.248   6.624   6.584 -1.2637  1.4656  2.0557
 2844SOL     OW 9147   2.421   3.540   6.912 -0.3818  0.0864  0.4640
 2844SOL    HW1 9148   2.499   3.584   6.879 -0.4643 -1.0577 -1.3747
 2844SOL    HW2 9149   2.383   3.497   6.836 -1.3849 -1.5453  1.8046
 2845SOL     OW 9150   0.984   7.231   0.999  0.9525  0.4080  0.1385
 2845SOL    HW1 9151   1.009   7.203   0.911  1.3740  1.9345 -0.2510
 2845SOL    HW2 9152   1.065   7.258   1.041  0.8818 -1.0568  1.3244
 2846SOL     OW 9153   6.668   3.845   1.581 -0.3565 -0.0748  0.7590
 2846SOL    HW1 9154   6.731   3.913   1.558  0.0600 -0.1600  1.5883
 2846SOL    HW2 9155   6.583   3.890   1.582 -0.3212  0.0280 -0.4111
 2847SOL     OW 9156   3.352   3.776   4.361 -0.2686 -0.3434 -0.5696
 2847SOL    HW1 9157   3.410   3.844   4.398 -0.1517 -0.7090 -0.0702
 2847SOL    HW2 9158   3.402   3.739   4.288 -0.5440  0.4582 -1.1819
 2848SOL     OW 9159   3.580   6.636   7.177 -0.1163  0.1116 -0.0971
 2848SOL    HW1 9160   3.549   6.697   7.244 -2.2523 -0.1895 -0.7359
 2848SOL    HW2 9161   3.636   6.689   7.120 -0.2873  0.9687  0.5060
 2849SOL     OW 9162   2.373   6.839   1.252 -0.1538  0.6781  0.2285
 2849SOL    HW1 9163   2.368   6.932   1.270  0.1941  0.5440  1.0693
 2849SOL    HW2 9164   2.328   6.797   1.326 -1.1477  0.2101 -0.6116
 2850SOL     OW 9165   6.173   1.798   4.685  0.8059 -0.1909  0.6749
 2850SOL    HW1 9166   6.151   1.880   4.730  1.1958  0.8103 -0.8739
 2850SOL    HW2 9167   6.091   1.748   4.686  0.1531  0.8409  0.3692
 2851SOL     OW 9168   3.372   6.581   2.463  0.2248  0.1717  0.5403
 2851SOL    HW1 9169   3.322   6.596   2.382 -0.6896  0.7591  1.1901
 2851SOL    HW2 9170   3.325   6.631   2.530  1.2936  0.1542  1.3310
 2852SOL     OW 9171   2.472   5.007   3.361 -0.1844 -0.2469 -0.1961
 2852SOL    HW1 9172   2.468   4.975   3.452 -1.1865  0.8977  0.1816
 2852SOL    HW2 9173   2.426   4.940   3.310 -0.7090 -0.2849  0.3205
 2853SOL     OW 9174   7.046   1.268   0.866  0.3090  0.0802 -0.0771
 2853SOL    HW1 9175   7.034   1.322   0.788  1.8235 -0.9233 -1.0638
 2853SOL    HW2 9176   6.958   1.256   0.901 -0.1701  2.4374 -0.2874
 2854SOL     OW 9177   1.899   0.839   6.231  0.4439  0.4453  0.0727
 2854SOL    HW1 9178   1.905   0.846   6.136  0.1847  0.5048  0.0617
 2854SOL    HW2 9179   1.850   0.917   6.258  0.1825  0.2289  0.2200
 2855SOL     OW 9180   2.496   4.960   0.220 -0.5325 -0.2667 -0.1354
 2855SOL    HW1 9181   2.582   4.984   0.185  0.7471  2.5441  4.1575
 2855SOL    HW2 9182   2.501   4.866   0.235  1.6213 -0.2493 -0.4533
 2856SOL     OW 9183   5.068   4.597   6.678  0.3971  0.0183  0.1191
 2856SOL    HW1 9184   5.074   4.570   6.769  0.8990  0.5694  0.2595
 2856SOL    HW2 9185   5.150   4.566   6.638 -0.0976 -0.7720 -0.2994
 2857SOL     OW 9186   1.379   0.416   2.362 -0.4848 -0.5256 -0.1348
 2857SOL    HW1 9187   1.381   0.363   2.282  2.6073  0.9545 -1.1868
 2857SOL    HW2 9188   1.411   0.356   2.430  0.2733 -0.8362 -0.7417
 2858SOL     OW 9189   1.621   0.415   3.297 -0.4052 -0.2653 -0.0587
 2858SOL    HW1 9190   1.561   0.386   3.366 -0.1475  0.3825  0.4438
 2858SOL    HW2 9191   1.564   0.460   3.234 -0.5595 -0.3317  0.0325
 2859SOL     OW 9192   4.632   5.364   3.795 -0.1820  0.5173 -0.7153
 2859SOL    HW1 9193   4.603   5.409   3.875 -1.8753  1.4561 -1.7972
 2859SOL    HW2 9194   4.571   5.290   3.787  1.3201 -0.8485 -0.0423
 2860SOL     OW 9195   0.550   0.364   6.974 -0.0612 -0.1319 -0.4002
 2860SOL    HW1 9196   0.509   0.373   6.888 -1.8640  1.4529  0.5540
 2860SOL    HW2 9197   0.583   0.452   6.994  1.2555 -0.7131  0.1292
 2861SOL     OW 9198   0.306   2.238   0.717 -0.4747 -0.1921 -0.7994
 2861SOL    HW1 9199   0.306   2.251   0.811 -1.3398 -0.0314 -0.8149
 2861SOL    HW2 9200   0.260   2.155   0.704 -0.3437 -0.2242 -1.0789
 2862SOL     OW 9201   2.700   2.955   3.140 -0.4687  0.4999 -0.2894
 2862SOL    HW1 9202   2.695   2.860   3.151 -0.2120  0.4974 -0.1787
 2862SOL    HW2 9203   2.713   2.967   3.046 -0.7901  0.4380 -0.3413
 2863SOL     OW 9204   2.229   1.299   4.300  0.1955  0.0817  0.1580
 2863SOL    HW1 9205   2.185   1.306   4.385  0.7412 -2.3645  0.7202
 2863SOL    HW2 9206   2.294   1.369   4.301  1.0827 -0.6804  2.3557
 2864SOL     OW 9207   4.644   6.664   2.328  0.3269  0.1456  0.2136
 2864SOL    HW1 9208   4.644   6.573   2.299  0.0284 -0.0395  0.7868
 2864SOL    HW2 9209   4.729   6.699   2.300  0.5574 -0.3880  0.2455
 2865SOL     OW 9210   3.802   4.295   3.031 -0.1229 -0.1411 -0.5240
 2865SOL    HW1 9211   3.811   4.359   3.101  0.8896 -1.3121  0.4569
 2865SOL    HW2 9212   3.798   4.347   2.951  0.0029  1.1617  0.2927
 2866SOL     OW 9213   0.297   1.501   4.406 -0.4454  0.0234 -0.2246
 2866SOL    HW1 9214   0.239   1.507   4.329 -0.7797  1.7077  0.1199
 2866SOL    HW2 9215   0.383   1.526   4.373 -0.6945  1.2838  0.0278
 2867SOL     OW 9216   2.343   2.430   4.891  0.1224 -0.0896  0.4755
 2867SOL    HW1 9217   2.407   2.359   4.897 -1.2726 -1.4871 -0.1384
 2867SOL    HW2 9218   2.283   2.414   4.964  0.2902  1.0128  0.8706
 2868SOL     OW 9219   3.400   4.059   3.580 -0.2800 -0.4023 -0.0199
 2868SOL    HW1 9220   3.452   4.050   3.660  0.0985 -0.9436 -0.3220
 2868SOL    HW2 9221   3.313   4.028   3.605  0.1065 -1.5996 -0.0874
 2869SOL     OW 9222   6.458   5.096   3.698 -0.5295  0.3805  0.6899
 2869SOL    HW1 9223   6.377   5.078   3.650  0.5491 -2.9448 -0.1768
 2869SOL    HW2 9224   6.431   5.101   3.790 -1.8840  0.7749  0.2920
 2870SOL     OW 9225   0.756   3.427   2.421 -0.6231  0.1447 -0.2916
 2870SOL    HW1 9226   0.784   3.469   2.340  1.6485  1.9713  1.2871
 2870SOL    HW2 9227   0.820   3.357   2.435 -0.3636  0.5075  0.4020
 2871SOL     OW 9228   1.599   7.149   3.371  0.2992  0.6606  0.4310
 2871SOL    HW1 9229   1.655   7.225   3.388  1.6554 -0.5277  1.5646
 2871SOL    HW2 9230   1.594   7.104   3.455  0.7494 -1.2813 -0.5179
 2872SOL     OW 9231   7.071   0.227   4.733  0.1819 -0.1351  0.4974
 2872SOL    HW1 9232   7.027   0.309   4.712 -1.3445 -0.9457  0.3815
 2872SOL    HW2 9233   7.138   0.218   4.665  0.4163  1.0377  0.5548
 2873SOL     OW 9234   3.560   5.728   2.504  0.0887 -0.0864 -0.6315
 2873SOL    HW1 9235   3.501   5.757   2.574  1.1480 -0.5086  0.4772
 2873SOL    HW2 9236   3.505   5.727   2.426 -1.1208  0.4771  0.1656
 2874SOL     OW 9237   5.308   1.739   7.039 -0.7415 -0.4764 -0.2517
 2874SOL    HW1 9238   5.302   1.706   6.950  0.1165  1.0799 -0.9249
 2874SOL    HW2 9239   5.351   1.824   7.031  0.7909 -0.9668  1.8143
 2875SOL     OW 9240   4.974   0.189   2.097 -0.4819 -0.2152 -0.0777
 2875SOL    HW1 9241   5.049   0.133   2.079 -1.8748 -1.9612 -0.6983
 2875SOL    HW2 9242   4.958   0.235   2.014  0.3298  0.7510  0.2772
 2876SOL     OW 9243   6.823   1.439   1.916 -0.0718  0.2614  0.4753
 2876SOL    HW1 9244   6.759   1.510   1.920 -1.2340 -0.7775  2.5122
 2876SOL    HW2 9245   6.772   1.362   1.889  1.1095  0.0956 -1.4799
 2877SOL     OW 9246   1.249   6.269   5.175  0.7034  0.4808 -0.4050
 2877SOL    HW1 9247   1.342   6.292   5.166  0.8823  0.2122  0.5717
 2877SOL    HW2 9248   1.249   6.189   5.229 -0.0951  0.5576 -0.2713
 2878SOL     OW 9249   4.008   5.068   1.129  0.2214  0.4683  0.2325
 2878SOL    HW1 9250   4.077   5.005   1.108  0.5170  0.9400 -0.2573
 2878SOL    HW2 9251   4.049   5.153   1.112 -0.2612  0.7780  0.6164
 2879SOL     OW 9252   6.959   1.780   5.830 -0.4111 -0.6421  0.1755
 2879SOL    HW1 9253   6.923   1.864   5.801  1.6773 -0.1416 -1.2164
 2879SOL    HW2 9254   6.890   1.716   5.810 -1.5299  0.5546  0.0603
 2880SOL     OW 9255   3.812   1.594   6.547 -0.4635 -0.1865 -0.4011
 2880SOL    HW1 9256   3.760   1.603   6.627 -0.9926 -0.0865 -0.7532
 2880SOL    HW2 9257   3.817   1.499   6.533 -0.7652 -0.1920 -0.4963
 2881SOL     OW 9258   4.603   4.573   0.234 -0.1835 -0.2718 -0.5090
 2881SOL    HW1 9259   4.622   4.598   0.144  1.1665 -1.9220 -0.7232
 2881SOL    HW2 9260   4.667   4.505   0.255  0.0612  0.6106  1.9797
 2882SOL     OW 9261   3.098   1.031   3.075 -0.4275 -0.2726 -0.4613
 2882SOL    HW1 9262   3.177   0.984   3.048 -0.9048 -1.1117 -0.4339
 2882SOL    HW2 9263   3.131   1.105   3.126  0.3159 -1.0668  0.2449
 2883SOL     OW 9264   6.184   2.403   0.591  0.1814  0.3507 -0.5076
 2883SOL    HW1 9265   6.251   2.381   0.527  0.2722 -0.7888 -0.0404
 2883SOL    HW2 9266   6.232   2.441   0.664  0.1855  0.6207 -0.6464
 2884SOL     OW 9267   5.679   0.966   4.217 -0.3530 -0.0114 -0.1840
 2884SOL    HW1 9268   5.766   0.948   4.252 -0.5972  1.1003  1.0931
 2884SOL    HW2 9269   5.627   0.890   4.242  0.5945 -1.5428 -2.5012
 2885SOL     OW 9270   2.805   4.069   2.648  0.4012 -0.4617  0.5339
 2885SOL    HW1 9271   2.896   4.084   2.626  0.4087 -1.0732  0.1312
 2885SOL    HW2 9272   2.793   4.113   2.732  1.0584 -0.3612  0.5764
 2886SOL     OW 9273   5.104   4.105   0.799 -0.5657 -0.0668  0.0425
 2886SOL    HW1 9274   5.060   4.088   0.715 -0.3992 -1.0066  0.1284
 2886SOL    HW2 9275   5.152   4.186   0.785 -1.9334  0.7440 -0.2042
 2887SOL     OW 9276   2.319   3.207   4.695  0.3113 -0.0839 -0.8056
 2887SOL    HW1 9277   2.255   3.157   4.644  0.5745 -0.7330 -0.5186
 2887SOL    HW2 9278   2.356   3.269   4.632 -1.5971  1.3078 -0.6500
 2888SOL     OW 9279   4.246   2.307   3.028  0.1221 -0.0312 -0.0186
 2888SOL    HW1 9280   4.170   2.365   3.019 -0.4763 -0.6655  0.8047
 2888SOL    HW2 9281   4.322   2.366   3.023 -0.4354  0.6600 -0.4193
 2889SOL     OW 9282   0.979   4.708   4.339  0.0496 -0.2035  0.2449
 2889SOL    HW1 9283   1.044   4.669   4.281 -0.6336  0.9007 -1.3361
 2889SOL    HW2 9284   0.914   4.746   4.279 -0.9137  0.5912  1.7493
 2890SOL     OW 9285   4.433   5.975   5.545 -0.7952  0.4392 -0.1750
 2890SOL    HW1 9286   4.449   5.894   5.592  0.8611  1.3896  0.9677
 2890SOL    HW2 9287   4.415   5.947   5.455 -2.9762 -1.3366  0.7195
 2891SOL     OW 9288   3.444   4.817   1.081 -0.3155  0.0015  0.0683
 2891SOL    HW1 9289   3.393   4.898   1.080  0.6288  0.6029 -0.6300
 2891SOL    HW2 9290   3.519   4.837   1.138  0.8872  0.2612 -1.5224
 2892SOL     OW 9291   3.852   5.899   7.156  0.2873  0.3741 -0.2133
 2892SOL    HW1 9292   3.803   5.890   7.074 -1.3542 -0.9748  0.8429
 2892SOL    HW2 9293   3.820   5.980   7.195 -0.6412 -0.1363  0.1290
 2893SOL     OW 9294   5.886   1.802   6.998 -0.2444 -0.0338 -0.1122
 2893SOL    HW1 9295   5.896   1.710   6.973 -0.5881  0.6352 -3.0461
 2893SOL    HW2 9296   5.794   1.822   6.980  0.2352  1.3056 -1.2343
 2894SOL     OW 9297   6.282   1.970   0.159  0.6197 -0.1156 -0.5310
 2894SOL    HW1 9298   6.327   2.044   0.117  1.8895 -0.7695 -0.3503
 2894SOL    HW2 9299   6.259   1.912   0.086 -1.2294  0.8539 -0.7877
 2895SOL     OW 9300   4.023   0.794   2.486  0.1264  0.7852  0.4928
 2895SOL    HW1 9301   3.946   0.739   2.476 -0.0896  0.7874  2.0488
 2895SOL    HW2 9302   4.083   0.743   2.539  1.0166  0.9842 -0.2900
 2896SOL     OW 9303   4.544   3.071   4.847  0.2015 -0.0034  0.3544
 2896SOL    HW1 9304   4.622   3.030   4.884  0.4263  0.3035  0.2276
 2896SOL    HW2 9305   4.493   3.097   4.923 -0.6589 -1.8213  0.4536
 2897SOL     OW 9306   0.326   5.069   0.705  0.2910 -0.3723 -0.0205
 2897SOL    HW1 9307   0.234   5.053   0.727  0.0263  0.1779 -0.6893
 2897SOL    HW2 9308   0.372   5.063   0.789 -0.1164 -2.2411  0.1084
 2898SOL     OW 9309   3.089   0.977   1.891 -0.2135 -0.4480 -0.1842
 2898SOL    HW1 9310   3.021   0.955   1.955 -0.2593  0.8705  0.2342
 2898SOL    HW2 9311   3.122   1.062   1.919  1.1549 -0.7570 -0.7687
 2899SOL     OW 9312   6.985   6.464   4.099 -0.2369 -0.3353  0.0153
 2899SOL    HW1 9313   6.992   6.369   4.095 -0.2153 -0.2928 -1.3894
 2899SOL    HW2 9314   7.076   6.495   4.098 -0.1816 -0.3181  2.0848
 2900SOL     OW 9315   1.011   3.404   5.478 -0.0743  0.4681 -0.1652
 2900SOL    HW1 9316   0.990   3.315   5.449  1.2313  0.6202 -1.7398
 2900SOL    HW2 9317   1.087   3.393   5.535 -2.5337  0.1885  3.4371
 2901SOL     OW 9318   4.801   0.999   2.312  0.5130 -0.5838  0.2518
 2901SOL    HW1 9319   4.756   1.068   2.264  2.5915  0.5812 -0.1081
 2901SOL    HW2 9320   4.796   1.026   2.404 -0.2693 -0.9379  0.3254
 2902SOL     OW 9321   2.431   0.979   0.759  0.7400  0.2511 -0.2305
 2902SOL    HW1 9322   2.437   0.916   0.831 -1.1068 -1.7162 -1.6669
 2902SOL    HW2 9323   2.358   0.947   0.706  2.3414  1.3333 -3.2773
 2903SOL     OW 9324   2.853   3.442   4.919  0.1004 -0.1689 -0.3159
 2903SOL    HW1 9325   2.809   3.467   4.838 -0.9153 -2.6780 -0.6254
 2903SOL    HW2 9326   2.799   3.481   4.988 -0.6484 -0.3586 -0.7882
 2904SOL     OW 9327   6.593   0.342   2.925 -0.7611 -0.3976 -0.5872
 2904SOL    HW1 9328   6.628   0.429   2.902  0.2496 -1.0293 -1.5134
 2904SOL    HW2 9329   6.522   0.328   2.863 -0.4129 -0.5479 -0.9618
 2905SOL     OW 9330   3.037   4.481   2.069 -0.1644 -0.4216 -0.0434
 2905SOL    HW1 9331   3.036   4.575   2.086 -1.5204 -0.4549  0.1825
 2905SOL    HW2 9332   3.040   4.474   1.974 -1.2954 -0.1288 -0.1087
 2906SOL     OW 9333   2.752   6.298   5.341  0.1709  0.2957  0.7857
 2906SOL    HW1 9334   2.743   6.277   5.434 -0.8196  0.7121  0.8076
 2906SOL    HW2 9335   2.767   6.214   5.298 -0.9259 -0.1133  1.1625
 2907SOL     OW 9336   2.356   1.443   4.612  0.3759  0.4682  0.6570
 2907SOL    HW1 9337   2.361   1.422   4.706 -1.9136 -0.2348  0.6921
 2907SOL    HW2 9338   2.300   1.520   4.608  0.8703  0.7977 -0.1202
 2908SOL     OW 9339   6.192   6.162   0.233 -0.1542  0.1806  0.2887
 2908SOL    HW1 9340   6.109   6.120   0.214 -0.8077  1.8693 -0.8665
 2908SOL    HW2 9341   6.169   6.253   0.252  1.4452  0.7691 -0.3772
 2909SOL     OW 9342   6.321   4.055   4.229  0.3065  0.1192 -0.5216
 2909SOL    HW1 9343   6.413   4.071   4.249  0.6117  0.4672 -2.0254
 2909SOL    HW2 9344   6.310   3.961   4.239  0.2793  0.3066  1.6331
 2910SOL     OW 9345   2.483   5.548   2.007 -0.1177  0.0823  0.1201
 2910SOL    HW1 9346   2.391   5.566   2.025  0.3911  1.4951  1.5201
 2910SOL    HW2 9347   2.500   5.592   1.923 -0.1977  1.8050  0.9618
 2911SOL     OW 9348   4.805   3.210   6.382 -0.3767  0.3177 -0.0277
 2911SOL    HW1 9349   4.857   3.290   6.388  0.8192 -0.4462  0.1177
 2911SOL    HW2 9350   4.844   3.161   6.310  1.2123 -1.6995  2.0340
 2912SOL     OW 9351   2.877   1.858   6.511 -0.1204  0.0016  0.4279
 2912SOL    HW1 9352   2.854   1.782   6.564 -1.9325  1.2548  1.5534
 2912SOL    HW2 9353   2.918   1.919   6.572  1.3801 -0.0355 -0.4753
 2913SOL     OW 9354   4.432   5.980   3.442  0.4349 -0.0324 -0.6410
 2913SOL    HW1 9355   4.388   5.898   3.420  1.2280 -0.1449 -1.9212
 2913SOL    HW2 9356   4.415   6.037   3.367 -0.4376  1.1338  0.4066
 2914SOL     OW 9357   3.208   1.561   1.355 -0.6376 -0.5440  0.2138
 2914SOL    HW1 9358   3.200   1.585   1.447 -0.5483 -1.1994  0.3969
 2914SOL    HW2 9359   3.125   1.589   1.316 -0.2714  0.6774  0.2655
 2915SOL     OW 9360   6.899   2.111   1.034 -0.2597 -0.2110  0.1968
 2915SOL    HW1 9361   6.916   2.072   0.948  0.1823 -0.1999  0.2795
 2915SOL    HW2 9362   6.851   2.044   1.082 -0.8909 -0.0588 -0.2039
 2916SOL     OW 9363   2.178   6.095   0.626 -0.3302 -0.7510 -0.1903
 2916SOL    HW1 9364   2.272   6.083   0.613 -0.4324 -1.6297 -0.1903
 2916SOL    HW2 9365   2.159   6.181   0.589  0.7006  0.0132  0.9896
 2917SOL     OW 9366   1.777   1.129   5.917  0.2659  0.3132  0.3028
 2917SOL    HW1 9367   1.805   1.178   5.840  1.6585  0.0632  0.6139
 2917SOL    HW2 9368   1.691   1.164   5.938  0.5165  1.4583 -0.4687
 2918SOL     OW 9369   1.908   6.736   0.777 -0.1807  0.4925 -0.2144
 2918SOL    HW1 9370   1.917   6.701   0.688  0.1400 -1.4329  0.5204
 2918SOL    HW2 9371   1.996   6.729   0.814 -0.9766 -2.2408  1.4149
 2919SOL     OW 9372   4.705   4.591   5.312  1.0046  0.3272  0.0383
 2919SOL    HW1 9373   4.616   4.614   5.340  1.2529  1.6277 -0.1881
 2919SOL    HW2 9374   4.703   4.600   5.217  1.1889 -0.3687 -0.0355
 2920SOL     OW 9375   6.610   3.721   4.975  0.2884 -0.3142  0.0568
 2920SOL    HW1 9376   6.548   3.789   4.950  0.6856  0.2168  0.4832
 2920SOL    HW2 9377   6.578   3.689   5.059  1.0554  0.5785  0.7166
 2921SOL     OW 9378   4.923   5.230   3.749 -0.3544  0.4739 -0.0480
 2921SOL    HW1 9379   4.989   5.300   3.745  0.1566  0.0133  0.2494
 2921SOL    HW2 9380   4.965   5.154   3.709 -0.7993  0.2419 -0.0863
 2922SOL     OW 9381   0.644   2.317   6.469 -0.2275  0.3669 -0.0733
 2922SOL    HW1 9382   0.554   2.298   6.445 -0.6683  1.4149  0.6673
 2922SOL    HW2 9383   0.697   2.270   6.404 -1.2750 -0.8991 -0.0632
 2923SOL     OW 9384   0.911   3.609   0.920 -0.2993 -0.0569 -0.4178
 2923SOL    HW1 9385   0.953   3.681   0.873 -1.1559  1.3912  0.9377
 2923SOL    HW2 9386   0.817   3.623   0.905 -0.5023 -0.5140  0.4017
 2924SOL     OW 9387   0.098   6.778   0.915 -0.0603  0.1951 -0.3359
 2924SOL    HW1 9388   0.139   6.828   0.985  2.2914 -0.5336 -1.1094
 2924SOL    HW2 9389   0.131   6.818   0.835 -0.1581 -0.9772 -0.9843
 2925SOL     OW 9390   1.664   5.612   5.054 -0.1188 -0.1351  0.4372
 2925SOL    HW1 9391   1.620   5.531   5.030  1.5813 -1.7943  2.5280
 2925SOL    HW2 9392   1.603   5.655   5.114 -0.4908 -0.5131  0.3388
 2926SOL     OW 9393   0.863   2.540   0.607  0.4114  0.1736  0.1839
 2926SOL    HW1 9394   0.951   2.502   0.617 -0.5485 -1.5485  3.5369
 2926SOL    HW2 9395   0.805   2.464   0.602 -0.9211  1.0635 -5.6590
 2927SOL     OW 9396   6.684   2.157   2.343  0.2364  0.0707 -0.3797
 2927SOL    HW1 9397   6.696   2.148   2.248  0.1743 -0.0972 -0.3715
 2927SOL    HW2 9398   6.763   2.202   2.372  0.1798  0.2728 -0.5347
 2928SOL     OW 9399   6.138   2.442   3.545 -0.0547 -0.0692  0.7917
 2928SOL    HW1 9400   6.198   2.377   3.508 -1.7679 -0.4639 -1.6221
 2928SOL    HW2 9401   6.178   2.527   3.525  0.9572 -0.3371  1.6394
 2929SOL     OW 9402   0.265   5.631   3.259 -0.9447  0.2288 -0.1364
 2929SOL    HW1 9403   0.257   5.686   3.337 -1.7727  0.8623 -0.6542
 2929SOL    HW2 9404   0.177   5.628   3.223 -0.7320 -0.7392 -0.5984
 2930SOL     OW 9405   4.592   3.463   0.680 -0.7401 -0.2905  0.0591
 2930SOL    HW1 9406   4.632   3.536   0.634 -0.5442  0.0697  0.7799
 2930SOL    HW2 9407   4.641   3.457   0.762 -0.4894 -1.4892 -0.1599
 2931SOL     OW 9408   3.070   1.343   1.923 -0.1526  0.0556  0.1428
 2931SOL    HW1 9409   3.068   1.339   2.019  0.5380 -0.1500  0.1603
 2931SOL    HW2 9410   2.982   1.318   1.895 -0.3361  0.0497  0.7247
 2932SOL     OW 9411   7.165   1.067   1.020  0.4460 -0.4540 -0.1288
 2932SOL    HW1 9412   7.083   1.095   0.979 -0.9203 -1.2371  1.9350
 2932SOL    HW2 9413   7.183   1.134   1.086  1.5269 -0.2768 -0.5730
 2933SOL     OW 9414   1.461   6.171   2.387  0.1186  0.5154 -0.3979
 2933SOL    HW1 9415   1.483   6.258   2.354 -0.4094  1.1407  0.8688
 2933SOL    HW2 9416   1.378   6.182   2.434 -0.1987 -0.7629 -0.6095
 2934SOL     OW 9417   0.282   4.383   3.481  0.5566  0.3709 -0.0219
 2934SOL    HW1 9418   0.363   4.366   3.433  0.4980 -1.8155  0.5239
 2934SOL    HW2 9419   0.269   4.304   3.534 -1.0334  1.3860  1.2018
 2935SOL     OW 9420   3.595   1.288   5.991 -0.1743  0.3787 -0.2349
 2935SOL    HW1 9421   3.678   1.318   5.954  0.6113 -1.1536  0.1981
 2935SOL    HW2 9422   3.616   1.267   6.083 -0.7263 -1.1273 -0.4147
 2936SOL     OW 9423   6.403   0.066   5.961 -0.0725  0.1885  0.3039
 2936SOL    HW1 9424   6.392  -0.028   5.973 -1.5065  0.3908  0.8220
 2936SOL    HW2 9425   6.393   0.080   5.867 -0.1533 -0.1537  0.2619
 2937SOL     OW 9426   2.203   1.234   1.930  0.1812  0.1066 -0.1552
 2937SOL    HW1 9427   2.244   1.295   1.992  0.0460 -0.3653  0.4017
 2937SOL    HW2 9428   2.120   1.211   1.971  1.1160 -2.0667  0.6548
 2938SOL     OW 9429   1.249   2.602   4.467 -0.7281  0.4906  0.4459
 2938SOL    HW1 9430   1.199   2.521   4.471 -0.6297  0.3690 -0.5416
 2938SOL    HW2 9431   1.341   2.574   4.462 -0.7101  0.6521 -0.1686
 2939SOL     OW 9432   4.243   6.522   4.839 -0.5578 -0.4193  0.2144
 2939SOL    HW1 9433   4.311   6.546   4.901 -0.3238 -2.0293  0.6419
 2939SOL    HW2 9434   4.176   6.478   4.892 -1.1264 -0.3661 -0.4409
 2940SOL     OW 9435   1.355   1.210   4.676 -0.2842 -0.1741  0.5270
 2940SOL    HW1 9436   1.412   1.134   4.687 -0.7878 -0.7238 -0.5723
 2940SOL    HW2 9437   1.278   1.190   4.729  0.0552  0.0783  1.1279
 2941SOL     OW 9438   0.562   0.249   4.091  0.1711  0.0055 -0.2802
 2941SOL    HW1 9439   0.506   0.275   4.164 -1.3210 -1.0052 -1.0008
 2941SOL    HW2 9440   0.640   0.304   4.099 -0.3995  0.6190  1.4662
 2942SOL     OW 9441   5.904   0.858   5.323  0.4279 -0.4556 -0.0540
 2942SOL    HW1 9442   5.921   0.771   5.357  0.6113 -0.5269 -0.3304
 2942SOL    HW2 9443   5.920   0.916   5.397  5.0530 -0.1660 -0.9754
 2943SOL     OW 9444   5.347   4.634   4.135 -0.4231  0.4082  0.6870
 2943SOL    HW1 9445   5.342   4.662   4.044  1.1364  1.1293  0.7785
 2943SOL    HW2 9446   5.286   4.562   4.142  0.5823 -0.7203 -1.3506
 2944SOL     OW 9447   6.280   1.624   6.906  0.5233 -0.0443 -0.1008
 2944SOL    HW1 9448   6.314   1.610   6.994  2.3345  0.0326 -0.7602
 2944SOL    HW2 9449   6.308   1.546   6.857  1.4439  0.9026 -1.1326
 2945SOL     OW 9450   7.058   5.827   5.199 -0.0518 -0.6076  0.2788
 2945SOL    HW1 9451   7.120   5.755   5.190 -1.4489 -1.5860 -3.2278
 2945SOL    HW2 9452   6.984   5.789   5.246 -0.4248 -1.2456 -0.8002
 2946SOL     OW 9453   5.796   3.243   1.140 -0.6982  0.7509 -0.3507
 2946SOL    HW1 9454   5.706   3.248   1.172 -0.3794 -0.5880  0.8510
 2946SOL    HW2 9455   5.825   3.334   1.135 -0.9923  1.1119  2.6504
 2947SOL     OW 9456   2.565   5.377   7.080 -0.4809 -0.4950  0.1595
 2947SOL    HW1 9457   2.584   5.295   7.034 -0.1689  0.2277 -1.0472
 2947SOL    HW2 9458   2.649   5.403   7.119 -0.9735 -1.6735  2.1760
 2948SOL     OW 9459   6.406   1.545   0.210  0.1114  0.0860 -0.2089
 2948SOL    HW1 9460   6.397   1.635   0.243  0.9935 -0.2260  0.9860
 2948SOL    HW2 9461   6.499   1.524   0.225 -0.1512 -1.1309 -0.1814
 2949SOL     OW 9462   1.222   6.445   0.223 -0.3458  0.1332  0.2253
 2949SOL    HW1 9463   1.286   6.516   0.212 -0.9070  0.7870  1.0205
 2949SOL    HW2 9464   1.265   6.368   0.186  0.5563  0.7412 -0.0362
 2950SOL     OW 9465   2.656   0.876   1.369  0.0548 -0.1941 -0.0671
 2950SOL    HW1 9466   2.566   0.893   1.395  0.1723  1.4833 -0.5927
 2950SOL    HW2 9467   2.655   0.787   1.333 -0.9985 -0.8653  1.5247
 2951SOL     OW 9468   4.203   2.284   4.517  0.0361  0.1679 -0.0941
 2951SOL    HW1 9469   4.122   2.335   4.523  0.1605  0.4606 -0.8078
 2951SOL    HW2 9470   4.226   2.286   4.424  1.9909  1.8803  0.3395
 2952SOL     OW 9471   6.168   3.246   3.440 -0.0980  0.0961  0.1318
 2952SOL    HW1 9472   6.152   3.306   3.513 -1.7146  0.3276 -0.3824
 2952SOL    HW2 9473   6.112   3.171   3.458 -0.9835  0.4138 -1.1565
 2953SOL     OW 9474   1.108   3.199   4.181  0.2322 -0.3415  0.0426
 2953SOL    HW1 9475   1.063   3.124   4.141  1.0498  0.6105 -2.9065
 2953SOL    HW2 9476   1.198   3.192   4.151  1.0964  0.2156  2.2591
 2954SOL     OW 9477   3.289   6.557   5.669 -0.0810 -0.0361  0.4463
 2954SOL    HW1 9478   3.341   6.618   5.616 -0.2966  0.3719  0.6950
 2954SOL    HW2 9479   3.337   6.475   5.665  0.4342  0.2590  0.4371
 2955SOL     OW 9480   3.502   2.266   2.316  0.1200  0.4401  0.0423
 2955SOL    HW1 9481   3.527   2.276   2.408 -0.0313  1.7811 -0.0433
 2955SOL    HW2 9482   3.541   2.341   2.272 -0.5208  0.2737 -0.8369
 2956SOL     OW 9483   1.104   2.065   4.310  0.1048  0.5943  0.8142
 2956SOL    HW1 9484   1.087   2.095   4.399  0.6196  1.5264  0.6105
 2956SOL    HW2 9485   1.057   1.982   4.304 -0.4866  0.8383  1.7398
 2957SOL     OW 9486   0.009   4.263   6.605 -0.2499  0.5924  0.0787
 2957SOL    HW1 9487   0.097   4.301   6.603 -0.5102  1.3845  1.7067
 2957SOL    HW2 9488  -0.031   4.290   6.523  1.3526 -0.6942 -1.1963
 2958SOL     OW 9489   2.826   1.602   3.235  0.5878  0.0946  0.5487
 2958SOL    HW1 9490   2.862   1.671   3.290  1.7358 -0.1010  0.0739
 2958SOL    HW2 9491   2.893   1.534   3.234 -0.0974 -0.5977  0.1957
 2959SOL     OW 9492   2.066   1.489   4.778 -0.1982 -0.0638 -0.1898
 2959SOL    HW1 9493   1.978   1.524   4.789  0.0049  0.2573  0.5128
 2959SOL    HW2 9494   2.056   1.395   4.793 -0.5519 -0.1443 -0.9207
 2960SOL     OW 9495   2.420   5.227   3.728  0.0125 -0.2139 -0.0419
 2960SOL    HW1 9496   2.326   5.219   3.737  0.1085 -0.5547  0.7251
 2960SOL    HW2 9497   2.453   5.234   3.818  0.8590 -1.6580 -0.2143
 2961SOL     OW 9498   2.747   0.894   1.618 -0.1791  0.4307 -0.0240
 2961SOL    HW1 9499   2.718   0.878   1.528  0.8981 -1.4771 -0.0928
 2961SOL    HW2 9500   2.813   0.827   1.634 -0.6620  0.4301  2.3593
 2962SOL     OW 9501   3.898   2.822   4.454 -0.1125  0.0518  0.1422
 2962SOL    HW1 9502   3.919   2.763   4.382  0.1085 -0.7294  0.8400
 2962SOL    HW2 9503   3.911   2.910   4.417  1.9545 -0.3403 -0.1926
 2963SOL     OW 9504   6.375   5.578   4.846 -0.1071 -0.0222  0.2322
 2963SOL    HW1 9505   6.453   5.619   4.882 -0.4851  0.6634  0.2876
 2963SOL    HW2 9506   6.407   5.532   4.768 -0.0169  2.3850 -1.2604
 2964SOL     OW 9507   6.259   2.572   0.824 -0.0650 -0.2293  0.5963
 2964SOL    HW1 9508   6.185   2.536   0.872  0.4307 -1.3390  0.5605
 2964SOL    HW2 9509   6.286   2.649   0.875 -1.0178 -0.0029  0.7836
 2965SOL     OW 9510   0.077   1.758   1.976 -0.4305  0.7167 -0.0314
 2965SOL    HW1 9511   0.090   1.848   2.004  3.2869  0.0666  0.9053
 2965SOL    HW2 9512   0.011   1.723   2.035  1.3545  1.6667  2.7077
 2966SOL     OW 9513   3.492   5.390   6.353  0.0757 -0.1080  0.4771
 2966SOL    HW1 9514   3.447   5.377   6.269  0.2602 -0.3328  0.4121
 2966SOL    HW2 9515   3.498   5.302   6.391 -1.2337  0.1460  1.3720
 2967SOL     OW 9516   3.176   2.944   0.178 -0.1972  0.4113  0.0261
 2967SOL    HW1 9517   3.180   2.874   0.244 -1.1804 -0.5369 -0.8694
 2967SOL    HW2 9518   3.146   3.021   0.226 -0.8048 -0.2399  0.7191
 2968SOL     OW 9519   3.437   6.300   4.469  0.2533 -0.3307 -0.2223
 2968SOL    HW1 9520   3.472   6.365   4.530 -1.7316 -0.5898  1.3015
 2968SOL    HW2 9521   3.382   6.243   4.523 -1.1445 -0.9280 -2.1500
 2969SOL     OW 9522   4.978   2.395   0.977 -0.5379 -0.1787 -0.2723
 2969SOL    HW1 9523   4.887   2.404   0.949 -0.7547 -1.1587  0.1074
 2969SOL    HW2 9524   4.983   2.448   1.056 -0.0195  2.2864 -1.8180
 2970SOL     OW 9525   6.420   5.304   4.155  0.5713 -0.6552  0.6837
 2970SOL    HW1 9526   6.413   5.251   4.234  0.2224 -1.5990  0.0377
 2970SOL    HW2 9527   6.340   5.285   4.105  1.8620 -1.9444 -1.0034
 2971SOL     OW 9528   6.626   5.924   0.717  0.3119  0.0430 -0.0818
 2971SOL    HW1 9529   6.541   5.968   0.710  0.2255 -0.1078  0.0070
 2971SOL    HW2 9530   6.634   5.901   0.809 -0.7129 -2.2057 -0.4739
 2972SOL     OW 9531   5.179   6.704   1.488  1.0973 -0.0763  0.2498
 2972SOL    HW1 9532   5.162   6.721   1.395 -1.5798 -0.8170  0.5364
 2972SOL    HW2 9533   5.165   6.788   1.531  1.3420  0.0392  0.1083
 2973SOL     OW 9534   0.365   2.903   0.070  0.3274 -0.5411 -0.4360
 2973SOL    HW1 9535   0.336   2.867   0.153 -0.3721  0.0412 -0.4204
 2973SOL    HW2 9536   0.460   2.890   0.071  0.0950 -2.5837 -0.5519
 2974SOL     OW 9537   6.681   5.453   0.014  0.3238  0.0617 -0.2305
 2974SOL    HW1 9538   6.762   5.502   0.027  0.0072  0.6886 -0.5739
 2974SOL    HW2 9539   6.635   5.501  -0.055  0.1490 -0.8923 -0.8044
 2975SOL     OW 9540   3.785   5.453   2.098 -0.0771  0.0651 -0.1409
 2975SOL    HW1 9541   3.791   5.546   2.121 -2.3364  0.3313 -0.4395
 2975SOL    HW2 9542   3.868   5.434   2.053  1.2043  1.4320  1.5255
 2976SOL     OW 9543   5.168   6.175   6.320  0.2049  0.4087  0.5713
 2976SOL    HW1 9544   5.229   6.149   6.252  0.6199  0.3428  0.9689
 2976SOL    HW2 9545   5.215   6.163   6.402  0.0653  1.4321  0.8272
 2977SOL     OW 9546   2.240   3.143   3.675 -0.3622 -0.6608 -0.0467
 2977SOL    HW1 9547   2.189   3.219   3.701 -1.1800 -1.1194 -0.2840
 2977SOL    HW2 9548   2.295   3.125   3.751  0.8393  0.9659 -0.4818
 2978SOL     OW 9549   2.162   7.180   2.136 -0.0584 -0.4753 -0.4183
 2978SOL    HW1 9550   2.093   7.246   2.132  0.0609 -0.3794 -0.8759
 2978SOL    HW2 9551   2.233   7.223   2.184 -0.2794 -0.5445 -0.0228
 2979SOL     OW 9552   5.368   4.217   6.763  0.4198 -0.2800 -0.2594
 2979SOL    HW1 9553   5.451   4.264   6.757 -0.0331  0.8284  1.3650
 2979SOL    HW2 9554   5.360   4.193   6.855 -1.5121  0.5239 -0.1685
 2980SOL     OW 9555   2.501   5.648   1.710 -0.3892  0.2301 -0.1537
 2980SOL    HW1 9556   2.439   5.716   1.736 -0.0018  1.5723 -2.4498
 2980SOL    HW2 9557   2.580   5.696   1.686  0.9360 -1.3084  0.9331
 2981SOL     OW 9558   0.323   1.316   6.516  0.1103 -0.1570  0.0340
 2981SOL    HW1 9559   0.295   1.225   6.510 -0.9504  0.1310  0.3089
 2981SOL    HW2 9560   0.384   1.319   6.589  0.9446 -0.8214 -0.6130
 2982SOL     OW 9561   3.351   2.185   1.548 -0.5966 -0.0381 -0.4769
 2982SOL    HW1 9562   3.337   2.106   1.497 -0.3079  0.5434 -1.4676
 2982SOL    HW2 9563   3.371   2.153   1.636  3.0294 -1.2329 -1.5574
 2983SOL     OW 9564   2.872   5.876   4.541  0.4303 -0.5172 -0.0137
 2983SOL    HW1 9565   2.905   5.948   4.487  1.3189 -1.6874 -1.0986
 2983SOL    HW2 9566   2.782   5.864   4.512  0.6070 -0.5169 -0.5687
 2984SOL     OW 9567   0.812   0.477   1.693  0.3342  0.5672  0.4074
 2984SOL    HW1 9568   0.770   0.469   1.779 -0.1993 -1.4228  0.0095
 2984SOL    HW2 9569   0.752   0.433   1.633  1.9615 -0.4673 -0.5289
 2985SOL     OW 9570   2.713   2.615   6.556 -0.3438  0.4183  0.5876
 2985SOL    HW1 9571   2.718   2.615   6.460 -1.9214 -0.2673  0.4785
 2985SOL    HW2 9572   2.635   2.564   6.576  0.5526 -0.3834  2.2850
 2986SOL     OW 9573   2.330   1.027   4.733  0.0072 -0.1033  0.4198
 2986SOL    HW1 9574   2.301   0.978   4.811  0.9233  0.2455  0.9912
 2986SOL    HW2 9575   2.375   0.962   4.680 -0.6589 -0.3533  0.1524
 2987SOL     OW 9576   0.310   5.326   4.329 -0.0874 -0.4111 -0.2908
 2987SOL    HW1 9577   0.372   5.254   4.320  0.3390 -0.0069 -0.6516
 2987SOL    HW2 9578   0.353   5.401   4.288  0.2380  0.5177  1.5992
 2988SOL     OW 9579   6.379   5.047   6.641 -0.2150 -0.3902 -0.7152
 2988SOL    HW1 9580   6.417   4.961   6.657  0.4647  0.2792  1.6011
 2988SOL    HW2 9581   6.430   5.083   6.568  2.3792 -0.3134  1.0213
 2989SOL     OW 9582   4.189   6.298   0.722 -0.7409  0.6032 -0.2887
 2989SOL    HW1 9583   4.145   6.268   0.642  2.4760  0.3275 -2.1627
 2989SOL    HW2 9584   4.251   6.227   0.743  1.7933  2.6350 -0.4204
 2990SOL     OW 9585   2.107   5.379   1.898  0.0592  0.1773  0.4043
 2990SOL    HW1 9586   2.038   5.422   1.848  0.3131 -0.0011 -0.1056
 2990SOL    HW2 9587   2.152   5.323   1.835  1.0700  0.7508  0.5769
 2991SOL     OW 9588   4.127   1.006   6.991 -0.6843  0.4914 -0.0586
 2991SOL    HW1 9589   4.182   0.971   7.060  0.4381 -0.2261 -1.2759
 2991SOL    HW2 9590   4.101   0.930   6.939 -1.6178  0.9921 -0.3508
 2992SOL     OW 9591   2.723   3.924   1.198  0.0399 -0.2917 -0.2895
 2992SOL    HW1 9592   2.696   3.981   1.126 -1.3254  0.5377  0.8084
 2992SOL    HW2 9593   2.786   3.977   1.248  0.4558 -0.6007 -0.4811
 2993SOL     OW 9594   0.538   5.233   4.570  0.1889  0.0118  0.3920
 2993SOL    HW1 9595   0.511   5.161   4.627  1.6636 -0.3504  0.6675
 2993SOL    HW2 9596   0.634   5.230   4.570  0.2456  0.7376 -1.1811
 2994SOL     OW 9597   4.147   1.597   5.931 -0.3824 -0.2249 -0.2263
 2994SOL    HW1 9598   4.227   1.581   5.983 -1.1473 -0.8831  0.7951
 2994SOL    HW2 9599   4.084   1.534   5.965 -1.0578 -0.3770 -1.6944
 2995SOL     OW 9600   3.169   0.602   2.581 -0.3995 -0.1599  0.4504
 2995SOL    HW1 9601   3.221   0.523   2.594  1.7645  1.0511 -0.3757
 2995SOL    HW2 9602   3.232   0.668   2.553 -2.0610  2.0140  1.5472
 2996SOL     OW 9603   6.837   7.129   6.583 -0.1486  0.0579  0.0572
 2996SOL    HW1 9604   6.916   7.075   6.585 -0.5769 -0.5687  1.2943
 2996SOL    HW2 9605   6.867   7.215   6.552  0.8358 -0.4177 -0.3659
 2997SOL     OW 9606   4.977   7.015   1.227  0.4285  0.1837  0.1329
 2997SOL    HW1 9607   5.005   7.097   1.268 -0.1472  0.2408  0.4292
 2997SOL    HW2 9608   4.885   7.029   1.207  0.2591 -0.4784  0.4158
 2998SOL     OW 9609   5.950   6.435   0.012  1.0506 -0.1687 -0.0281
 2998SOL    HW1 9610   6.019   6.500   0.024  0.5119  0.2353  1.0141
 2998SOL    HW2 9611   5.996   6.351   0.006  1.5782 -0.1632  2.7189
 2999SOL     OW 9612   3.516   6.883   6.571  0.6594  0.2211  0.2841
 2999SOL    HW1 9613   3.611   6.886   6.561  0.6217  1.1222  0.1017
 2999SOL    HW2 9614   3.485   6.966   6.536 -0.2338 -0.1979  0.0327
 3000SOL     OW 9615   4.391   5.416   6.931  0.6850 -0.2184 -0.3567
 3000SOL    HW1 9616   4.461   5.366   6.889  0.1446 -0.9158 -0.4376
 3000SOL    HW2 9617   4.436   5.468   6.998  1.3744 -0.0969 -0.9024
 3001SOL     OW 9618   5.830   0.722   6.189  0.0968 -0.4049  0.2855
 3001SOL    HW1 9619   5.771   0.655   6.223 -0.6506  0.2541  0.3191
 3001SOL    HW2 9620   5.882   0.749   6.265  0.2486 -0.7816  0.3187
 3002SOL     OW 9621   1.568   1.831   3.101 -0.3806 -0.4343  0.5645
 3002SOL    HW1 9622   1.539   1.791   3.019  1.1078 -1.2692  0.4117
 3002SOL    HW2 9623   1.613   1.911   3.075  0.8008 -1.1101  0.4812
 3003SOL     OW 9624   2.819   5.051   0.494  0.0405 -0.5746  0.4725
 3003SOL    HW1 9625   2.843   5.021   0.581 -1.5676 -1.0234  0.7952
 3003SOL    HW2 9626   2.895   5.101   0.464  0.4017  0.0746  2.3477
 3004SOL     OW 9627   5.978   2.609   3.285  0.0877  0.5473 -0.6476
 3004SOL    HW1 9628   6.055   2.569   3.325 -0.2290  0.4899 -0.0761
 3004SOL    HW2 9629   5.939   2.662   3.355 -0.3433  0.6424 -0.9499
 3005SOL     OW 9630   1.340   2.409   5.183  0.6491  0.0323 -0.1139
 3005SOL    HW1 9631   1.355   2.329   5.232 -0.5946 -0.9873 -1.2937
 3005SOL    HW2 9632   1.425   2.453   5.180  1.1316 -0.7436  1.3765
 3006SOL     OW 9633   2.160   2.347   2.823 -0.0667 -0.0023  0.0822
 3006SOL    HW1 9634   2.157   2.370   2.916  2.2337 -0.9181  0.4699
 3006SOL    HW2 9635   2.143   2.429   2.777  0.7392  0.9151  1.3495
 3007SOL     OW 9636   6.542   6.831   5.960 -0.2673  0.2588  0.3105
 3007SOL    HW1 9637   6.510   6.920   5.943  1.8121  0.9675 -0.0714
 3007SOL    HW2 9638   6.508   6.779   5.887  0.4234  1.2308 -0.7266
 3008SOL     OW 9639   7.002   2.880   5.129  0.1544 -0.0303  0.0835
 3008SOL    HW1 9640   6.942   2.938   5.176  0.6883  1.6880 -1.2418
 3008SOL    HW2 9641   6.945   2.825   5.075 -0.3138  1.5452 -1.1264
 3009SOL     OW 9642   0.628   2.772   2.078 -0.0913  0.5464  0.5644
 3009SOL    HW1 9643   0.587   2.857   2.066 -1.2455 -0.1463 -0.7835
 3009SOL    HW2 9644   0.608   2.747   2.168 -3.3477 -0.0609 -0.2162
 3010SOL     OW 9645   5.613   0.692   5.215 -0.1206  0.3132 -0.0606
 3010SOL    HW1 9646   5.591   0.721   5.303  0.2788  0.4946 -0.0235
 3010SOL    HW2 9647   5.537   0.719   5.162 -1.3414 -1.6272  0.5844
 3011SOL     OW 9648   1.245   2.425   2.548  0.1375  0.1193 -0.4142
 3011SOL    HW1 9649   1.152   2.402   2.558  0.3605 -0.3541  0.7675
 3011SOL    HW2 9650   1.256   2.438   2.454 -0.7459 -1.4987 -0.7846
 3012SOL     OW 9651   1.491   2.491   4.386  0.1161 -0.2794 -0.2039
 3012SOL    HW1 9652   1.511   2.397   4.389  0.7130 -0.1942 -1.1470
 3012SOL    HW2 9653   1.464   2.507   4.295 -1.1645  0.2440  0.2420
 3013SOL     OW 9654   0.479   0.889   2.031  0.7566  0.2935  0.3299
 3013SOL    HW1 9655   0.569   0.905   2.003  0.4067 -1.7020 -2.3235
 3013SOL    HW2 9656   0.487   0.853   2.119  2.2866  2.6207  1.2488
 3014SOL     OW 9657   6.917   2.720   0.220  0.4268 -0.2670  0.4352
 3014SOL    HW1 9658   6.996   2.761   0.185  0.5851 -0.0175  1.0718
 3014SOL    HW2 9659   6.901   2.766   0.302  0.2736 -1.0927  0.8783
 3015SOL     OW 9660   1.466   0.607   3.117  0.1157 -0.0340  0.0256
 3015SOL    HW1 9661   1.371   0.602   3.119  0.1422 -1.7421 -0.9694
 3015SOL    HW2 9662   1.486   0.690   3.075 -0.9682 -0.2255 -0.9036
 3016SOL     OW 9663   0.738   0.948   1.936  0.1034 -0.7512  0.6017
 3016SOL    HW1 9664   0.775   1.010   2.000  0.6875 -1.7641  1.2697
 3016SOL    HW2 9665   0.809   0.888   1.917  0.9171  1.1114 -3.2124
 3017SOL     OW 9666   1.315   3.329   0.019 -0.0197  0.0416  0.0028
 3017SOL    HW1 9667   1.325   3.380  -0.062 -1.3864 -2.1181 -1.6481
 3017SOL    HW2 9668   1.258   3.383   0.074  0.2764  1.2153 -0.8006
 3018SOL     OW 9669   1.715   7.116   1.213  0.1682 -0.1882  0.0865
 3018SOL    HW1 9670   1.678   7.043   1.164 -1.0910  1.1053 -0.9890
 3018SOL    HW2 9671   1.654   7.189   1.198  1.3763  1.1043  1.0950
 3019SOL     OW 9672   4.083   7.179   6.652 -0.4921 -0.8230 -0.1977
 3019SOL    HW1 9673   4.058   7.191   6.743  0.9497 -0.2534  0.1417
 3019SOL    HW2 9674   4.103   7.268   6.621 -1.8099 -0.8862 -1.3409
 3020SOL     OW 9675   4.122   2.837   7.037 -0.7822 -0.3606  0.2683
 3020SOL    HW1 9676   4.086   2.791   7.113 -0.6440 -0.2657  0.3907
 3020SOL    HW2 9677   4.213   2.855   7.061 -0.8359 -0.0301  0.2152
 3021SOL     OW 9678   3.799   0.409   4.724 -0.4575  0.0269  0.7955
 3021SOL    HW1 9679   3.805   0.315   4.742  0.4993  0.0575  0.7006
 3021SOL    HW2 9680   3.817   0.417   4.630  0.7154  0.3975  1.0340
 3022SOL     OW 9681   2.740   5.855   6.339  0.5876 -0.5884 -0.4465
 3022SOL    HW1 9682   2.663   5.812   6.301 -0.0469 -0.8897  1.0822
 3022SOL    HW2 9683   2.718   5.948   6.339  0.1838 -0.6788  0.0316
 3023SOL     OW 9684   3.136   2.787   3.459  0.4719 -0.2469 -0.0911
 3023SOL    HW1 9685   3.069   2.756   3.398  1.4006 -0.3750 -1.0739
 3023SOL    HW2 9686   3.119   2.738   3.539 -0.0624 -0.9491 -0.6117
 3024SOL     OW 9687   6.230   5.753   7.144 -0.1127 -0.0432 -0.3436
 3024SOL    HW1 9688   6.240   5.797   7.228 -1.3212 -1.0768  0.3845
 3024SOL    HW2 9689   6.299   5.789   7.089 -0.3867  1.9327  0.5395
 3025SOL     OW 9690   1.194   5.936   1.352  0.0136 -0.4269  0.3218
 3025SOL    HW1 9691   1.223   5.897   1.435  1.3838 -0.1475 -0.0139
 3025SOL    HW2 9692   1.146   5.866   1.309  2.7905 -1.9851 -0.4593
 3026SOL     OW 9693   6.736   3.915   6.761  0.1429 -0.2136 -0.0618
 3026SOL    HW1 9694   6.692   3.979   6.816  2.1269  0.1155  1.2106
 3026SOL    HW2 9695   6.676   3.903   6.687  0.0890  3.8231 -0.8988
 3027SOL     OW 9696   3.529   6.100   4.350 -0.3863  0.3333 -0.3764
 3027SOL    HW1 9697   3.492   6.175   4.397 -1.0601  0.0482 -0.4340
 3027SOL    HW2 9698   3.588   6.138   4.286  0.4215  0.7392  0.5900
 3028SOL     OW 9699   6.057   0.907   2.757  0.1380 -0.1234 -0.5513
 3028SOL    HW1 9700   6.137   0.865   2.787 -0.9240 -1.3500  0.6686
 3028SOL    HW2 9701   6.029   0.856   2.681  0.8554  0.7465 -1.4361
 3029SOL     OW 9702   6.343   0.139   6.716 -0.4137 -0.6139 -0.0418
 3029SOL    HW1 9703   6.318   0.140   6.808 -1.6874 -2.2269 -0.3182
 3029SOL    HW2 9704   6.276   0.085   6.674  0.0088  0.2719 -1.9632
 3030SOL     OW 9705   0.500   2.831   2.403 -0.2042 -1.0277  0.1071
 3030SOL    HW1 9706   0.460   2.913   2.372  1.4043 -0.5743 -0.8813
 3030SOL    HW2 9707   0.500   2.839   2.498 -0.1112  0.1164  0.0233
 3031SOL     OW 9708   6.535   4.169   2.591  0.8661  0.0102 -0.3229
 3031SOL    HW1 9709   6.536   4.185   2.497 -1.2475 -0.3390 -0.4540
 3031SOL    HW2 9710   6.556   4.255   2.629 -3.6998  1.7692 -1.1207
 3032SOL     OW 9711   5.453   6.861   4.663 -0.1664 -0.6491 -0.1250
 3032SOL    HW1 9712   5.522   6.875   4.728 -0.2709  2.2382 -0.4911
 3032SOL    HW2 9713   5.483   6.787   4.611  2.8958  0.7487 -0.5522
 3033SOL     OW 9714   5.069   3.433   5.633 -0.6025 -0.4319  0.5848
 3033SOL    HW1 9715   4.978   3.462   5.621 -0.2313  1.2662  1.5483
 3033SOL    HW2 9716   5.089   3.384   5.554 -2.0841 -0.0735 -0.0473
 3034SOL     OW 9717   3.913   1.321   4.620  0.0965  0.5372  0.0849
 3034SOL    HW1 9718   3.902   1.341   4.527  1.5741  0.1606 -0.1990
 3034SOL    HW2 9719   3.990   1.264   4.623 -0.4879 -0.2198  1.4603
 3035SOL     OW 9720   4.215   6.684   0.254  0.2468 -0.0475 -0.1505
 3035SOL    HW1 9721   4.268   6.762   0.237  1.0394 -0.7375 -0.9526
 3035SOL    HW2 9722   4.140   6.716   0.303  0.9002  1.1151  0.1213
 3036SOL     OW 9723   7.213   0.208   5.011 -0.1239 -0.1256  0.2809
 3036SOL    HW1 9724   7.167   0.126   5.027  0.4963 -0.6232 -0.3814
 3036SOL    HW2 9725   7.165   0.248   4.938 -2.3408  1.6584  2.5419
 3037SOL     OW 9726   4.089   1.238   6.625 -0.3326 -0.1205 -0.1735
 3037SOL    HW1 9727   3.993   1.247   6.624 -0.4414 -1.0953  0.2121
 3037SOL    HW2 9728   4.104   1.144   6.631  0.6786 -0.0519 -1.2793
 3038SOL     OW 9729   0.919   5.798   0.290 -0.7397 -0.4883 -0.3751
 3038SOL    HW1 9730   0.921   5.712   0.332  0.8697 -1.1904 -1.7525
 3038SOL    HW2 9731   0.980   5.851   0.340 -1.1938 -0.3618  0.0474
 3039SOL     OW 9732   2.335   1.687   3.719  0.0251 -0.3646  0.2066
 3039SOL    HW1 9733   2.248   1.654   3.696  0.5468 -0.4773 -1.8029
 3039SOL    HW2 9734   2.394   1.617   3.693  0.9255  0.9002 -1.3332
 3040SOL     OW 9735   3.094   5.261   5.352 -0.3363 -0.1066 -0.0269
 3040SOL    HW1 9736   3.173   5.276   5.404 -1.0499 -0.9616  1.3594
 3040SOL    HW2 9737   3.032   5.222   5.413 -2.7565  2.8133 -0.4114
 3041SOL     OW 9738   3.622   2.511   5.215 -0.1690 -0.1299  0.1197
 3041SOL    HW1 9739   3.568   2.474   5.285  1.7560 -2.1805  0.6476
 3041SOL    HW2 9740   3.559   2.547   5.153 -2.0303 -0.4098  1.7371
 3042SOL     OW 9741   0.542   0.354   3.347  0.0512  0.5712 -0.2991
 3042SOL    HW1 9742   0.505   0.384   3.430 -2.6063  2.6902 -2.0555
 3042SOL    HW2 9743   0.506   0.266   3.335  0.2391  0.3558  0.6184
 3043SOL     OW 9744   3.763   2.639   3.038  0.4087 -0.4739 -0.1119
 3043SOL    HW1 9745   3.794   2.604   3.121  0.6693  1.8625  0.8500
 3043SOL    HW2 9746   3.843   2.665   2.992  0.2500 -1.4935 -1.0107
 3044SOL     OW 9747   1.857   4.915   2.134  0.1068  0.1269  0.2684
 3044SOL    HW1 9748   1.852   4.842   2.073 -1.3512  0.2572  0.1972
 3044SOL    HW2 9749   1.813   4.883   2.213 -1.9188  1.3983 -0.2818
 3045SOL     OW 9750   5.661   4.974   1.658  0.1160 -0.1408  0.0858
 3045SOL    HW1 9751   5.607   4.948   1.584  0.2414 -0.4819  0.1143
 3045SOL    HW2 9752   5.631   4.919   1.730  0.9716 -0.8240 -0.0669
 3046SOL     OW 9753   2.484   3.259   6.479  0.7376 -0.7528  0.4510
 3046SOL    HW1 9754   2.508   3.321   6.548  1.1004  1.0507 -1.1994
 3046SOL    HW2 9755   2.505   3.173   6.516  2.4092  0.2397  1.9812
 3047SOL     OW 9756   3.119   3.430   7.097 -0.1291  0.1451  0.0486
 3047SOL    HW1 9757   3.080   3.343   7.107  0.2215 -0.0598 -0.3607
 3047SOL    HW2 9758   3.203   3.424   7.143  0.4940 -0.1407 -1.0890
 3048SOL     OW 9759   1.212   7.090   2.786 -0.5201  0.1120  0.3456
 3048SOL    HW1 9760   1.151   7.057   2.852 -0.1924 -2.4864 -0.5426
 3048SOL    HW2 9761   1.294   7.043   2.803 -0.4284 -0.6637 -1.8782
 3049SOL     OW 9762   4.466   2.898   2.489  0.6959  0.4134  0.1076
 3049SOL    HW1 9763   4.536   2.838   2.465  0.9827  0.3700  1.0289
 3049SOL    HW2 9764   4.431   2.862   2.571  0.0660  0.8261  0.0232
 3050SOL     OW 9765   5.179   2.938   6.236 -0.5489  0.5852 -0.2339
 3050SOL    HW1 9766   5.172   3.007   6.170 -0.4470  0.9059  0.0840
 3050SOL    HW2 9767   5.234   2.871   6.196 -0.8325  0.5847 -0.6313
 3051SOL     OW 9768   4.913   5.445   1.072 -0.0063  0.3872  0.9553
 3051SOL    HW1 9769   4.904   5.494   0.990  2.6851 -0.0162  0.3137
 3051SOL    HW2 9770   4.946   5.510   1.135  2.0945 -0.1733  0.5072
 3052SOL     OW 9771   6.287   4.995   3.525 -0.0364  0.0193  0.3721
 3052SOL    HW1 9772   6.291   5.041   3.441  2.7996 -1.9046 -0.7086
 3052SOL    HW2 9773   6.252   4.909   3.503  1.6037 -0.8247  0.9229
 3053SOL     OW 9774   2.194   4.128   7.129 -0.0264  0.3417 -0.8797
 3053SOL    HW1 9775   2.110   4.102   7.167  0.4504  0.0216  0.0192
 3053SOL    HW2 9776   2.201   4.222   7.146 -0.0357  0.2930 -0.5979
 3054SOL     OW 9777   2.424   5.407   6.797 -0.4901 -0.5616  0.5824
 3054SOL    HW1 9778   2.475   5.328   6.778  0.9201  0.4040  0.1298
 3054SOL    HW2 9779   2.470   5.448   6.870  0.7700  1.4475 -1.2016
 3055SOL     OW 9780   7.129   0.803   0.948  0.1342  0.0526 -0.1260
 3055SOL    HW1 9781   7.140   0.884   0.996  0.5597  0.1167 -0.3307
 3055SOL    HW2 9782   7.197   0.745   0.980 -1.5241 -1.0319  1.6506
 3056SOL     OW 9783   5.791   6.761   4.458  0.0992  0.0539 -0.2135
 3056SOL    HW1 9784   5.880   6.796   4.469  0.8078 -1.3569 -1.0924
 3056SOL    HW2 9785   5.771   6.775   4.365 -0.6518  0.4466  0.0003
 3057SOL     OW 9786   3.144   1.369   5.412 -0.9140 -0.1134  0.4171
 3057SOL    HW1 9787   3.189   1.386   5.329 -1.1209  0.1987  0.3677
 3057SOL    HW2 9788   3.153   1.274   5.425  0.0731 -0.0128  0.5928
 3058SOL     OW 9789   5.969   5.739   4.493 -0.0621 -0.0306  0.1266
 3058SOL    HW1 9790   5.883   5.699   4.479  0.0310 -0.6727  1.2462
 3058SOL    HW2 9791   6.014   5.678   4.551  1.3356  0.0735 -0.8106
 3059SOL     OW 9792   1.250   6.174   6.235 -0.2828  0.1458  0.0072
 3059SOL    HW1 9793   1.281   6.089   6.267 -0.5005  0.6076  1.5101
 3059SOL    HW2 9794   1.229   6.158   6.143 -0.7253 -1.5469  0.3614
 3060SOL     OW 9795   1.428   5.026   0.786  0.5651 -0.1971 -0.0720
 3060SOL    HW1 9796   1.409   5.011   0.879  2.4140 -0.2530  0.3489
 3060SOL    HW2 9797   1.421   4.940   0.745  2.1070 -0.6386  0.5220
 3061SOL     OW 9798   2.049   6.162   2.837 -0.9130 -0.2383  0.1988
 3061SOL    HW1 9799   2.047   6.209   2.920 -0.3443  0.8510 -0.3868
 3061SOL    HW2 9800   2.118   6.204   2.786  1.8982 -3.7259  0.7680
 3062SOL     OW 9801   2.364   1.659   5.013 -0.7922  0.4642 -0.0287
 3062SOL    HW1 9802   2.283   1.709   4.999 -1.0260  0.1592  0.2110
 3062SOL    HW2 9803   2.385   1.623   4.927 -1.7247 -0.6617  0.1787
 3063SOL     OW 9804   3.806   5.251   0.132  0.3670  0.2797 -0.7352
 3063SOL    HW1 9805   3.863   5.319   0.095  2.1544 -0.9040 -0.2790
 3063SOL    HW2 9806   3.776   5.201   0.056 -0.3855  1.1409 -1.0117
 3064SOL     OW 9807   6.847   2.430   1.959  0.3641 -0.5205 -0.0649
 3064SOL    HW1 9808   6.848   2.418   2.054  0.6198 -0.7864 -0.1004
 3064SOL    HW2 9809   6.895   2.355   1.924  3.3669  1.3034 -0.2176
 3065SOL     OW 9810   0.301   3.082   1.441  0.2819 -0.1109 -0.2075
 3065SOL    HW1 9811   0.247   3.036   1.377  0.3890 -0.2178 -0.2200
 3065SOL    HW2 9812   0.327   3.163   1.397  0.1282 -0.0571 -0.1997
 3066SOL     OW 9813   5.031   6.326   2.621 -0.2534 -0.3438 -0.5716
 3066SOL    HW1 9814   4.980   6.278   2.557 -1.8051 -3.4129  2.6754
 3066SOL    HW2 9815   5.110   6.274   2.634  0.2851  0.5039 -0.2998
 3067SOL     OW 9816   3.810   1.872   2.338 -0.3991  0.2972 -0.1150
 3067SOL    HW1 9817   3.844   1.784   2.352  0.6223  0.2892 -2.2278
 3067SOL    HW2 9818   3.732   1.877   2.394  0.6376 -1.2024  1.5658
 3068SOL     OW 9819   1.545   6.883   6.042 -0.1995 -0.0875  0.5197
 3068SOL    HW1 9820   1.459   6.901   6.079 -0.0951 -0.3144  0.8718
 3068SOL    HW2 9821   1.607   6.908   6.110  0.1295  2.1189 -0.4837
 3069SOL     OW 9822   1.556   1.640   6.415  0.4900 -0.0710 -0.5683
 3069SOL    HW1 9823   1.567   1.665   6.324 -2.1088  1.0399 -0.6709
 3069SOL    HW2 9824   1.490   1.571   6.414  1.4395 -1.0345  0.3978
 3070SOL     OW 9825   4.021   0.428   3.900  0.1987  0.4507 -0.5825
 3070SOL    HW1 9826   3.963   0.451   3.973  0.5734  2.4623 -0.8751
 3070SOL    HW2 9827   4.024   0.332   3.902 -2.0140  0.3462  0.2893
 3071SOL     OW 9828   6.144   2.563   6.263  0.0902 -0.1982 -0.4482
 3071SOL    HW1 9829   6.171   2.653   6.244 -2.9893  0.4738 -2.1932
 3071SOL    HW2 9830   6.187   2.543   6.346  2.8962  1.9159 -1.2469
 3072SOL     OW 9831   2.686   0.336   6.473 -0.3624  0.0639  0.1411
 3072SOL    HW1 9832   2.723   0.369   6.554  1.2236 -2.7703  0.7171
 3072SOL    HW2 9833   2.707   0.403   6.408  0.9548  1.0668  1.5303
 3073SOL     OW 9834   5.837   2.538   0.615 -0.6120  0.4546  0.2285
 3073SOL    HW1 9835   5.743   2.527   0.604 -0.5765 -0.0638  0.4205
 3073SOL    HW2 9836   5.848   2.631   0.634 -1.2672  0.2106  2.0609
 3074SOL     OW 9837   7.245   2.466   2.570 -0.3999  0.3499 -0.5222
 3074SOL    HW1 9838   7.200   2.397   2.521 -2.8924 -0.3231  2.4032
 3074SOL    HW2 9839   7.232   2.443   2.662  2.2317  2.6124  0.5689
 3075SOL     OW 9840   5.776   6.160   3.093  0.2157 -0.4490  0.0305
 3075SOL    HW1 9841   5.831   6.190   3.166 -0.9085  0.7206  0.4331
 3075SOL    HW2 9842   5.769   6.065   3.107 -0.6868 -0.1435  1.9899
 3076SOL     OW 9843   3.640   1.713   2.709 -0.2533  0.0175  0.3268
 3076SOL    HW1 9844   3.724   1.667   2.708  0.3253  0.9745  1.5276
 3076SOL    HW2 9845   3.580   1.655   2.662  1.2922 -0.2566 -1.4432
 3077SOL     OW 9846   2.328   2.789   4.738 -0.9366 -0.2129  0.1774
 3077SOL    HW1 9847   2.289   2.867   4.779  1.3485  1.3295 -0.3851
 3077SOL    HW2 9848   2.385   2.752   4.806  2.0539  1.7521 -1.0672
 3078SOL     OW 9849   3.306   4.899   3.566 -0.2524 -0.1626 -0.1317
 3078SOL    HW1 9850   3.244   4.895   3.493 -1.9630  0.5568  1.1979
 3078SOL    HW2 9851   3.385   4.937   3.528  0.0368 -2.6328 -2.2693
 3079SOL     OW 9852   5.531   7.040   4.252 -0.2622 -0.4318 -0.0573
 3079SOL    HW1 9853   5.516   7.080   4.337 -1.8776 -1.9003  0.3943
 3079SOL    HW2 9854   5.558   6.950   4.272  0.0564 -0.5839 -1.0973
 3080SOL     OW 9855   5.584   3.086   1.408 -0.0938 -0.0333 -0.0140
 3080SOL    HW1 9856   5.645   3.086   1.481  0.2581  2.6280 -0.2210
 3080SOL    HW2 9857   5.589   2.997   1.372  1.8024 -0.5799  1.4591
 3081SOL     OW 9858   0.370   4.572   2.965  0.3898  0.0685 -0.0874
 3081SOL    HW1 9859   0.315   4.649   2.981  2.1765  1.2215  0.8887
 3081SOL    HW2 9860   0.456   4.598   2.997  1.1302 -2.2506 -0.0513
 3082SOL     OW 9861   5.121   3.214   0.284  0.2144  0.0898  0.0588
 3082SOL    HW1 9862   5.184   3.253   0.345 -0.5712  1.7290 -0.1121
 3082SOL    HW2 9863   5.036   3.227   0.325 -0.3126  1.0525 -1.2677
 3083SOL     OW 9864   2.535   0.141   2.877  0.5922  0.3331  0.0671
 3083SOL    HW1 9865   2.445   0.160   2.849 -0.4733 -3.1143  0.6481
 3083SOL    HW2 9866   2.589   0.195   2.820 -1.7856  1.3449 -1.4096
 3084SOL     OW 9867   1.034   4.194   1.662 -0.3900  0.2440 -0.0654
 3084SOL    HW1 9868   0.949   4.203   1.705 -1.1804 -0.7193 -1.3528
 3084SOL    HW2 9869   1.084   4.269   1.693 -0.4313 -1.0260  3.5097
 3085SOL     OW 9870   2.787   1.707   3.957  0.3057  0.0623 -0.1349
 3085SOL    HW1 9871   2.745   1.627   3.988 -0.9346  0.3090 -1.1076
 3085SOL    HW2 9872   2.861   1.720   4.017  0.5358 -1.7903  0.0437
 3086SOL     OW 9873   1.745   0.345   0.681 -0.3239 -1.0298  0.2180
 3086SOL    HW1 9874   1.724   0.437   0.662  0.3098 -0.8872  0.1956
 3086SOL    HW2 9875   1.808   0.350   0.753 -0.8072 -1.4746  0.6806
 3087SOL     OW 9876   6.660   0.804   2.719 -0.4932  0.0159 -0.0355
 3087SOL    HW1 9877   6.676   0.895   2.743 -0.6974  0.4209 -1.3573
 3087SOL    HW2 9878   6.748   0.767   2.705 -0.2738 -0.6576  2.6815
 3088SOL     OW 9879   2.953   5.648   4.191 -0.2140  0.1251  0.7387
 3088SOL    HW1 9880   2.898   5.599   4.253  0.1812 -0.1114  0.9041
 3088SOL    HW2 9881   2.962   5.588   4.116  0.5367 -0.1898  1.0753
 3089SOL     OW 9882   1.907   1.631   1.096  0.5403 -0.6309 -0.0409
 3089SOL    HW1 9883   1.967   1.694   1.056 -1.8502  0.7708 -1.6645
 3089SOL    HW2 9884   1.847   1.608   1.026 -0.4704 -2.4453  1.3550
 3090SOL     OW 9885   5.166   2.360   1.360 -0.5970  0.1280 -0.1847
 3090SOL    HW1 9886   5.199   2.287   1.308 -0.1803 -0.2854  0.6357
 3090SOL    HW2 9887   5.196   2.341   1.449  0.6071  1.9575 -0.1676
 3091SOL     OW 9888   6.351   4.736   4.250 -0.1163 -0.6018  0.0286
 3091SOL    HW1 9889   6.410   4.792   4.198 -0.5101 -1.6896 -1.6791
 3091SOL    HW2 9890   6.408   4.696   4.315  0.3651  0.9452  0.6111
 3092SOL     OW 9891   6.221   1.869   2.356 -0.1113 -1.1149 -0.0395
 3092SOL    HW1 9892   6.228   1.934   2.286 -0.6851  1.1476  1.8432
 3092SOL    HW2 9893   6.215   1.785   2.311  1.1785  0.0558 -2.6168
 3093SOL     OW 9894   5.088   1.596   6.576  0.5238  0.0167  0.3961
 3093SOL    HW1 9895   5.126   1.509   6.589 -1.5045 -0.7623  1.5972
 3093SOL    HW2 9896   5.023   1.604   6.646 -1.1054  1.4883 -1.1898
 3094SOL     OW 9897   1.897   7.207   6.066 -0.1573  0.1124  0.1671
 3094SOL    HW1 9898   1.810   7.236   6.039 -0.0063 -0.2184 -0.7092
 3094SOL    HW2 9899   1.955   7.279   6.041 -0.2554  0.6618  1.4317
 3095SOL     OW 9900   2.293   3.317   3.456  0.0919  0.4462 -0.0218
 3095SOL    HW1 9901   2.274   3.268   3.536  0.4788  1.8739  0.9777
 3095SOL    HW2 9902   2.355   3.262   3.408 -1.3176 -1.1382 -0.1061
 3096SOL     OW 9903   0.022   6.803   7.051 -0.0517  0.0389 -0.4898
 3096SOL    HW1 9904   0.026   6.799   7.146 -0.5028  1.4637 -0.3934
 3096SOL    HW2 9905   0.112   6.786   7.022  0.0677 -0.4945  0.1697
 3097SOL     OW 9906   4.448   3.345   6.132 -0.4017  0.6344 -0.1134
 3097SOL    HW1 9907   4.507   3.407   6.088  1.3563 -0.4405  0.6310
 3097SOL    HW2 9908   4.501   3.266   6.144 -1.8271 -0.1799  1.1291
 3098SOL     OW 9909   3.250   4.691   2.782 -0.1195 -0.0725 -0.1757
 3098SOL    HW1 9910   3.206   4.628   2.725 -0.0245 -0.9950  0.7333
 3098SOL    HW2 9911   3.284   4.638   2.854 -0.9059  1.1644  1.1530
 3099SOL     OW 9912   3.418   0.230   4.324 -0.5283 -0.1659  0.1084
 3099SOL    HW1 9913   3.510   0.255   4.340  0.1085 -2.3715  0.2599
 3099SOL    HW2 9914   3.384   0.298   4.267  1.4233  0.3694 -0.4907
 3100SOL     OW 9915   6.754   6.958   5.652  0.1101 -0.2010  0.0207
 3100SOL    HW1 9916   6.763   6.863   5.658  0.4034 -0.3248 -1.9244
 3100SOL    HW2 9917   6.839   6.989   5.623 -0.4951  0.4571 -1.1143
 3101SOL     OW 9918   4.041   6.677   3.555 -0.0712 -0.2405  0.4130
 3101SOL    HW1 9919   4.038   6.587   3.523  0.2453  0.7362 -2.6932
 3101SOL    HW2 9920   4.126   6.710   3.525  0.4877  0.7117  2.8101
 3102SOL     OW 9921   2.015   1.228   0.723  0.2062  0.0063  0.2909
 3102SOL    HW1 9922   2.063   1.159   0.769 -0.2334 -1.5348 -1.4426
 3102SOL    HW2 9923   1.960   1.182   0.660 -0.3537  1.9401 -0.7300
 3103SOL     OW 9924   7.173   2.040   6.322  0.9423  0.1050 -0.1717
 3103SOL    HW1 9925   7.147   2.085   6.241 -0.7046 -0.5709 -0.0715
 3103SOL    HW2 9926   7.204   2.110   6.379  1.1093  0.7352 -1.0075
 3104SOL     OW 9927   6.216   0.106   6.253  0.4524  0.1408 -0.1731
 3104SOL    HW1 9928   6.143   0.056   6.215 -0.9975  0.6287  1.8217
 3104SOL    HW2 9929   6.276   0.119   6.180 -0.6414 -1.7418 -1.5097
 3105SOL     OW 9930   1.822   3.200   0.890  0.1980  0.0189  0.5693
 3105SOL    HW1 9931   1.841   3.214   0.983 -1.5183 -1.7950  1.2842
 3105SOL    HW2 9932   1.739   3.246   0.876 -0.0573 -0.5410  0.2148
 3106SOL     OW 9933   1.493   7.140   5.930  0.1896  0.0828 -0.1950
 3106SOL    HW1 9934   1.497   7.054   5.973 -0.9364 -0.9493 -2.0271
 3106SOL    HW2 9935   1.403   7.169   5.943  0.0710  0.1483 -1.1138
 3107SOL     OW 9936   6.189   2.452   4.654 -0.1150  0.0438 -0.0465
 3107SOL    HW1 9937   6.269   2.504   4.644 -0.4668  0.6570  0.2959
 3107SOL    HW2 9938   6.183   2.433   4.747  0.5422 -1.4916 -0.2832
 3108SOL     OW 9939   3.607   1.213   6.451  0.2268  0.0352 -0.6452
 3108SOL    HW1 9940   3.562   1.133   6.425 -2.3440  0.6635  1.3773
 3108SOL    HW2 9941   3.547   1.283   6.424  0.4760  1.0065  1.1899
 3109SOL     OW 9942   5.617   4.128   4.026 -0.0767 -0.0233  0.1202
 3109SOL    HW1 9943   5.546   4.078   4.066  0.1943 -0.0286  0.6025
 3109SOL    HW2 9944   5.690   4.066   4.022  0.1980  0.2675  0.5320
 3110SOL     OW 9945   4.633   7.084   5.654  0.3096  0.9320  0.9927
 3110SOL    HW1 9946   4.578   7.010   5.630 -1.2149  1.6028  2.2179
 3110SOL    HW2 9947   4.721   7.059   5.627 -0.3092 -0.9336  0.5797
 3111SOL     OW 9948   5.650   7.127   4.759  0.0693 -0.3767  0.2983
 3111SOL    HW1 9949   5.724   7.173   4.799  0.9728 -3.4220  2.4667
 3111SOL    HW2 9950   5.679   7.109   4.670 -0.8906  4.1779 -1.2041
 3112SOL     OW 9951   3.547   3.571   6.914 -0.2926  0.1936 -0.1379
 3112SOL    HW1 9952   3.530   3.535   7.002 -0.1593  0.5352  0.0265
 3112SOL    HW2 9953   3.607   3.643   6.929 -1.1409  0.9653 -0.3910
 3113SOL     OW 9954   5.974   6.291   5.257 -0.5352  0.3084  0.0895
 3113SOL    HW1 9955   6.037   6.223   5.282 -0.8946 -0.1063 -0.1256
 3113SOL    HW2 9956   5.992   6.307   5.165 -1.8086 -0.9852 -0.4218
 3114SOL     OW 9957   2.907   5.253   4.476  0.3289 -0.0883  0.0373
 3114SOL    HW1 9958   2.968   5.281   4.407  0.4262 -0.9281 -0.2306
 3114SOL    HW2 9959   2.960   5.256   4.556 -0.0200  1.7137  0.2360
 3115SOL     OW 9960   6.730   2.707   1.864 -0.2267  0.8320 -0.0562
 3115SOL    HW1 9961   6.776   2.785   1.831  0.5684  0.4026  0.0004
 3115SOL    HW2 9962   6.711   2.728   1.955  0.4483  0.7694  0.1079
 3116SOL     OW 9963   2.308   0.482   0.494  0.1905 -1.3424  0.1905
 3116SOL    HW1 9964   2.282   0.409   0.439 -2.6420  0.4274 -1.0668
 3116SOL    HW2 9965   2.238   0.491   0.559  1.3691 -0.7952  1.4738
 3117SOL     OW 9966   1.713   1.061   4.526  0.7075  0.3635 -0.0392
 3117SOL    HW1 9967   1.726   1.068   4.621  2.8327 -0.6663 -0.1840
 3117SOL    HW2 9968   1.646   0.994   4.515  0.4114  0.5273  0.7306
 3118SOL     OW 9969   0.560   5.796   5.308 -0.0807  0.0644  0.8447
 3118SOL    HW1 9970   0.610   5.870   5.272  1.1599 -1.4365 -0.6609
 3118SOL    HW2 9971   0.534   5.826   5.396 -1.4124  3.0418 -0.4287
 3119SOL     OW 9972   2.806   6.744   0.979  0.2916  0.0570 -0.2606
 3119SOL    HW1 9973   2.834   6.652   0.972 -3.8683 -1.4443 -0.2764
 3119SOL    HW2 9974   2.712   6.738   0.994 -0.1066  4.4105  0.0511
 3120SOL     OW 9975   0.924   5.550   0.658 -0.1429  0.1849  0.5762
 3120SOL    HW1 9976   0.831   5.569   0.667 -0.3368 -0.9991  1.4189
 3120SOL    HW2 9977   0.961   5.567   0.745  0.0822 -0.9661  0.7334
 3121SOL     OW 9978   4.770   3.249   7.088  0.3808 -0.1332 -0.0652
 3121SOL    HW1 9979   4.855   3.293   7.090  0.6639 -0.6838  0.2789
 3121SOL    HW2 9980   4.715   3.306   7.035 -0.0225  2.0293  2.4551
 3122SOL     OW 9981   5.323   5.150   3.199 -0.3521 -0.2728  0.0888
 3122SOL    HW1 9982   5.266   5.153   3.123  0.0719  0.3019 -0.2194
 3122SOL    HW2 9983   5.278   5.093   3.261 -1.1011 -0.0790 -0.2663
 3123SOL     OW 9984   6.474   0.656   1.306 -0.8669 -0.0764 -1.2719
 3123SOL    HW1 9985   6.466   0.751   1.298 -1.0740  0.0454  0.1443
 3123SOL    HW2 9986   6.433   0.635   1.390  2.9512 -0.8736  0.6441
 3124SOL     OW 9987   1.782   5.551   2.280  0.0516  0.3708 -0.8708
 3124SOL    HW1 9988   1.805   5.515   2.366 -1.4681 -0.0978 -0.6397
 3124SOL    HW2 9989   1.817   5.640   2.282  1.1109 -0.0406 -0.2489
 3125SOL     OW 9990   4.990   1.951   2.119  0.6591  0.4715 -0.6213
 3125SOL    HW1 9991   5.005   1.964   2.025  0.4766  0.5111 -0.6473
 3125SOL    HW2 9992   4.913   2.006   2.138  0.3657  0.0452 -0.5632
 3126SOL     OW 9993   6.657   4.049   0.574  0.3412 -0.3726  0.3994
 3126SOL    HW1 9994   6.566   4.047   0.542  1.1646 -3.8771 -2.2838
 3126SOL    HW2 9995   6.655   3.993   0.652 -0.0815  1.1346  1.5107
 3127SOL     OW 9996   7.199   3.201   0.640 -0.1857 -0.6346  0.0577
 3127SOL    HW1 9997   7.166   3.121   0.681 -0.7216 -0.6489 -0.3915
 3127SOL    HW2 9998   7.129   3.229   0.581 -0.4995  0.8223  1.0794
 3128SOL     OW 9999   7.105   2.540   6.053 -0.3383  0.0375  0.0807
 3128SOL    HW110000   7.069   2.464   6.008  0.0393  0.6182 -1.2380
 3128SOL    HW210001   7.029   2.582   6.094 -0.5867 -0.8554  0.5597
 3129SOL     OW10002   4.388   0.363   5.792 -0.1770 -0.1456 -0.6309
 3129SOL    HW110003   4.385   0.403   5.706  0.9894 -0.1282 -0.6711
 3129SOL    HW210004   4.481   0.360   5.815 -0.3718 -1.2057  0.1260
 3130SOL     OW10005   6.153   1.640   1.786 -0.6551  0.2832 -0.7212
 3130SOL    HW110006   6.112   1.554   1.797  0.3762 -0.1626 -0.1886
 3130SOL    HW210007   6.226   1.624   1.726 -0.4974  0.7980 -0.6715
 3131SOL     OW10008   2.026   0.859   5.094 -0.0652  0.1766 -0.4353
 3131SOL    HW110009   1.969   0.782   5.098  1.3107 -0.8891 -0.6419
 3131SOL    HW210010   2.076   0.856   5.175  0.3269  0.5973 -0.6574
 3132SOL     OW10011   5.372   6.553   3.458  0.4967 -0.4332 -0.1799
 3132SOL    HW110012   5.290   6.525   3.416 -0.7727 -0.3954  2.1301
 3132SOL    HW210013   5.379   6.646   3.438 -0.1518 -0.3833 -0.1974
 3133SOL     OW10014   0.512   7.065   5.808  0.5940 -0.1986 -0.3369
 3133SOL    HW110015   0.603   7.093   5.802  0.3515  0.4413 -1.2583
 3133SOL    HW210016   0.462   7.137   5.770 -0.1529 -1.2996 -1.5507
 3134SOL     OW10017   1.055   6.432   3.855 -0.0161  0.3956 -0.2855
 3134SOL    HW110018   1.107   6.438   3.775 -0.2204  1.0839 -0.3698
 3134SOL    HW210019   0.969   6.404   3.825 -0.2120  1.0616 -0.3620
 3135SOL     OW10020   7.070   4.119   1.473  0.1502 -0.3665  0.6220
 3135SOL    HW110021   7.077   4.214   1.483 -1.5797  0.1057 -1.8390
 3135SOL    HW210022   7.136   4.097   1.406  2.0124 -1.3139  2.6332
 3136SOL     OW10023   0.756   5.545   0.265 -0.0580 -0.7824 -0.4832
 3136SOL    HW110024   0.845   5.529   0.236  1.1385 -0.7121  2.7848
 3136SOL    HW210025   0.745   5.489   0.342 -2.4108  0.1310 -0.0715
 3137SOL     OW10026   6.729   6.624   0.239 -0.1312 -0.5554 -0.1511
 3137SOL    HW110027   6.655   6.602   0.297 -0.5334  1.1910  0.0307
 3137SOL    HW210028   6.693   6.616   0.151 -0.2684 -0.6128 -0.0909
 3138SOL     OW10029   6.281   4.139   6.705  0.6050  0.7077 -0.6079
 3138SOL    HW110030   6.200   4.115   6.659 -1.4030  2.3133  1.7740
 3138SOL    HW210031   6.286   4.234   6.695  1.7896  0.7123 -0.0527
 3139SOL     OW10032   1.689   1.305   3.555  0.1393  0.0280  0.5114
 3139SOL    HW110033   1.669   1.356   3.633  0.0536 -0.0578  0.5450
 3139SOL    HW210034   1.767   1.254   3.578  0.6027  0.6189  0.2662
 3140SOL     OW10035   6.298   2.063   5.362 -0.0569  0.5894 -0.0796
 3140SOL    HW110036   6.280   2.148   5.321 -2.2792  1.0773  1.7004
 3140SOL    HW210037   6.319   2.085   5.452  1.9254 -0.6335 -0.2053
 3141SOL     OW10038   3.398   0.739   2.505 -0.0314  0.1746  0.1328
 3141SOL    HW110039   3.434   0.756   2.418  0.6250  2.2524  0.7462
 3141SOL    HW210040   3.473   0.746   2.564 -0.7894  0.8318  1.0565
 3142SOL     OW10041   6.858   0.124   5.476  0.3194  0.5198  0.3346
 3142SOL    HW110042   6.836   0.212   5.507 -0.3492  0.0384  1.2946
 3142SOL    HW210043   6.935   0.137   5.421  0.4624  1.6558  0.7563
 3143SOL     OW10044   1.915   2.397   5.907 -0.2330 -0.0525  0.4071
 3143SOL    HW110045   2.001   2.378   5.945 -0.2689  1.8073  1.5623
 3143SOL    HW210046   1.855   2.396   5.982 -0.5605  2.2264  0.2507
 3144SOL     OW10047   0.982   4.037   2.343  0.0678  0.2653 -0.2236
 3144SOL    HW110048   0.999   3.945   2.326 -0.3000  0.0814  0.3650
 3144SOL    HW210049   1.040   4.084   2.283 -0.7361 -0.3387 -1.5119
 3145SOL     OW10050   2.860   4.543   3.363 -0.1043  0.2135 -0.0344
 3145SOL    HW110051   2.818   4.524   3.280  0.1578  2.4014 -0.7226
 3145SOL    HW210052   2.810   4.615   3.400 -0.1929 -0.6957  1.7258
 3146SOL     OW10053   0.443   1.361   6.180 -0.3391  0.2090 -0.2754
 3146SOL    HW110054   0.407   1.291   6.234 -0.4512  1.0678  0.8019
 3146SOL    HW210055   0.532   1.374   6.213  0.1789 -0.3545 -1.4011
 3147SOL     OW10056   6.605   1.901   5.539  0.5430  0.0286  0.3437
 3147SOL    HW110057   6.538   1.840   5.508  0.7897 -0.2937  0.4325
 3147SOL    HW210058   6.668   1.845   5.585  0.3434  0.4589  1.1415
 3148SOL     OW10059   6.574   5.402   6.704 -0.3147  0.2922  0.3714
 3148SOL    HW110060   6.529   5.434   6.782 -1.5457  0.7916 -0.4914
 3148SOL    HW210061   6.603   5.482   6.659 -0.1426  0.0434  0.0388
 3149SOL     OW10062   4.001   4.357   5.170  0.7619  0.3684 -0.5049
 3149SOL    HW110063   4.090   4.342   5.138  0.4168 -1.9061 -0.5632
 3149SOL    HW210064   3.956   4.274   5.156 -1.7296  1.7663 -1.4937
 3150SOL     OW10065   3.843   0.975   1.294  0.0009 -0.0154  0.2889
 3150SOL    HW110066   3.784   1.051   1.289 -0.3082 -0.0736  2.1252
 3150SOL    HW210067   3.905   0.988   1.222 -1.3267  0.8536 -0.7405
 3151SOL     OW10068   5.663   2.766   6.314  0.1357  0.9418  0.6101
 3151SOL    HW110069   5.646   2.673   6.331 -0.5297  0.8271 -0.5883
 3151SOL    HW210070   5.661   2.773   6.219 -1.4299  2.4834  0.7194
 3152SOL     OW10071   4.264   4.141   2.966 -0.4062  0.0266 -0.0014
 3152SOL    HW110072   4.275   4.236   2.959 -1.6864  0.1770 -0.1484
 3152SOL    HW210073   4.291   4.121   3.056  1.3782  0.2755 -0.4398
 3153SOL     OW10074   0.724   7.130   0.767 -0.4360 -0.2643 -0.1500
 3153SOL    HW110075   0.787   7.058   0.759 -0.3785 -0.1479 -0.8100
 3153SOL    HW210076   0.686   7.119   0.855  0.5854 -0.2604  0.3086
 3154SOL     OW10077   4.586   4.713   2.753  0.8132  0.5281  0.1760
 3154SOL    HW110078   4.600   4.661   2.832  0.1046  1.5049  0.9638
 3154SOL    HW210079   4.624   4.798   2.774  3.4722 -0.0698 -1.6878
 3155SOL     OW10080   1.352   3.998   6.428  0.6039  0.1699 -0.4929
 3155SOL    HW110081   1.271   4.046   6.447  0.9573  0.8868 -0.7790
 3155SOL    HW210082   1.334   3.954   6.345  0.1920 -0.4040 -0.1077
 3156SOL     OW10083   0.851   2.144   3.118 -0.1466  0.0960 -0.3428
 3156SOL    HW110084   0.775   2.165   3.063  0.6755  2.3499 -0.6990
 3156SOL    HW210085   0.886   2.063   3.080 -2.0749 -0.7686 -0.4215
 3157SOL     OW10086   2.452   1.981   1.298  0.6374  0.1741 -0.6167
 3157SOL    HW110087   2.411   2.053   1.347  1.1435 -0.8691  1.4072
 3157SOL    HW210088   2.500   2.025   1.228  0.3462  1.7672  0.1340
 3158SOL     OW10089   0.711   0.606   6.153  0.5411  0.3089 -0.2854
 3158SOL    HW110090   0.744   0.581   6.239 -1.5383 -0.7906  0.2583
 3158SOL    HW210091   0.697   0.700   6.159  2.2697  0.5986 -0.1378
 3159SOL     OW10092   0.993   2.951   5.300 -0.1002 -0.2055  0.1254
 3159SOL    HW110093   0.971   2.859   5.286 -0.6920 -0.3286  1.6515
 3159SOL    HW210094   1.088   2.955   5.286 -0.2969 -0.7002 -1.5362
 3160SOL     OW10095   6.626   4.398   4.132  0.4452 -0.2229  0.0734
 3160SOL    HW110096   6.709   4.350   4.136  0.9495  0.4658 -1.4183
 3160SOL    HW210097   6.596   4.401   4.223  2.1045 -0.3995  0.6694
 3161SOL     OW10098   4.051   3.744   0.917  0.2213  0.4307  0.1982
 3161SOL    HW110099   4.006   3.753   1.001  1.5336  1.3509  0.8556
 3161SOL    HW210100   4.057   3.834   0.884 -1.6378 -0.0495 -1.6865
 3162SOL     OW10101   0.743   2.552   2.967  0.2399  0.3891 -0.0844
 3162SOL    HW110102   0.742   2.475   2.911  0.0125 -1.1380  1.9184
 3162SOL    HW210103   0.788   2.524   3.047 -0.4163  2.1374  0.9714
 3163SOL     OW10104   2.816   0.561   5.831 -0.0274  0.2502  0.2229
 3163SOL    HW110105   2.768   0.564   5.914 -1.3094  2.0371 -0.5250
 3163SOL    HW210106   2.770   0.496   5.778 -0.5988  0.7204  0.1298
 3164SOL     OW10107   0.680   5.690   2.315 -0.0813  0.0296 -0.4955
 3164SOL    HW110108   0.660   5.747   2.389  0.1119 -0.4664 -0.0510
 3164SOL    HW210109   0.674   5.747   2.238 -0.8552  0.4200 -0.1583
 3165SOL     OW10110   0.574   5.260   0.591 -0.3385  0.6199 -0.5178
 3165SOL    HW110111   0.538   5.325   0.652 -0.8593  1.3787 -1.6013
 3165SOL    HW210112   0.498   5.224   0.546  0.0548  0.2877 -0.9234
 3166SOL     OW10113   5.881   2.275   6.106  0.3997  0.1378  0.3440
 3166SOL    HW110114   5.884   2.368   6.128  0.0304  0.8455 -2.2432
 3166SOL    HW210115   5.955   2.237   6.153 -0.6590  1.2789  3.1249
 3167SOL     OW10116   1.353   2.177   5.625  0.0584  0.0173 -0.1264
 3167SOL    HW110117   1.411   2.244   5.659 -1.3965  0.6218  1.3032
 3167SOL    HW210118   1.272   2.187   5.675 -0.1893 -2.8825  0.2543
 3168SOL     OW10119   5.108   3.979   1.479  0.2694 -0.3708 -0.1822
 3168SOL    HW110120   5.172   3.930   1.531  1.8609  0.6278 -1.0881
 3168SOL    HW210121   5.060   3.911   1.431  0.8781 -1.1462  0.2713
 3169SOL     OW10122   4.289   4.048   4.251  0.2341 -0.6358  0.0061
 3169SOL    HW110123   4.224   4.114   4.277  0.2107  0.2839 -2.1690
 3169SOL    HW210124   4.255   3.966   4.286 -0.8138  0.1946  1.0188
 3170SOL     OW10125   4.971   6.886   4.688 -0.1271 -0.3826 -0.1138
 3170SOL    HW110126   4.935   6.975   4.693  0.2646 -0.1144 -1.6002
 3170SOL    HW210127   5.064   6.896   4.704  0.2566 -0.2157 -2.2015
 3171SOL     OW10128   6.268   2.377   1.719  0.5031 -0.7371  0.1828
 3171SOL    HW110129   6.174   2.398   1.718  0.1117 -2.3269 -0.6662
 3171SOL    HW210130   6.289   2.364   1.812  0.1058  0.4422  0.4575
 3172SOL     OW10131   5.103   6.353   5.955 -0.5749 -0.1979 -0.1297
 3172SOL    HW110132   5.015   6.315   5.957 -0.9652  0.7114  1.2535
 3172SOL    HW210133   5.089   6.444   5.929  0.0642 -0.2904 -0.8185
 3173SOL     OW10134   1.916   1.175   3.634 -0.3295 -0.2300 -0.0807
 3173SOL    HW110135   1.936   1.099   3.579  1.3240  0.2403 -0.1936
 3173SOL    HW210136   2.001   1.200   3.672 -1.2877 -0.0988  2.1347
 3174SOL     OW10137   5.225   4.824   5.392 -0.5082 -0.6190 -0.4891
 3174SOL    HW110138   5.204   4.733   5.415 -3.0418  0.2261  1.0245
 3174SOL    HW210139   5.139   4.868   5.389  0.5359  1.5128 -2.2843
 3175SOL     OW10140   4.244   4.678   1.541 -0.6976  0.4888  0.4801
 3175SOL    HW110141   4.259   4.596   1.494  0.7252  1.3391 -0.6562
 3175SOL    HW210142   4.156   4.670   1.577 -1.1817 -0.8948 -0.9226
 3176SOL     OW10143   6.633   2.190   5.573  0.0233 -0.3721  0.0420
 3176SOL    HW110144   6.636   2.096   5.556  0.7149 -0.1600 -1.1210
 3176SOL    HW210145   6.619   2.230   5.487 -0.5215  0.5890  0.5500
 3177SOL     OW10146   2.040   1.438   2.682 -0.3011  0.4077  0.1093
 3177SOL    HW110147   2.010   1.527   2.662 -0.2178  0.0457 -1.8779
 3177SOL    HW210148   1.964   1.383   2.665  0.2614 -0.0996 -0.8338
 3178SOL     OW10149   0.383   0.138   3.566 -0.0267 -0.3648 -0.0609
 3178SOL    HW110150   0.370   0.128   3.471 -0.3138  1.3169 -0.2243
 3178SOL    HW210151   0.311   0.195   3.593  1.5552  1.3170  0.7104
 3179SOL     OW10152   2.774   5.562   1.019 -0.1240 -0.5677  0.0741
 3179SOL    HW110153   2.727   5.488   1.057  1.1056 -1.0659  0.6740
 3179SOL    HW210154   2.862   5.529   1.002  0.4090  0.6980  0.2037
 3180SOL     OW10155   3.841   6.639   4.489 -0.0100 -0.3177 -0.6355
 3180SOL    HW110156   3.776   6.625   4.557  0.7624  0.4040  0.2736
 3180SOL    HW210157   3.924   6.644   4.536  0.6578 -0.8216 -1.7350
 3181SOL     OW10158   0.213   5.440   2.515 -0.0256  0.4259  0.8512
 3181SOL    HW110159   0.142   5.385   2.550 -0.1692 -0.5382 -0.8458
 3181SOL    HW210160   0.261   5.382   2.456  1.3718  1.4620  0.9310
 3182SOL     OW10161   4.630   4.547   0.949  0.0569 -0.6333  0.0725
 3182SOL    HW110162   4.636   4.622   1.008  0.6981 -0.0157 -0.7470
 3182SOL    HW210163   4.552   4.563   0.896 -0.9300 -1.5443  1.2006
 3183SOL     OW10164   6.952   5.742   2.363  0.5417 -0.3085 -0.3064
 3183SOL    HW110165   6.865   5.774   2.386  1.2912  0.2841  1.8933
 3183SOL    HW210166   6.998   5.820   2.330 -0.0924 -0.8752 -2.7313
 3184SOL     OW10167   4.106   1.758   3.232 -0.0449  0.6737  0.0433
 3184SOL    HW110168   4.110   1.842   3.277  0.6524  0.5888  0.1608
 3184SOL    HW210169   4.154   1.698   3.289 -0.8628  0.1027  0.1462
 3185SOL     OW10170   5.288   5.467   1.260 -0.3980 -0.2841  0.1910
 3185SOL    HW110171   5.216   5.529   1.278 -1.1341 -1.2047  0.4976
 3185SOL    HW210172   5.339   5.465   1.340  0.7379  1.3163 -0.4331
 3186SOL     OW10173   3.590   4.867   2.549  0.4645  0.3154  0.4660
 3186SOL    HW110174   3.564   4.921   2.624  1.0130 -0.0884  0.9581
 3186SOL    HW210175   3.508   4.831   2.515  0.1883  0.6905  0.7273
 3187SOL     OW10176   3.558   6.840   4.040 -0.3747 -0.1980 -0.4919
 3187SOL    HW110177   3.472   6.802   4.055  0.2062 -1.7171 -0.8185
 3187SOL    HW210178   3.618   6.785   4.090  0.4594  0.6097 -0.5667
 3188SOL     OW10179   0.118   6.462   0.685  0.3974 -0.1087  0.1530
 3188SOL    HW110180   0.140   6.544   0.641  0.6069 -2.0043 -3.7401
 3188SOL    HW210181   0.202   6.432   0.722  0.3981  1.1764  1.2469
 3189SOL     OW10182   6.671   3.527   3.158 -0.2494 -0.4616  0.3034
 3189SOL    HW110183   6.666   3.456   3.094  0.2582  0.0202 -0.2824
 3189SOL    HW210184   6.684   3.482   3.242 -1.2736 -1.1123  0.1368
 3190SOL     OW10185   5.904   1.979   3.856  0.4178 -0.3121  0.5695
 3190SOL    HW110186   5.827   2.025   3.825  0.7002 -1.5696 -2.3761
 3190SOL    HW210187   5.977   2.038   3.837  0.3273  0.4222  2.3451
 3191SOL     OW10188   4.251   0.956   3.378 -0.0306  0.1683 -0.5018
 3191SOL    HW110189   4.174   0.989   3.423 -0.1570  0.9430 -1.2610
 3191SOL    HW210190   4.234   0.862   3.365 -0.9754  0.3913 -0.9281
 3192SOL     OW10191   0.662   5.591   4.587  0.0406  0.0600  0.4335
 3192SOL    HW110192   0.667   5.678   4.626  0.7688 -0.3995  1.3997
 3192SOL    HW210193   0.746   5.550   4.608 -0.1855 -0.7863 -0.2365
 3193SOL     OW10194   0.645   1.335   3.375 -0.5733 -0.1481  0.0228
 3193SOL    HW110195   0.594   1.412   3.350 -0.5205 -0.6906 -1.9010
 3193SOL    HW210196   0.587   1.285   3.432 -0.5601  1.3466  1.4070
 3194SOL     OW10197   1.305   6.041   3.244 -0.1827  0.0739 -0.1063
 3194SOL    HW110198   1.383   6.021   3.297  0.6968  0.0690 -1.3595
 3194SOL    HW210199   1.253   6.099   3.299 -0.2865 -1.5035  1.5645
 3195SOL     OW10200   2.985   4.673   4.757  0.2967  0.1768 -0.5677
 3195SOL    HW110201   3.067   4.705   4.718 -0.2198 -0.5641 -2.3873
 3195SOL    HW210202   3.004   4.582   4.781  0.0084 -0.0303 -1.0912
 3196SOL     OW10203   1.028   1.506   5.733 -0.2286 -0.6144 -0.4047
 3196SOL    HW110204   1.045   1.569   5.663  2.5326  0.2168  0.8572
 3196SOL    HW210205   1.051   1.421   5.695  2.1333 -0.0725 -0.3403
 3197SOL     OW10206   2.182   2.341   5.450 -0.3438 -0.3704  0.2349
 3197SOL    HW110207   2.258   2.295   5.415 -0.7085 -0.6386 -0.2244
 3197SOL    HW210208   2.208   2.433   5.454  0.3877 -0.6008  1.1310
 3198SOL     OW10209   0.556   0.154   1.266 -0.7777 -0.4297  0.6445
 3198SOL    HW110210   0.610   0.092   1.315  0.8343 -1.5464 -2.2593
 3198SOL    HW210211   0.594   0.239   1.285  0.3327 -0.9221  0.7375
 3199SOL     OW10212   6.361   5.559   4.206 -0.1535 -0.0880  0.2313
 3199SOL    HW110213   6.378   5.467   4.185  1.0328  0.4380 -1.3231
 3199SOL    HW210214   6.433   5.583   4.264 -1.3693 -0.5243  2.0195
 3200SOL     OW10215   1.559   3.361   0.940  0.0953  0.0313 -0.0623
 3200SOL    HW110216   1.490   3.312   0.986  0.4171 -0.5295 -0.1656
 3200SOL    HW210217   1.602   3.411   1.009  0.0399 -0.1694  0.1225
 3201SOL     OW10218   2.823   0.059   3.827  0.1206  0.2947  0.1567
 3201SOL    HW110219   2.788   0.044   3.914 -0.5502 -0.4670 -0.2340
 3201SOL    HW210220   2.905   0.009   3.825  0.5531  0.9769  0.6169
 3202SOL     OW10221   1.016   6.220   1.361  0.2659  0.1327  0.5110
 3202SOL    HW110222   1.037   6.136   1.402 -2.4592 -0.3489  1.1228
 3202SOL    HW210223   0.950   6.259   1.418 -2.1843  0.3638 -2.2440
 3203SOL     OW10224   3.738   4.128   4.853  0.2852  0.6064  0.5833
 3203SOL    HW110225   3.805   4.060   4.860  0.5703  1.0084  2.3457
 3203SOL    HW210226   3.737   4.151   4.760  0.1218 -1.8152 -0.0851
 3204SOL     OW10227   2.173   2.030   5.922 -0.5851 -0.0902 -0.7516
 3204SOL    HW110228   2.259   2.023   5.965 -0.8550  2.6463  0.4743
 3204SOL    HW210229   2.132   1.945   5.936  1.2474 -0.8657  0.2327
 3205SOL     OW10230   1.276   5.737   1.548 -0.1016 -0.0061 -0.2706
 3205SOL    HW110231   1.285   5.667   1.483  2.3260  0.5077 -0.5885
 3205SOL    HW210232   1.320   5.703   1.625  2.8721  1.7662 -1.0218
 3206SOL     OW10233   3.853   2.350   6.726 -0.0920 -0.3836 -0.0948
 3206SOL    HW110234   3.780   2.308   6.772  1.1369 -2.2187  0.2917
 3206SOL    HW210235   3.909   2.383   6.795 -1.3180  2.6466 -0.3784
 3207SOL     OW10236   5.599   0.529   3.373  0.2782 -0.3546  0.1989
 3207SOL    HW110237   5.647   0.561   3.297  0.8583 -0.3206  0.5814
 3207SOL    HW210238   5.611   0.434   3.371  1.1021 -0.2682  0.7928
 3208SOL     OW10239   5.043   3.477   2.914  0.2417  0.1215 -0.0878
 3208SOL    HW110240   5.072   3.426   2.839  0.4045  0.8202 -0.5098
 3208SOL    HW210241   5.122   3.524   2.943  0.7882 -1.8744  1.9814
 3209SOL     OW10242   2.839   2.552   2.903  0.3562  0.4639  0.2011
 3209SOL    HW110243   2.833   2.646   2.922 -1.2731  0.4563 -0.1363
 3209SOL    HW210244   2.933   2.535   2.899  0.7724  2.6370 -2.3226
 3210SOL     OW10245   3.539   1.284   3.021 -0.1812  0.2556  0.0419
 3210SOL    HW110246   3.614   1.302   3.076  0.0787  1.7932 -0.7677
 3210SOL    HW210247   3.521   1.367   2.976 -2.2062 -0.1294  0.0353
 3211SOL     OW10248   3.227   1.757   2.593  0.4689 -0.5398  0.1049
 3211SOL    HW110249   3.141   1.751   2.633  0.3176 -0.7042 -0.2425
 3211SOL    HW210250   3.213   1.733   2.502  0.4083  1.9001 -0.6038
 3212SOL     OW10251   1.744   2.488   6.115 -0.2924  0.0831 -0.2194
 3212SOL    HW110252   1.682   2.418   6.136  0.4252 -0.6737 -0.5401
 3212SOL    HW210253   1.712   2.525   6.032 -0.5842  0.0238 -0.1339
 3213SOL     OW10254   2.806   1.250   1.857  0.0902 -0.0006 -0.1991
 3213SOL    HW110255   2.825   1.244   1.763 -1.4839  1.5578 -0.6608
 3213SOL    HW210256   2.775   1.163   1.880  1.0693 -0.5860 -0.9548
 3214SOL     OW10257   6.790   4.520   0.168 -0.3553  0.1641  0.2018
 3214SOL    HW110258   6.769   4.468   0.246  0.6405  0.7382  0.8706
 3214SOL    HW210259   6.816   4.605   0.203 -0.6839  0.6928 -0.8094
 3215SOL     OW10260   3.407   6.495   4.249 -0.4249 -0.0447  0.1956
 3215SOL    HW110261   3.398   6.465   4.159 -0.6479 -0.5924  0.3944
 3215SOL    HW210262   3.424   6.415   4.299 -0.5745  0.2198  0.6734
 3216SOL     OW10263   5.906   3.612   0.161 -0.3870 -0.7153 -0.1499
 3216SOL    HW110264   5.911   3.551   0.235  2.1395 -2.1659 -1.4061
 3216SOL    HW210265   5.879   3.558   0.087 -0.0526  0.1133 -0.8931
 3217SOL     OW10266   6.050   3.713   3.386 -0.1564  0.6705  0.0412
 3217SOL    HW110267   6.034   3.639   3.327  1.8866 -0.3297  0.6669
 3217SOL    HW210268   5.963   3.737   3.418 -0.8310 -2.0732  0.5110
 3218SOL     OW10269   0.078   0.693   5.525 -0.3624 -0.0517  0.1583
 3218SOL    HW110270   0.167   0.710   5.494 -0.3204  1.8156  1.1381
 3218SOL    HW210271   0.086   0.616   5.581  0.3865 -0.6454 -0.7428
 3219SOL     OW10272   6.413   3.121   3.457 -0.1683  0.2993  0.0495
 3219SOL    HW110273   6.461   3.158   3.383  1.7776 -0.3426  0.9260
 3219SOL    HW210274   6.321   3.141   3.438  0.0579 -1.0351 -3.2291
 3220SOL     OW10275   3.314   6.577   4.561 -0.1133  0.0408 -0.4300
 3220SOL    HW110276   3.372   6.515   4.516  0.9565  0.3552  0.4763
 3220SOL    HW210277   3.284   6.636   4.492  1.4041  0.4506 -0.7802
 3221SOL     OW10278   4.445   7.174   6.027 -0.2340  0.3117  0.3819
 3221SOL    HW110279   4.369   7.136   6.072  1.1283 -2.0434  0.9293
 3221SOL    HW210280   4.441   7.138   5.939  1.3290 -1.6947  1.0406
 3222SOL     OW10281   3.593   1.591   1.724  0.1867 -0.0140 -0.7744
 3222SOL    HW110282   3.626   1.524   1.783 -3.4796 -0.8171  0.6265
 3222SOL    HW210283   3.528   1.639   1.776  0.4426  2.6309 -2.6816
 3223SOL     OW10284   5.160   1.390   2.824 -0.2309 -0.2047  0.0490
 3223SOL    HW110285   5.184   1.408   2.915 -3.5583 -0.6889  1.1604
 3223SOL    HW210286   5.183   1.298   2.811  0.8184  0.0295  0.1526
 3224SOL     OW10287   1.470   1.078   4.912 -0.0471  0.0303  0.3645
 3224SOL    HW110288   1.477   1.004   4.852  0.7775  1.3106 -1.2009
 3224SOL    HW210289   1.404   1.051   4.976 -1.1351 -1.3081 -1.2466
 3225SOL     OW10290   1.770   4.086   2.109 -0.0170  0.4022  0.1171
 3225SOL    HW110291   1.676   4.069   2.116  0.2634 -0.9120  1.3097
 3225SOL    HW210292   1.789   4.145   2.181  0.4085 -1.1240  1.3041
 3226SOL     OW10293   4.985   6.829   7.199 -0.3487  0.0334 -0.2659
 3226SOL    HW110294   5.059   6.869   7.245  0.6581 -1.0395 -0.8906
 3226SOL    HW210295   4.908   6.859   7.247  0.4669  1.3048  0.3109
 3227SOL     OW10296   0.377   7.212   4.992 -0.0049  0.0653  0.1548
 3227SOL    HW110297   0.417   7.299   4.992 -0.9469  0.5631 -1.5456
 3227SOL    HW210298   0.397   7.177   4.905 -0.7876 -0.8605  0.3321
 3228SOL     OW10299   0.230   4.144   5.508  0.8082  0.2301  0.0455
 3228SOL    HW110300   0.148   4.107   5.477  0.4638  0.0329  1.1560
 3228SOL    HW210301   0.205   4.223   5.555  1.3995  1.0211 -0.9373
 3229SOL     OW10302   1.902   5.663   1.151  0.0149 -0.3776 -0.3384
 3229SOL    HW110303   1.923   5.671   1.244  1.7220 -1.1802 -0.6108
 3229SOL    HW210304   1.918   5.750   1.115  1.7508 -0.6207 -0.2708
 3230SOL     OW10305   0.454   2.678   2.922  0.0336  0.3431 -0.2173
 3230SOL    HW110306   0.528   2.632   2.963 -0.7007 -0.3343  0.3669
 3230SOL    HW210307   0.485   2.696   2.834  0.0695 -2.0475 -0.7775
 3231SOL     OW10308   3.179   6.791   3.469 -0.3027  0.6162  0.4099
 3231SOL    HW110309   3.175   6.787   3.374  1.7612 -2.4912  0.3295
 3231SOL    HW210310   3.216   6.878   3.487  2.4979  0.0370 -1.8649
 3232SOL     OW10311   2.475   0.714   1.827  0.1201  0.0104 -0.6098
 3232SOL    HW110312   2.519   0.778   1.772  1.0752  0.1130  0.2397
 3232SOL    HW210313   2.409   0.765   1.875 -1.6535 -0.3071 -2.5774
 3233SOL     OW10314   4.147   5.739   6.843 -0.1175 -0.1764 -0.1117
 3233SOL    HW110315   4.213   5.798   6.806  0.4341  0.1556  1.3004
 3233SOL    HW210316   4.065   5.788   6.839  0.4206  0.9613  1.5077
 3234SOL     OW10317   3.330   2.179   4.365  0.3316  0.2099  0.3640
 3234SOL    HW110318   3.268   2.244   4.332  0.1267  0.5196  1.3088
 3234SOL    HW210319   3.279   2.127   4.427  1.1617  0.9446  1.7307
 3235SOL     OW10320   2.090   6.315   5.751  0.2405 -0.5131 -0.4842
 3235SOL    HW110321   2.112   6.334   5.660  0.6012  1.5169 -0.0224
 3235SOL    HW210322   2.164   6.350   5.801  0.5562 -2.5079  0.5817
 3236SOL     OW10323   5.807   5.908   2.778 -0.0516  0.0716 -0.3276
 3236SOL    HW110324   5.890   5.925   2.733 -0.8634  0.9514 -1.5643
 3236SOL    HW210325   5.799   5.813   2.779  1.6505 -0.1168  1.1442
 3237SOL     OW10326   3.867   3.988   1.090  1.2220 -0.2748  0.1885
 3237SOL    HW110327   3.897   3.990   0.999 -0.6483  0.1350 -0.4521
 3237SOL    HW210328   3.787   4.040   1.090  1.3651  0.0148  2.1591
 3238SOL     OW10329   1.302   2.033   1.657 -0.0724 -0.0148 -0.7997
 3238SOL    HW110330   1.312   2.118   1.700 -0.4232 -0.0052 -0.7357
 3238SOL    HW210331   1.371   2.031   1.591  0.5073 -0.0521 -0.2038
 3239SOL     OW10332   0.912   7.052   2.730 -0.2710 -0.0298  0.3244
 3239SOL    HW110333   0.993   7.083   2.690 -0.9320 -0.1506 -1.1670
 3239SOL    HW210334   0.843   7.085   2.673 -1.2635 -0.1886  1.4043
 3240SOL     OW10335   6.346   6.137   2.138 -0.0676  0.3371  0.1508
 3240SOL    HW110336   6.258   6.131   2.175 -0.7803 -1.7640 -1.6787
 3240SOL    HW210337   6.349   6.224   2.098 -1.5702  0.1975 -0.3160
 3241SOL     OW10338   6.667   5.031   5.685  0.3142 -0.4268 -0.4585
 3241SOL    HW110339   6.627   5.068   5.764  0.1794  1.2632 -1.2593
 3241SOL    HW210340   6.731   5.097   5.657  0.7136 -1.2134 -1.4869
 3242SOL     OW10341   2.683   5.673   5.399  0.0909 -0.0155 -0.0590
 3242SOL    HW110342   2.599   5.626   5.402 -0.0674  0.2249 -0.6826
 3242SOL    HW210343   2.743   5.612   5.357  0.1910 -0.1179  0.2266
 3243SOL     OW10344   3.919   7.197   0.065 -0.4309  0.1054 -0.2103
 3243SOL    HW110345   3.968   7.138   0.122  1.2433 -0.7401 -2.3556
 3243SOL    HW210346   3.985   7.233   0.005 -1.5702  3.4160  0.3286
 3244SOL     OW10347   2.976   0.991   2.140  1.2472  0.3169 -0.3291
 3244SOL    HW110348   3.040   0.963   2.205  2.7241  1.9712 -1.0191
 3244SOL    HW210349   2.991   1.084   2.129  0.7858  0.1692 -2.7677
 3245SOL     OW10350   0.141   4.018   6.037  0.2573  0.7339 -0.5856
 3245SOL    HW110351   0.070   4.049   5.981 -0.3127 -0.2039 -0.4174
 3245SOL    HW210352   0.106   4.024   6.126  0.9875  1.7801 -0.3571
 3246SOL     OW10353   4.260   4.583   0.522 -0.6078  0.0769  0.2390
 3246SOL    HW110354   4.169   4.561   0.506 -0.5608  0.4705 -0.6044
 3246SOL    HW210355   4.285   4.641   0.450  0.7766 -1.3258 -0.4756
 3247SOL     OW10356   3.674   3.762   4.785 -0.4624 -0.0112 -0.5255
 3247SOL    HW110357   3.672   3.679   4.833  0.6927 -0.5698 -1.4028
 3247SOL    HW210358   3.693   3.737   4.695  2.4190  1.3148 -0.4054
 3248SOL     OW10359   2.217   5.443   2.994 -0.5517 -0.5074 -0.0268
 3248SOL    HW110360   2.285   5.386   3.029 -0.0804 -0.9535 -1.5746
 3248SOL    HW210361   2.188   5.496   3.069  0.6766 -1.1181  0.9069
 3249SOL     OW10362   6.390   4.577   2.023 -0.3782 -0.3384  0.1963
 3249SOL    HW110363   6.449   4.507   1.995 -1.0588 -0.8509  0.0136
 3249SOL    HW210364   6.429   4.611   2.103 -0.2278 -1.1786  0.4933
 3250SOL     OW10365   2.162   6.799   0.944  0.2620  0.1570  0.3703
 3250SOL    HW110366   2.138   6.889   0.964 -3.2579 -0.6173  0.4219
 3250SOL    HW210367   2.172   6.757   1.030  1.2865  0.3539  0.3506
 3251SOL     OW10368   0.498   1.258   5.709 -0.0862 -0.5258 -0.0305
 3251SOL    HW110369   0.521   1.341   5.751 -2.9348  0.6932 -0.6597
 3251SOL    HW210370   0.457   1.207   5.779  0.9632 -1.1337  0.1632
 3252SOL     OW10371   3.215   1.515   7.156 -0.7287  0.8714 -0.2636
 3252SOL    HW110372   3.268   1.527   7.234  1.0104  0.5581 -1.3565
 3252SOL    HW210373   3.261   1.563   7.087 -1.6171  0.2239 -1.3601
 3253SOL     OW10374   2.804   6.303   5.879 -0.1301 -0.4473 -0.1548
 3253SOL    HW110375   2.865   6.373   5.853 -0.1862 -0.9249 -1.6501
 3253SOL    HW210376   2.820   6.292   5.973  1.2053  0.2975 -0.2632
 3254SOL     OW10377   3.131   6.889   5.405  0.6177  0.7105 -0.9805
 3254SOL    HW110378   3.206   6.860   5.353  0.3787 -1.5527 -0.1809
 3254SOL    HW210379   3.167   6.954   5.465  2.1908 -0.8936 -0.0765
 3255SOL     OW10380   0.982   2.138   7.024  0.0902  0.7966  0.0108
 3255SOL    HW110381   0.946   2.052   7.003  1.3507  0.4486 -0.8712
 3255SOL    HW210382   1.023   2.127   7.109  0.5452  0.4113 -0.2510
 3256SOL     OW10383   6.098   0.714   2.291 -0.0619 -0.0781  0.3331
 3256SOL    HW110384   6.185   0.753   2.292 -0.0444  0.2281 -2.6184
 3256SOL    HW210385   6.113   0.624   2.260 -0.7334 -0.2099  0.3819
 3257SOL     OW10386   7.215   5.939   1.295 -0.1305  0.3921 -0.2770
 3257SOL    HW110387   7.240   5.910   1.383 -1.1314 -1.0281 -0.4265
 3257SOL    HW210388   7.121   5.922   1.290  0.0321 -0.1878 -1.8458
 3258SOL     OW10389   0.765   6.247   0.841 -0.3916  0.3944  1.1077
 3258SOL    HW110390   0.831   6.227   0.908  0.6254 -0.5261 -0.1148
 3258SOL    HW210391   0.807   6.222   0.759 -1.5420  1.6637  0.0967
 3259SOL     OW10392   5.556   2.010   3.531  0.1320  0.0353  0.1435
 3259SOL    HW110393   5.463   1.993   3.519  0.2011  0.6957 -1.5970
 3259SOL    HW210394   5.601   1.940   3.483  0.5423 -0.2197  0.8804
 3260SOL     OW10395   3.106   5.683   3.250  0.0896  0.1875 -0.1847
 3260SOL    HW110396   3.023   5.729   3.260 -0.3020 -0.0942 -1.8287
 3260SOL    HW210397   3.082   5.590   3.249  0.5501  0.0577  0.3206
 3261SOL     OW10398   6.350   5.733   4.443  0.2651  0.4276 -0.4271
 3261SOL    HW110399   6.286   5.737   4.372  1.7440 -0.9672 -1.9119
 3261SOL    HW210400   6.302   5.764   4.520 -1.7147  0.9264 -1.7926
 3262SOL     OW10401   4.284   3.907   2.145  0.1704  0.3878 -0.2128
 3262SOL    HW110402   4.265   3.992   2.104  0.0344  0.8584  0.7855
 3262SOL    HW210403   4.200   3.879   2.180  0.6065  0.8317  1.2431
 3263SOL     OW10404   3.103   3.524   2.729  0.1960 -0.2429 -0.3642
 3263SOL    HW110405   3.107   3.498   2.637 -0.7168  1.2706 -0.8726
 3263SOL    HW210406   3.173   3.475   2.771  1.3682 -0.1236 -2.0845
 3264SOL     OW10407   6.602   1.209   3.556  0.1733 -0.1706  0.0261
 3264SOL    HW110408   6.664   1.281   3.563  1.2167 -1.0902  0.7099
 3264SOL    HW210409   6.527   1.245   3.508 -0.0149  1.7909  1.6473
 3265SOL     OW10410   1.462   5.530   0.281 -0.0380  0.0331 -0.2761
 3265SOL    HW110411   1.481   5.560   0.370 -0.0545  1.4310 -0.7088
 3265SOL    HW210412   1.521   5.456   0.267  0.1195 -0.0669  0.8151
 3266SOL     OW10413   1.928   3.297   6.300  0.6784 -0.5541 -0.2616
 3266SOL    HW110414   1.975   3.299   6.217  0.2615  0.4126 -0.4858
 3266SOL    HW210415   1.879   3.379   6.302  0.6298 -0.5943  0.9129
 3267SOL     OW10416   7.159   5.099   2.537 -0.1412  0.3660  0.3044
 3267SOL    HW110417   7.157   5.194   2.545 -0.2691  0.4360 -0.4373
 3267SOL    HW210418   7.242   5.081   2.493 -0.8486  0.2768 -1.0538
 3268SOL     OW10419   6.643   0.655   6.920  0.0792 -0.1481 -0.1812
 3268SOL    HW110420   6.635   0.741   6.880 -1.0446  0.5847  1.4991
 3268SOL    HW210421   6.646   0.594   6.846 -1.4495  1.1517 -1.3829
 3269SOL     OW10422   3.250   2.052   1.200  0.0228  0.1619  0.1485
 3269SOL    HW110423   3.207   2.010   1.275 -0.0282 -1.7561 -0.8921
 3269SOL    HW210424   3.178   2.071   1.139  0.3828 -1.2963 -0.7748
 3270SOL     OW10425   0.354   3.781   4.125 -0.5110 -0.4621  0.6196
 3270SOL    HW110426   0.446   3.755   4.129 -0.5793 -1.0426 -0.9443
 3270SOL    HW210427   0.333   3.808   4.214  1.4623  0.7076  0.7900
 3271SOL     OW10428   5.585   1.477   1.277  0.0928  0.0117  0.0333
 3271SOL    HW110429   5.537   1.426   1.212  1.4385 -1.0435 -0.1666
 3271SOL    HW210430   5.649   1.526   1.227 -1.0187  1.7709  0.2559
 3272SOL     OW10431   7.205   0.819   4.273 -0.1554 -0.6561  0.3226
 3272SOL    HW110432   7.124   0.799   4.225 -0.6588  0.9551  0.4461
 3272SOL    HW210433   7.177   0.875   4.345  0.8931 -1.3108  1.2789
 3273SOL     OW10434   2.870   4.090   0.395  0.2192 -0.2552 -0.0056
 3273SOL    HW110435   2.778   4.063   0.396  0.3304 -0.8629 -2.0587
 3273SOL    HW210436   2.911   4.035   0.329  2.0165  0.2069  0.6685
 3274SOL     OW10437   5.429   5.296   0.664 -0.4474  0.0018  0.7040
 3274SOL    HW110438   5.367   5.328   0.729  1.1744  0.1845  2.2449
 3274SOL    HW210439   5.513   5.296   0.710  0.5075 -1.2882 -0.9520
 3275SOL     OW10440   7.098   4.800   2.416  0.1579  0.2285  0.0140
 3275SOL    HW110441   7.101   4.896   2.407  0.4743  0.3038  0.8229
 3275SOL    HW210442   7.155   4.768   2.347 -0.4837  0.5921 -0.7002
 3276SOL     OW10443   1.934   0.241   0.336  0.2261 -0.3147 -0.2466
 3276SOL    HW110444   1.946   0.198   0.420 -1.1878 -2.6765 -1.1458
 3276SOL    HW210445   1.841   0.265   0.334  0.5261  0.8674 -0.6356
 3277SOL     OW10446   0.064   2.867   2.525 -0.4200  0.2468 -0.7190
 3277SOL    HW110447   0.114   2.892   2.603 -0.7449 -1.1596 -0.0252
 3277SOL    HW210448   0.084   2.774   2.512 -1.5759  0.0701 -1.3934
 3278SOL     OW10449   1.318   1.035   4.246  0.3648  0.1824  0.3684
 3278SOL    HW110450   1.377   1.109   4.230  1.5362 -0.8038 -0.0987
 3278SOL    HW210451   1.239   1.057   4.197  1.0619  0.7036 -0.5718
 3279SOL     OW10452   4.151   0.630   0.895  0.0692 -0.1484 -0.3112
 3279SOL    HW110453   4.227   0.685   0.873 -1.0553  0.6710 -2.3792
 3279SOL    HW210454   4.189   0.556   0.942  2.0303  0.7419 -0.3737
 3280SOL     OW10455   3.260   7.180   0.106  0.5256  0.0875 -0.1485
 3280SOL    HW110456   3.182   7.161   0.054  0.9529 -2.1222 -0.1117
 3280SOL    HW210457   3.229   7.179   0.196  0.3942  0.3507 -0.1913
 3281SOL     OW10458   3.258   3.344   1.927  0.2976  0.1871  0.1128
 3281SOL    HW110459   3.207   3.406   1.876  0.4306  1.0992  1.0379
 3281SOL    HW210460   3.349   3.360   1.900  0.2604 -0.1278 -0.1928
 3282SOL     OW10461   4.251   2.635   4.337 -0.2272 -0.7998  0.7162
 3282SOL    HW110462   4.181   2.576   4.362  0.0487 -0.4756  2.3511
 3282SOL    HW210463   4.331   2.587   4.355 -0.0002  0.0038  1.9711
 3283SOL     OW10464   2.729   5.213   1.510  0.5660 -0.0947 -0.6145
 3283SOL    HW110465   2.767   5.175   1.431  2.4356  0.3404  0.0162
 3283SOL    HW210466   2.784   5.180   1.581  1.4975  2.6980  0.0733
 3284SOL     OW10467   1.711   2.678   0.709 -0.1042 -0.0130 -0.2619
 3284SOL    HW110468   1.771   2.685   0.634  1.5182  0.4238  1.0106
 3284SOL    HW210469   1.743   2.602   0.758 -2.6674 -1.8430 -1.2390
 3285SOL     OW10470   2.933   0.008   4.980 -0.2914 -0.0645 -0.2907
 3285SOL    HW110471   2.933   0.020   4.885 -1.3052 -1.0903 -0.4433
 3285SOL    HW210472   3.017  -0.033   4.999 -0.0139  0.2946 -0.7162
 3286SOL     OW10473   2.114   1.862   1.344 -0.3731  0.4679 -0.2753
 3286SOL    HW110474   2.049   1.807   1.387 -0.2873  0.5700 -0.0111
 3286SOL    HW210475   2.181   1.801   1.314 -0.5171  0.3780 -0.4150
 3287SOL     OW10476   5.764   6.225   1.091 -0.3067 -0.3511 -1.4185
 3287SOL    HW110477   5.716   6.308   1.091 -1.1123 -0.7469  0.6417
 3287SOL    HW210478   5.700   6.160   1.122  1.5675 -0.7897  2.0841
 3288SOL     OW10479   6.336   0.773   4.346  0.0844  0.2247 -0.3544
 3288SOL    HW110480   6.248   0.774   4.382  0.2122  0.7686 -0.0465
 3288SOL    HW210481   6.350   0.682   4.318  0.6848 -0.7378  2.7502
 3289SOL     OW10482   1.534   6.106   1.665 -0.0411 -0.0710  0.0459
 3289SOL    HW110483   1.464   6.145   1.612  0.9248  0.1810 -1.0992
 3289SOL    HW210484   1.589   6.060   1.601  1.9508  1.3999  0.6179
 3290SOL     OW10485   5.340   2.820   3.890  0.2235 -0.4642 -0.0388
 3290SOL    HW110486   5.415   2.765   3.867  0.0482 -1.0772  0.7847
 3290SOL    HW210487   5.378   2.906   3.909  0.6569 -0.6451 -0.0740
 3291SOL     OW10488   4.178   2.382   2.514  0.0523 -0.3197  0.4939
 3291SOL    HW110489   4.261   2.338   2.501  0.0192 -0.0660 -0.6463
 3291SOL    HW210490   4.126   2.321   2.567  0.9132 -0.5159  1.1276
 3292SOL     OW10491   1.739   3.801   0.284  0.1730  0.6772  0.4291
 3292SOL    HW110492   1.801   3.802   0.211  0.5912 -1.0202  0.7214
 3292SOL    HW210493   1.684   3.724   0.269 -1.1214  1.4943  0.8024
 3293SOL     OW10494   3.228   1.671   2.338 -0.2533 -0.9017  0.5660
 3293SOL    HW110495   3.204   1.742   2.278  1.1706 -1.2264 -0.4532
 3293SOL    HW210496   3.150   1.616   2.343 -0.6683 -0.4280 -0.3760
 3294SOL     OW10497   4.154   5.085   1.653  0.3966  0.2372 -0.4216
 3294SOL    HW110498   4.209   5.052   1.582  2.3492 -1.2589  1.6215
 3294SOL    HW210499   4.130   5.173   1.626  2.3620  0.3156 -2.2277
 3295SOL     OW10500   1.615   6.296   3.901 -0.5121 -0.2299 -0.2877
 3295SOL    HW110501   1.582   6.209   3.922  0.1486 -0.0824  1.5741
 3295SOL    HW210502   1.547   6.335   3.846 -1.1805 -1.6154 -0.4897
 3296SOL     OW10503   0.589   1.274   1.882  0.2423  0.1697  0.4517
 3296SOL    HW110504   0.637   1.246   1.960 -0.1077 -1.7174  0.0426
 3296SOL    HW210505   0.498   1.255   1.902 -0.2703  2.6099  0.7518
 3297SOL     OW10506   3.232   0.663   5.539 -0.2274 -0.0417 -0.0019
 3297SOL    HW110507   3.215   0.716   5.617 -1.0103  1.5830 -1.2301
 3297SOL    HW210508   3.279   0.586   5.573 -0.2246  0.7741  2.0108
 3298SOL     OW10509   3.975   5.848   0.852  0.1810 -0.3522  0.0042
 3298SOL    HW110510   3.976   5.912   0.780  0.8715  0.3945  0.6482
 3298SOL    HW210511   3.944   5.767   0.812 -0.5199  0.3311 -0.8893
 3299SOL     OW10512   6.658   1.253   5.987 -0.0799 -0.1770  0.5389
 3299SOL    HW110513   6.707   1.315   5.933  0.2866 -1.5894 -0.8157
 3299SOL    HW210514   6.717   1.232   6.060  1.5795 -2.0898 -1.2228
 3300SOL     OW10515   5.061   4.145   0.167 -0.2012  0.1747 -0.0412
 3300SOL    HW110516   5.035   4.115   0.079 -0.0521  0.7613 -0.2897
 3300SOL    HW210517   5.085   4.064   0.213 -0.9568 -0.2155 -0.3109
 3301SOL     OW10518   3.054   7.140   6.329 -0.1199 -0.0978 -0.3638
 3301SOL    HW110519   3.001   7.127   6.250  0.9528  0.0143 -1.1290
 3301SOL    HW210520   3.132   7.086   6.315  0.0857 -0.0730  0.6272
 3302SOL     OW10521   7.235   1.634   1.771  0.2580 -0.0093  0.0389
 3302SOL    HW110522   7.268   1.677   1.849 -1.1975 -2.2273  1.9949
 3302SOL    HW210523   7.258   1.694   1.699  1.4776  2.1961  2.1307
 3303SOL     OW10524   1.846   1.501   5.364 -0.4022  0.0732  0.1493
 3303SOL    HW110525   1.876   1.508   5.455  1.3710 -1.2887 -0.2829
 3303SOL    HW210526   1.808   1.587   5.345  1.9633  1.4689  1.2314
 3304SOL     OW10527   0.178   6.497   5.729  0.0038  0.0556 -0.5176
 3304SOL    HW110528   0.220   6.429   5.782 -0.6297 -0.0554 -0.1407
 3304SOL    HW210529   0.096   6.516   5.775 -0.7798 -0.3581 -1.6761
 3305SOL     OW10530   3.925   5.753   4.698 -0.4945  0.1198 -0.3753
 3305SOL    HW110531   4.020   5.746   4.705 -0.3705  0.5188 -1.4860
 3305SOL    HW210532   3.894   5.759   4.788  0.4757 -0.6835  0.0293
 3306SOL     OW10533   1.709   4.614   5.657  0.0969 -0.1707  0.5894
 3306SOL    HW110534   1.690   4.544   5.595  0.0226  1.0944 -0.8779
 3306SOL    HW210535   1.626   4.633   5.700  0.0027 -0.5800  0.5927
 3307SOL     OW10536   3.201   2.944   2.601 -0.5698  0.2184 -0.5368
 3307SOL    HW110537   3.200   3.019   2.660  1.0377 -1.0123  1.1475
 3307SOL    HW210538   3.281   2.955   2.550 -0.8760  0.1825 -1.0299
 3308SOL     OW10539   2.263   2.491   4.646  0.1792 -0.2721 -0.5698
 3308SOL    HW110540   2.349   2.463   4.613  0.4510 -0.4238  0.2453
 3308SOL    HW210541   2.268   2.476   4.740 -0.7197 -0.2000 -0.5087
 3309SOL     OW10542   0.337   3.515   0.282  0.3535 -0.1930 -0.0315
 3309SOL    HW110543   0.253   3.487   0.320 -0.5875  1.5621 -0.6789
 3309SOL    HW210544   0.355   3.600   0.323  1.2993 -0.0824 -0.6387
 3310SOL     OW10545   0.630   4.902   0.573  0.1195  0.2481 -0.2833
 3310SOL    HW110546   0.550   4.899   0.520  1.4314 -1.6156 -2.3713
 3310SOL    HW210547   0.698   4.932   0.512  1.2271  0.6593  1.1046
 3311SOL     OW10548   1.236   0.559   3.543 -0.1495 -0.6937 -0.0177
 3311SOL    HW110549   1.157   0.612   3.537  0.7006  0.6595  0.3966
 3311SOL    HW210550   1.226   0.510   3.625  0.0380  0.5037  0.7411
 3312SOL     OW10551   6.277   0.776   3.445 -0.3450  0.1448  0.0168
 3312SOL    HW110552   6.307   0.786   3.355 -0.2163  0.6244  0.1064
 3312SOL    HW210553   6.291   0.862   3.484  0.6108 -0.3497  0.7961
 3313SOL     OW10554   5.304   5.035   2.826 -0.2885  0.3455 -0.3163
 3313SOL    HW110555   5.374   5.048   2.762 -1.7476  0.9354 -1.9076
 3313SOL    HW210556   5.262   4.953   2.799 -1.7710  1.2905 -1.0339
 3314SOL     OW10557   3.938   5.618   0.699  0.3409  0.1293 -0.2466
 3314SOL    HW110558   4.021   5.570   0.692  0.4668  0.4811 -1.3194
 3314SOL    HW210559   3.886   5.586   0.625 -1.3392 -1.6550  1.5683
 3315SOL     OW10560   0.621   2.724   2.639 -0.0267 -0.2633  0.3957
 3315SOL    HW110561   0.693   2.784   2.660  0.1154 -1.1337  2.5474
 3315SOL    HW210562   0.653   2.675   2.563  0.0933  1.9076 -1.0376
 3316SOL     OW10563   2.945   2.830   4.616  0.6348  0.8171 -0.0391
 3316SOL    HW110564   2.868   2.794   4.661  0.7155  0.2254 -0.3630
 3316SOL    HW210565   2.938   2.925   4.628 -1.4897  1.0034 -2.1570
 3317SOL     OW10566   3.073   0.580   3.483 -0.3606  0.5510 -0.2335
 3317SOL    HW110567   3.067   0.487   3.505  0.1922  0.4070 -0.6731
 3317SOL    HW210568   3.095   0.623   3.566  0.0482  0.2109 -0.1634
 3318SOL     OW10569   0.844   5.192   4.535  0.3063 -0.1717  0.2738
 3318SOL    HW110570   0.844   5.136   4.613 -0.2820 -1.2309 -0.4509
 3318SOL    HW210571   0.895   5.142   4.470  0.8053  0.7050 -0.0209
 3319SOL     OW10572   5.633   3.899   1.783 -0.0735 -0.4782 -0.1843
 3319SOL    HW110573   5.683   3.971   1.819 -0.2409  0.1985 -1.2548
 3319SOL    HW210574   5.637   3.912   1.688  0.0861 -2.0021 -0.4153
 3320SOL     OW10575   4.947   1.677   6.924  0.6622 -0.0693 -0.7576
 3320SOL    HW110576   4.918   1.591   6.952  0.2429  0.6775  1.2947
 3320SOL    HW210577   4.908   1.689   6.837 -0.8752 -1.1665 -0.2491
 3321SOL     OW10578   6.179   1.921   1.297  1.2802 -0.1073  0.0239
 3321SOL    HW110579   6.229   1.846   1.265  1.6785 -1.4265  3.3064
 3321SOL    HW210580   6.238   1.965   1.358 -0.0014  1.0958  0.4568
 3322SOL     OW10581   5.397   0.008   3.553  0.1397 -0.6555  0.1216
 3322SOL    HW110582   5.426  -0.021   3.639  0.4936  0.4417  0.3841
 3322SOL    HW210583   5.332  -0.057   3.526  0.6318 -1.4610  0.8466
 3323SOL     OW10584   0.970   1.703   4.907  0.2233 -0.1434 -0.2995
 3323SOL    HW110585   0.896   1.732   4.854 -0.4527 -1.6424 -0.2344
 3323SOL    HW210586   1.043   1.697   4.845 -0.7407 -2.6200 -1.3191
 3324SOL     OW10587   3.429   6.311   1.176  0.2212 -0.2905 -0.1041
 3324SOL    HW110588   3.516   6.287   1.144  1.4680 -0.2586  2.9079
 3324SOL    HW210589   3.422   6.405   1.157  1.2136 -0.1133  0.3605
 3325SOL     OW10590   5.803   3.034   4.703  0.1784  0.0772 -0.3742
 3325SOL    HW110591   5.811   2.947   4.742 -0.0597  0.9766  1.8223
 3325SOL    HW210592   5.888   3.049   4.660 -0.2446 -1.7155 -1.9395
 3326SOL     OW10593   0.190   5.078   1.818  0.1954  0.0291  0.3605
 3326SOL    HW110594   0.171   5.137   1.891  0.3264 -1.0353  1.2879
 3326SOL    HW210595   0.286   5.072   1.816  0.1741 -0.3505  0.4398
 3327SOL     OW10596   6.368   4.411   4.933  0.2773  0.6248  0.4039
 3327SOL    HW110597   6.307   4.341   4.954  0.3122  1.5090  4.1860
 3327SOL    HW210598   6.325   4.491   4.965  2.1319  1.6886  0.4023
 3328SOL     OW10599   2.212   6.775   2.881 -0.3418 -0.0572  0.1252
 3328SOL    HW110600   2.168   6.712   2.823 -0.5003  0.6246 -0.5005
 3328SOL    HW210601   2.174   6.757   2.967 -1.3607  0.0604 -0.2849
 3329SOL     OW10602   2.650   7.189   6.623 -0.3584  0.5559  0.0422
 3329SOL    HW110603   2.695   7.127   6.566 -2.2116  0.0015 -0.8987
 3329SOL    HW210604   2.592   7.238   6.565 -0.1548  2.0309  1.0267
 3330SOL     OW10605   4.021   6.472   2.808  0.2705 -0.2272  0.1674
 3330SOL    HW110606   4.115   6.490   2.816  0.4196 -1.1605  0.6060
 3330SOL    HW210607   3.993   6.455   2.898  0.0239 -1.5784 -0.1583
 3331SOL     OW10608   4.207   3.463   6.149  0.1754 -0.0708  0.2276
 3331SOL    HW110609   4.220   3.544   6.197  0.7645  0.1883 -0.3431
 3331SOL    HW210610   4.295   3.426   6.140 -0.0827 -0.7742  0.4747
 3332SOL     OW10611   1.669   3.970   4.888 -0.4285 -0.2141 -0.4436
 3332SOL    HW110612   1.614   3.903   4.930 -0.5967 -0.2783 -0.7646
 3332SOL    HW210613   1.758   3.939   4.900 -0.3021  0.7205  1.6120
 3333SOL     OW10614   2.734   1.109   3.410  0.3070 -0.3664  0.2958
 3333SOL    HW110615   2.693   1.078   3.490  0.3114  0.0476  0.4595
 3333SOL    HW210616   2.827   1.114   3.430  0.1197  1.6791  0.9404
 3334SOL     OW10617   2.166   2.225   5.723 -0.8537 -0.4113 -0.4797
 3334SOL    HW110618   2.151   2.162   5.794 -0.8648  0.6194  0.4708
 3334SOL    HW210619   2.253   2.205   5.691 -1.3491 -1.7229 -1.0559
 3335SOL     OW10620   4.372   6.578   0.450 -0.8225  0.2015  0.2054
 3335SOL    HW110621   4.337   6.603   0.365 -1.4918  0.4530  0.5507
 3335SOL    HW210622   4.300   6.594   0.512 -0.4271 -0.2062  0.7829
 3336SOL     OW10623   5.118   2.335   6.111  0.0638 -0.2755 -0.2554
 3336SOL    HW110624   5.051   2.318   6.044  0.4670  0.3697 -0.8249
 3336SOL    HW210625   5.122   2.253   6.161 -2.0069  0.0405  0.5548
 3337SOL     OW10626   4.615   4.298   4.646  0.2542  0.0487 -0.3227
 3337SOL    HW110627   4.639   4.390   4.635  1.5582 -0.2921 -0.5567
 3337SOL    HW210628   4.694   4.258   4.682 -0.5877 -0.8174  0.6292
 3338SOL     OW10629   3.194   2.587   5.710  0.1661  0.3455 -0.3757
 3338SOL    HW110630   3.237   2.603   5.794  0.4910  0.5582 -0.5811
 3338SOL    HW210631   3.125   2.653   5.706 -0.3772 -0.1870  0.0869
 3339SOL     OW10632   2.736   0.093   4.332 -0.6412 -0.0840 -0.1730
 3339SOL    HW110633   2.644   0.118   4.330 -0.1124  2.0372 -0.6484
 3339SOL    HW210634   2.747   0.045   4.414 -2.4150 -1.5691 -0.7530
 3340SOL     OW10635   4.711   0.401   5.889  0.1996  0.8467 -0.3390
 3340SOL    HW110636   4.692   0.344   5.963 -0.3290  0.3722 -0.8294
 3340SOL    HW210637   4.788   0.451   5.916 -0.1768  0.9171  0.6571
 3341SOL     OW10638   6.931   6.510   2.345  0.1291  0.0229  0.1507
 3341SOL    HW110639   6.948   6.604   2.355 -1.0710  0.2554  0.1264
 3341SOL    HW210640   7.018   6.470   2.353  0.7705  1.1842 -0.5840
 3342SOL     OW10641   1.834   3.529   2.902 -0.2498  0.4446 -0.1807
 3342SOL    HW110642   1.753   3.575   2.878  0.4203  1.0036 -1.4890
 3342SOL    HW210643   1.836   3.532   2.998 -0.1864  3.3342 -0.1724
 3343SOL     OW10644   4.436   1.836   3.268 -0.2326  0.5906  0.1018
 3343SOL    HW110645   4.518   1.805   3.229  0.2371  0.4720  1.1728
 3343SOL    HW210646   4.384   1.757   3.281  0.1703  0.4625  0.9904
 3344SOL     OW10647   0.556   0.529   1.874 -0.3222 -0.2476  0.6962
 3344SOL    HW110648   0.478   0.475   1.887  0.2495 -1.3007 -0.1308
 3344SOL    HW210649   0.549   0.560   1.784 -0.2400  0.4128  0.9137
 3345SOL     OW10650   5.253   5.670   1.723  0.0369 -0.2323 -0.6130
 3345SOL    HW110651   5.215   5.623   1.798 -0.4476 -3.0018 -2.4511
 3345SOL    HW210652   5.324   5.721   1.761 -1.0547 -0.4154  1.9219
 3346SOL     OW10653   3.634   6.341   5.493  0.2990  0.1618  0.8202
 3346SOL    HW110654   3.695   6.297   5.553  0.5190 -0.7911 -0.0681
 3346SOL    HW210655   3.565   6.276   5.478 -0.0533  0.6074  0.4965
 3347SOL     OW10656   3.812   2.244   1.439 -0.2011  0.0645 -0.3021
 3347SOL    HW110657   3.787   2.194   1.517 -0.6937  0.6779 -0.0477
 3347SOL    HW210658   3.905   2.263   1.452 -0.6883  1.7743  1.1116
 3348SOL     OW10659   1.272   2.339   0.017 -0.2253 -0.0261  0.3474
 3348SOL    HW110660   1.356   2.325  -0.026  0.1828  0.4215  0.9801
 3348SOL    HW210661   1.225   2.398  -0.042  0.0494  0.0229  0.1729
 3349SOL     OW10662   3.275   0.909   1.191  0.2482 -0.0065  0.0345
 3349SOL    HW110663   3.204   0.933   1.251  1.2469  0.0415  1.2204
 3349SOL    HW210664   3.344   0.972   1.209  2.4647 -2.8207  2.3353
 3350SOL     OW10665   2.839   6.123   0.928  0.5678  0.0498  0.1698
 3350SOL    HW110666   2.862   6.202   0.976  0.2850 -0.1149  0.5855
 3350SOL    HW210667   2.883   6.132   0.843  1.2727  0.2289  0.5501
 3351SOL     OW10668   2.055   3.703   4.312 -0.0656  0.2638 -0.3271
 3351SOL    HW110669   1.963   3.710   4.289  0.4622  1.0551 -2.4622
 3351SOL    HW210670   2.098   3.676   4.231  1.5612 -0.3027  0.6714
 3352SOL     OW10671   0.258   3.818   0.028  0.5311 -0.3225  0.2797
 3352SOL    HW110672   0.212   3.752  -0.024 -0.2809  0.8613 -0.5759
 3352SOL    HW210673   0.212   3.818   0.112  0.1435 -0.4290  0.0739
 3353SOL     OW10674   5.062   1.092   4.871 -0.3028 -0.1316 -0.0721
 3353SOL    HW110675   4.968   1.080   4.860 -0.3492  0.7682 -0.7011
 3353SOL    HW210676   5.079   1.067   4.962 -1.0719 -0.7187 -0.0810
 3354SOL     OW10677   1.385   5.813   6.725 -0.1242 -0.3018  0.2285
 3354SOL    HW110678   1.454   5.802   6.659 -1.3262  0.0079 -1.1434
 3354SOL    HW210679   1.345   5.726   6.732 -1.0131  0.0102 -0.6678
 3355SOL     OW10680   5.904   3.509   1.132  0.4619 -0.6196  0.1210
 3355SOL    HW110681   5.940   3.525   1.044 -1.1271  0.3577 -0.3913
 3355SOL    HW210682   5.980   3.509   1.189  1.5297 -1.1426 -1.2355
 3356SOL     OW10683   1.340   1.475   6.406 -0.0683  0.1254 -0.1457
 3356SOL    HW110684   1.280   1.508   6.340  1.4166 -0.1910 -1.7463
 3356SOL    HW210685   1.325   1.380   6.406 -0.3199  0.1667  0.2293
 3357SOL     OW10686   2.861   3.657   5.251  0.2707 -0.2999 -0.3422
 3357SOL    HW110687   2.851   3.734   5.307 -1.2902  0.0641 -1.0789
 3357SOL    HW210688   2.953   3.660   5.223  0.9690 -0.2202  1.7384
 3358SOL     OW10689   3.897   5.717   2.051  0.0093 -0.1200  0.3870
 3358SOL    HW110690   3.959   5.663   2.003  0.8399  0.3384  0.9119
 3358SOL    HW210691   3.941   5.738   2.133 -0.0967  1.6964  0.0319
 3359SOL     OW10692   4.976   6.510   5.026 -0.1748 -0.4005  0.2786
 3359SOL    HW110693   4.984   6.474   4.938  2.4392 -0.0175  0.2723
 3359SOL    HW210694   4.952   6.602   5.013  1.1129 -0.1021 -0.1164
 3360SOL     OW10695   6.560   4.163   2.330 -0.2211 -0.8021  0.5004
 3360SOL    HW110696   6.467   4.140   2.322 -0.2875 -0.5289  0.4833
 3360SOL    HW210697   6.574   4.231   2.264 -0.5331  0.7205  1.9168
 3361SOL     OW10698   6.420   6.843   0.834  0.0395  0.1567 -0.5056
 3361SOL    HW110699   6.488   6.889   0.885  1.1971 -0.7504 -1.1886
 3361SOL    HW210700   6.458   6.833   0.747 -1.6901  1.1759 -1.4315
 3362SOL     OW10701   5.721   2.707   3.048  0.6026 -0.0251  0.2143
 3362SOL    HW110702   5.815   2.695   3.033  0.5874 -0.0601  0.1479
 3362SOL    HW210703   5.715   2.792   3.093  0.7055 -0.2461  0.6503
 3363SOL     OW10704   5.277   3.891   6.117  0.1769  0.2159  0.1967
 3363SOL    HW110705   5.324   3.955   6.063  0.0240 -0.8034 -1.2076
 3363SOL    HW210706   5.186   3.921   6.116  0.2957  0.5879  0.4759
 3364SOL     OW10707   5.249   4.926   3.977  0.3818  0.3299  0.6479
 3364SOL    HW110708   5.323   4.924   4.038 -0.4381  1.7379  1.7304
 3364SOL    HW210709   5.254   5.012   3.935 -0.5884  0.4112  0.6786
 3365SOL     OW10710   7.050   4.489   4.958 -0.4738  0.5035  0.5351
 3365SOL    HW110711   7.101   4.425   4.910 -1.5452  0.9773 -1.3505
 3365SOL    HW210712   7.027   4.446   5.039  1.0237 -0.5077  0.4613
 3366SOL     OW10713   5.121   3.775   5.042 -0.0428  0.1676 -0.2938
 3366SOL    HW110714   5.112   3.684   5.069 -0.1480 -0.1099 -1.2193
 3366SOL    HW210715   5.168   3.817   5.114 -0.0703 -0.5939  0.1792
 3367SOL     OW10716   6.061   6.599   5.637 -0.0105 -0.4199  0.0304
 3367SOL    HW110717   6.063   6.505   5.655  0.6844 -0.2278  1.0304
 3367SOL    HW210718   6.075   6.606   5.542 -2.8167 -1.4195 -0.5676
 3368SOL     OW10719   3.454   2.988   2.887  0.3692 -0.0683 -0.0284
 3368SOL    HW110720   3.466   2.895   2.908 -0.4228 -0.1972 -0.1088
 3368SOL    HW210721   3.434   3.029   2.972  1.4638  0.1715  0.1304
 3369SOL     OW10722   2.648   2.770   3.682 -0.2505 -0.6894 -0.1624
 3369SOL    HW110723   2.583   2.700   3.680 -2.6626  1.2698  2.0245
 3369SOL    HW210724   2.636   2.811   3.768  1.8005  1.6832 -0.8925
 3370SOL     OW10725   2.739   3.480   3.447 -0.4965 -0.7394 -0.5753
 3370SOL    HW110726   2.650   3.483   3.413 -0.7159 -4.0388 -0.5586
 3370SOL    HW210727   2.794   3.459   3.372 -0.2191 -2.0409 -0.0470
 3371SOL     OW10728   5.703   5.914   0.251  0.2459 -0.4994 -0.2220
 3371SOL    HW110729   5.658   5.892   0.332  0.8213 -0.8904  0.0004
 3371SOL    HW210730   5.638   5.962   0.200 -0.9394 -2.3351 -0.5531
 3372SOL     OW10731   3.265   2.126   5.288 -0.8037  0.1174 -0.0183
 3372SOL    HW110732   3.339   2.141   5.347 -1.0299  1.8077 -0.1162
 3372SOL    HW210733   3.193   2.099   5.346 -0.9747  1.5914  0.4890
 3373SOL     OW10734   5.306   4.077   3.194 -0.0880 -0.1294  0.5602
 3373SOL    HW110735   5.327   4.001   3.139 -2.2524  1.5446 -2.8557
 3373SOL    HW210736   5.377   4.139   3.177 -0.4120  0.1393  0.1902
 3374SOL     OW10737   1.903   3.166   4.770 -0.1683  0.2701  0.2324
 3374SOL    HW110738   1.910   3.248   4.722 -2.5436  1.2386  1.3491
 3374SOL    HW210739   1.854   3.189   4.849  2.0167 -1.6096  2.2615
 3375SOL     OW10740   0.156   1.207   6.114 -0.0637 -0.2243 -0.0336
 3375SOL    HW110741   0.212   1.225   6.038  0.1449  1.0985  0.3939
 3375SOL    HW210742   0.073   1.177   6.076 -0.0406  0.6386 -0.8089
 3376SOL     OW10743   5.167   4.110   4.075 -0.3052 -0.0761 -0.4308
 3376SOL    HW110744   5.099   4.153   4.023 -0.7771 -0.7081 -0.3446
 3376SOL    HW210745   5.157   4.148   4.163 -2.7088 -2.4213  0.4567
 3377SOL     OW10746   0.467   0.554   2.132 -0.7879  0.2926  0.1567
 3377SOL    HW110747   0.517   0.569   2.052  1.0768 -1.5923  0.8797
 3377SOL    HW210748   0.376   0.570   2.107 -0.1323  0.9542 -1.9915
 3378SOL     OW10749   4.465   4.494   6.995 -0.0200 -0.0173  0.4761
 3378SOL    HW110750   4.414   4.465   6.920 -1.2026  0.3334  1.1141
 3378SOL    HW210751   4.540   4.539   6.958  0.4374 -1.4989 -0.5097
 3379SOL     OW10752   0.884   0.886   6.564  0.7630 -0.0789  0.0336
 3379SOL    HW110753   0.900   0.795   6.591 -0.2511 -1.1207 -2.4761
 3379SOL    HW210754   0.789   0.896   6.571  0.7930  0.5469 -0.4047
 3380SOL     OW10755   5.238   3.637   5.313  0.5556 -0.5742  0.4205
 3380SOL    HW110756   5.223   3.732   5.315  2.0754 -0.3122  0.3482
 3380SOL    HW210757   5.233   3.611   5.405  1.6474 -0.1523  0.6145
 3381SOL     OW10758   1.998   2.372   2.040  0.3895  0.7585  0.6356
 3381SOL    HW110759   1.957   2.459   2.035  0.6205  0.8384 -0.0107
 3381SOL    HW210760   2.071   2.376   1.978 -0.3888 -0.3078 -0.4049
 3382SOL     OW10761   3.204   7.003   2.573 -0.1217  0.3047  0.0512
 3382SOL    HW110762   3.115   6.997   2.608  0.0860  0.7132  0.6662
 3382SOL    HW210763   3.198   6.965   2.485 -0.5775 -1.0090  0.6390
 3383SOL     OW10764   5.891   1.540   6.977 -0.2111  0.0719 -0.3394
 3383SOL    HW110765   5.974   1.509   7.014  0.1862  1.3477 -0.0995
 3383SOL    HW210766   5.869   1.475   6.910  0.4457 -0.8365  0.3007
 3384SOL     OW10767   2.513   6.135   6.100 -0.2087  0.6148 -0.5088
 3384SOL    HW110768   2.534   6.227   6.119  0.1949  0.4422 -0.1003
 3384SOL    HW210769   2.597   6.097   6.072  0.1412 -0.1637  1.4590
 3385SOL     OW10770   3.720   1.794   7.161 -0.3569  0.4391 -0.1526
 3385SOL    HW110771   3.775   1.717   7.179 -0.3207 -0.0274 -2.0694
 3385SOL    HW210772   3.683   1.817   7.246 -1.4062 -2.5130  0.3072
 3386SOL     OW10773   0.827   6.072   4.337  0.6108  0.0928 -0.7446
 3386SOL    HW110774   0.814   6.059   4.431  1.0984  1.8651 -0.3815
 3386SOL    HW210775   0.822   5.985   4.299  0.7885 -0.7030  0.9780
 3387SOL     OW10776   3.879   4.799   5.833  0.4429  0.0705  0.0449
 3387SOL    HW110777   3.908   4.777   5.744  0.6944  1.5996 -0.2773
 3387SOL    HW210778   3.957   4.788   5.887 -0.2614 -3.2581  0.5861
 3388SOL     OW10779   4.968   2.046   0.081 -0.6246 -0.3945  0.2820
 3388SOL    HW110780   5.063   2.049   0.077 -0.6591  2.1742 -0.2902
 3388SOL    HW210781   4.943   1.980   0.016  0.7447 -0.6655  0.0141
 3389SOL     OW10782   2.125   5.458   5.564 -0.1790  0.7000 -0.4759
 3389SOL    HW110783   2.073   5.537   5.581 -1.6165  0.0030 -1.4028
 3389SOL    HW210784   2.213   5.491   5.545 -0.4710  1.9901  0.2930
 3390SOL     OW10785   6.363   3.993   0.513 -0.2295 -0.0373  0.5233
 3390SOL    HW110786   6.322   3.931   0.453  1.6400 -0.0105 -0.8699
 3390SOL    HW210787   6.336   4.079   0.481 -0.2189 -0.0462  0.4919
 3391SOL     OW10788   3.901   5.607   6.587 -0.1639 -0.5529  0.3586
 3391SOL    HW110789   3.874   5.565   6.506 -1.9881  1.1123  0.0282
 3391SOL    HW210790   3.819   5.640   6.626  0.9828  1.6049  1.1570
 3392SOL     OW10791   0.215   7.119   7.135  0.2590 -0.0512  0.4968
 3392SOL    HW110792   0.161   7.083   7.064  1.5916 -0.1136 -0.5208
 3392SOL    HW210793   0.270   7.185   7.093  0.3085  0.7041  1.6961
 3393SOL     OW10794   3.046   5.813   0.729  0.0213 -0.2748  0.0141
 3393SOL    HW110795   2.966   5.851   0.694  0.3767  0.1309 -0.3721
 3393SOL    HW210796   3.035   5.719   0.717  0.1143 -0.1521 -1.1600
 3394SOL     OW10797   6.104   2.173   5.086 -0.2155 -0.0264 -0.3246
 3394SOL    HW110798   6.176   2.215   5.131 -1.2505 -0.1269  1.5077
 3394SOL    HW210799   6.060   2.244   5.040 -0.1052  0.3642  0.1643
 3395SOL     OW10800   2.145   1.100   2.619 -0.4392  0.0996  0.3727
 3395SOL    HW110801   2.223   1.137   2.579 -0.1910 -0.2015  0.5801
 3395SOL    HW210802   2.167   1.008   2.636 -0.9538 -0.0734  0.1198
 3396SOL     OW10803   1.873   6.940   5.428  0.3667 -0.3569 -0.1580
 3396SOL    HW110804   1.874   6.879   5.354 -0.0468 -0.7488  0.1584
 3396SOL    HW210805   1.802   6.910   5.484 -1.3426  1.6999 -1.0682
 3397SOL     OW10806   3.731   2.653   3.862 -0.2732 -0.2700  0.1311
 3397SOL    HW110807   3.636   2.664   3.861 -0.2304  0.2374  1.0256
 3397SOL    HW210808   3.744   2.559   3.850 -0.9029 -0.3958  0.3677
 3398SOL     OW10809   0.445   0.718   0.565 -0.3832 -0.0439 -0.1450
 3398SOL    HW110810   0.440   0.658   0.491 -0.3596 -1.7621  1.1883
 3398SOL    HW210811   0.497   0.792   0.533  0.4586 -1.1973 -1.5240
 3399SOL     OW10812   3.346   3.407   0.507  0.6128  0.1894  0.4380
 3399SOL    HW110813   3.383   3.408   0.595 -0.5066 -1.2239  0.9708
 3399SOL    HW210814   3.363   3.318   0.475  0.8992  0.6511 -0.7231
 3400SOL     OW10815   5.140   5.521   2.427 -0.5174  0.0165  0.4404
 3400SOL    HW110816   5.229   5.490   2.410  0.2346  2.2776 -0.1210
 3400SOL    HW210817   5.109   5.466   2.499  0.9657 -1.4313  0.0488
 3401SOL     OW10818   6.638   4.554   1.895  0.1439 -0.0582  0.1703
 3401SOL    HW110819   6.687   4.594   1.967  0.5600  1.2003 -0.7764
 3401SOL    HW210820   6.601   4.628   1.847 -1.1226 -0.9188 -0.2459
 3402SOL     OW10821   2.072   4.293   6.022 -0.0477 -0.1144 -0.2407
 3402SOL    HW110822   2.053   4.274   5.930 -0.0214  0.1142 -0.2931
 3402SOL    HW210823   2.146   4.353   6.021 -0.9239  1.0193 -0.1338
 3403SOL     OW10824   3.804   1.228   1.805 -0.4159  0.8711  0.1117
 3403SOL    HW110825   3.890   1.219   1.763 -0.5820  0.5163 -0.1520
 3403SOL    HW210826   3.741   1.216   1.734 -0.7224 -0.7866  0.6314
 3404SOL     OW10827   0.601   4.311   3.930 -0.0459 -0.6995  0.4792
 3404SOL    HW110828   0.665   4.340   3.995  1.5524 -2.5178 -0.1687
 3404SOL    HW210829   0.590   4.218   3.948 -0.5802 -0.9515 -1.0136
 3405SOL     OW10830   0.384   5.753   1.029  0.3860 -0.1172  0.0207
 3405SOL    HW110831   0.365   5.731   1.120 -1.2647 -1.0182 -0.5024
 3405SOL    HW210832   0.444   5.828   1.034 -0.9610  0.9137  1.8493
 3406SOL     OW10833   1.999   5.092   2.595  0.1845  0.4019  0.1159
 3406SOL    HW110834   2.060   5.044   2.538  1.2772  0.1682  1.4203
 3406SOL    HW210835   2.033   5.181   2.597  0.1583  0.4065  0.3937
 3407SOL     OW10836   1.387   4.797   3.153  0.3235 -0.1688  0.0699
 3407SOL    HW110837   1.480   4.792   3.175  0.6271  3.2661  0.1876
 3407SOL    HW210838   1.356   4.877   3.196 -2.4260 -0.5796 -0.8923
 3408SOL     OW10839   6.832   2.120   6.198 -0.4271  0.1833 -0.3916
 3408SOL    HW110840   6.857   2.062   6.269  0.2247  1.1057  0.1538
 3408SOL    HW210841   6.899   2.108   6.131  0.2330  0.9907  0.1171
 3409SOL     OW10842   0.811   3.538   5.026  0.1125 -0.2386  0.2651
 3409SOL    HW110843   0.833   3.465   5.083 -1.3004 -0.1868  0.9162
 3409SOL    HW210844   0.892   3.556   4.978  0.7884 -1.5139  0.8711
 3410SOL     OW10845   4.524   0.939   1.406 -0.7516 -0.4545 -0.5476
 3410SOL    HW110846   4.472   1.002   1.455  0.4625  0.2137 -0.0715
 3410SOL    HW210847   4.523   0.972   1.316 -2.7786 -1.5494 -0.9799
 3411SOL     OW10848   5.100   3.517   5.128 -0.0450  0.5626 -0.6649
 3411SOL    HW110849   5.153   3.552   5.200  0.0745  0.9863 -0.9570
 3411SOL    HW210850   5.158   3.454   5.085 -1.0921 -2.0446  1.4287
 3412SOL     OW10851   5.483   3.710   4.374 -0.4842  0.2526 -0.3469
 3412SOL    HW110852   5.448   3.680   4.291 -2.4223  0.8950  0.1881
 3412SOL    HW210853   5.414   3.692   4.438  0.2451  1.3508  0.8107
 3413SOL     OW10854   5.668   1.583   1.499 -0.4295  0.2362 -0.7077
 3413SOL    HW110855   5.628   1.525   1.434  0.1978 -0.7111 -0.2852
 3413SOL    HW210856   5.760   1.587   1.473 -0.4313  0.9194 -0.6257
 3414SOL     OW10857   6.647   5.418   1.293  0.3039  0.1028  0.1731
 3414SOL    HW110858   6.630   5.368   1.373 -2.8329 -1.9062 -1.5566
 3414SOL    HW210859   6.568   5.469   1.280  1.3532  1.5033 -0.9300
 3415SOL     OW10860   1.018   1.462   0.891 -0.1951  0.2944 -0.0273
 3415SOL    HW110861   0.990   1.378   0.926  3.8241 -0.5879  1.7009
 3415SOL    HW210862   1.013   1.522   0.965  1.2207  0.3557  0.0486
 3416SOL     OW10863   4.894   2.934   3.922  0.2234  0.2722  0.2118
 3416SOL    HW110864   4.827   2.934   3.854 -1.2729  0.5922  1.6474
 3416SOL    HW210865   4.864   2.997   3.986  1.4652 -0.2142  1.3193
 3417SOL     OW10866   1.885   3.452   5.887 -0.3850 -0.3145 -0.0706
 3417SOL    HW110867   1.873   3.368   5.932 -0.2359 -0.5762 -0.5180
 3417SOL    HW210868   1.916   3.428   5.800 -0.1109  0.2144 -0.1205
 3418SOL     OW10869   2.659   2.743   1.010  0.0661 -0.0491  1.2026
 3418SOL    HW110870   2.749   2.757   1.039 -0.0615  0.7879  1.2239
 3418SOL    HW210871   2.627   2.831   0.989 -0.6409 -0.3768  0.8891
 3419SOL     OW10872   0.547   1.651   6.406 -0.6900 -0.2037 -0.2357
 3419SOL    HW110873   0.580   1.561   6.399  2.6829  1.0022 -2.2997
 3419SOL    HW210874   0.540   1.666   6.500 -0.6409 -2.3665  0.1769
 3420SOL     OW10875   7.073   5.760   3.501 -0.0532 -0.9464 -0.4138
 3420SOL    HW110876   7.051   5.690   3.439  0.9127 -2.0963  0.5016
 3420SOL    HW210877   7.101   5.715   3.580 -0.2002  0.4958  0.5036
 3421SOL     OW10878   2.124   5.621   2.263 -0.0850  0.2349  0.0536
 3421SOL    HW110879   2.127   5.634   2.358  0.9635 -1.2849  0.2735
 3421SOL    HW210880   2.111   5.527   2.252 -1.6118  0.5593 -1.3470
 3422SOL     OW10881   7.244   5.004   0.734  0.4557  0.0858 -0.1567
 3422SOL    HW110882   7.205   4.933   0.784  1.7318  0.2994  1.1981
 3422SOL    HW210883   7.179   5.074   0.736 -0.8177 -0.9948 -1.5106
 3423SOL     OW10884   0.443   2.008   4.037 -0.1514 -0.3823  0.3258
 3423SOL    HW110885   0.449   1.950   4.113 -0.6413 -0.3443  0.4005
 3423SOL    HW210886   0.415   1.951   3.965 -1.0738 -0.1653  0.5012
 3424SOL     OW10887   4.759   1.182   4.059  0.2214  0.2201  0.3476
 3424SOL    HW110888   4.694   1.251   4.046  0.1931  0.2262  0.5188
 3424SOL    HW210889   4.707   1.102   4.067  0.2325  0.2316  0.5324
 3425SOL     OW10890   3.875   7.180   1.604 -0.2760 -0.1397 -0.5208
 3425SOL    HW110891   3.797   7.184   1.659  0.3540 -1.3969  0.4935
 3425SOL    HW210892   3.937   7.240   1.646  0.5899 -1.8904  0.8365
 3426SOL     OW10893   3.103   4.391   4.142  0.0259  0.0522 -0.0668
 3426SOL    HW110894   3.040   4.342   4.089 -0.8989  1.6784 -0.5566
 3426SOL    HW210895   3.063   4.478   4.152  1.3836  0.5768  1.1309
 3427SOL     OW10896   2.265   4.798   2.196  0.1564 -0.3077 -0.4576
 3427SOL    HW110897   2.195   4.740   2.225 -1.0521  0.3645 -1.8801
 3427SOL    HW210898   2.244   4.817   2.105  0.9939  1.6355 -0.3073
 3428SOL     OW10899   0.996   0.842   1.895 -0.0500  0.2589 -0.2087
 3428SOL    HW110900   0.974   0.763   1.945 -1.6181  0.2751 -0.7965
 3428SOL    HW210901   1.090   0.852   1.905  0.0246 -1.1212  0.7075
 3429SOL     OW10902   6.955   1.641   5.092  0.0294  0.2925 -0.1685
 3429SOL    HW110903   6.999   1.644   5.008 -1.1022  0.8221 -0.7637
 3429SOL    HW210904   6.874   1.594   5.075 -0.8701  1.6141  0.2912
 3430SOL     OW10905   0.449   0.346   5.682 -0.2922 -0.4212 -0.2113
 3430SOL    HW110906   0.541   0.373   5.687 -0.0646 -0.7491 -2.0108
 3430SOL    HW210907   0.428   0.315   5.770  1.0717  0.4344  0.4434
 3431SOL     OW10908   1.044   6.733   6.057  0.5457  0.4978  0.1428
 3431SOL    HW110909   0.989   6.655   6.062  2.1685 -0.6741  0.6278
 3431SOL    HW210910   1.052   6.751   5.963  1.2866 -0.7939 -0.0648
 3432SOL     OW10911   2.778   5.730   5.984  0.5042  0.1133 -0.0778
 3432SOL    HW110912   2.850   5.710   5.923  0.8438  1.7921 -0.2725
 3432SOL    HW210913   2.704   5.750   5.927  1.7446  5.5153 -0.3801
 3433SOL     OW10914   3.976   6.904   1.610  0.1652 -0.3709  0.0594
 3433SOL    HW110915   3.963   6.995   1.581 -1.4517 -0.2899  0.9353
 3433SOL    HW210916   3.933   6.851   1.543 -1.5035 -0.3023  1.0228
 3434SOL     OW10917   0.404   0.710   1.313  0.7412  0.1315  0.5845
 3434SOL    HW110918   0.438   0.641   1.256  1.3066  0.6756  0.2536
 3434SOL    HW210919   0.479   0.766   1.331 -0.0751  1.7316 -0.6880
 3435SOL     OW10920   2.374   0.484   5.969  1.1354  0.3357  0.7322
 3435SOL    HW110921   2.444   0.549   5.978  1.2159  0.4465 -0.4435
 3435SOL    HW210922   2.420   0.402   5.950  0.9665  0.4284 -0.1428
 3436SOL     OW10923   5.588   0.640   5.677 -0.3613  0.6383 -0.3668
 3436SOL    HW110924   5.662   0.579   5.676 -0.4310  0.5397  0.2489
 3436SOL    HW210925   5.601   0.695   5.600  0.2729  0.5246 -0.3418
 3437SOL     OW10926   3.728   2.989   2.978 -0.2733  0.5603 -0.4000
 3437SOL    HW110927   3.698   2.977   3.068  0.9751  2.3086  0.3118
 3437SOL    HW210928   3.656   2.958   2.924  0.3351 -4.1712  1.0422
 3438SOL     OW10929   3.110   2.169   5.889 -0.1646  0.6910 -0.8912
 3438SOL    HW110930   3.019   2.180   5.918 -0.3666  0.9359 -1.6016
 3438SOL    HW210931   3.162   2.200   5.963 -0.6222 -0.7349  0.0698
 3439SOL     OW10932   1.673   7.014   6.769  0.2422 -0.4949 -0.0777
 3439SOL    HW110933   1.651   7.043   6.681  1.9699 -0.9512 -0.6897
 3439SOL    HW210934   1.763   6.982   6.763  0.3280 -0.7482  1.8023
 3440SOL     OW10935   2.226   3.404   4.897 -0.0863  0.4008 -0.3012
 3440SOL    HW110936   2.283   3.362   4.962  0.4234  0.8356 -0.4520
 3440SOL    HW210937   2.245   3.358   4.815 -1.9271 -1.2585  0.1288
 3441SOL     OW10938   6.754   0.881   4.126 -0.1712 -0.7853  0.4451
 3441SOL    HW110939   6.702   0.811   4.086  0.8429 -1.0251 -0.4939
 3441SOL    HW210940   6.763   0.946   4.057  0.3793 -0.5315  0.7553
 3442SOL     OW10941   2.268   4.812   3.706 -0.6764  0.9615 -0.0684
 3442SOL    HW110942   2.201   4.878   3.691 -0.3589  0.9481 -1.7899
 3442SOL    HW210943   2.350   4.855   3.681 -0.3538  0.2179 -0.3070
 3443SOL     OW10944   1.109   2.930   5.965 -0.6551 -0.2759  0.4945
 3443SOL    HW110945   1.025   2.963   5.934 -0.2123  0.5176  0.0823
 3443SOL    HW210946   1.145   2.883   5.890  0.1224  1.0724 -0.0133
 3444SOL     OW10947   2.053   6.407   3.327  0.2789 -0.4750  0.3931
 3444SOL    HW110948   2.028   6.466   3.256  0.4000 -0.8047  0.0738
 3444SOL    HW210949   2.134   6.445   3.362  0.8774 -0.9525 -0.4259
 3445SOL     OW10950   5.757   6.450   0.801 -0.0173  0.0122 -0.2457
 3445SOL    HW110951   5.755   6.477   0.893 -0.6758  0.4506 -0.3896
 3445SOL    HW210952   5.695   6.377   0.797  0.0052 -0.0008 -0.3447
 3446SOL     OW10953   1.008   5.585   4.999  0.1379 -0.3908 -0.1413
 3446SOL    HW110954   1.073   5.640   5.044 -0.0639 -0.1147 -0.1801
 3446SOL    HW210955   1.042   5.496   5.007  0.8362 -0.1820 -0.7004
 3447SOL     OW10956   2.863   4.602   5.488  0.0378  0.0079 -0.3860
 3447SOL    HW110957   2.932   4.668   5.481  1.7475 -1.6607  0.0166
 3447SOL    HW210958   2.863   4.559   5.403 -0.0556 -0.4279 -0.1634
 3448SOL     OW10959   7.151   4.995   4.384  0.2454 -0.0025 -0.2589
 3448SOL    HW110960   7.165   5.079   4.341 -1.1937 -0.8406 -2.5862
 3448SOL    HW210961   7.155   5.014   4.478  1.1399  2.4109 -0.7315
 3449SOL     OW10962   3.958   1.538   0.689 -0.3223 -0.4752  0.0740
 3449SOL    HW110963   3.913   1.468   0.640  0.1657 -0.8163  0.1066
 3449SOL    HW210964   3.993   1.595   0.621  2.1452 -2.0578 -0.0864
 3450SOL     OW10965   0.638   3.984   5.568  0.3680 -0.1755  0.5899
 3450SOL    HW110966   0.579   4.040   5.618 -1.5630 -2.9297  1.6163
 3450SOL    HW210967   0.585   3.952   5.495  1.4559 -0.5822 -0.0464
 3451SOL     OW10968   3.945   5.494   5.924  0.1699 -0.7834  0.4761
 3451SOL    HW110969   3.955   5.425   5.859 -2.4326 -1.4297  0.6602
 3451SOL    HW210970   4.033   5.529   5.936  1.5027 -3.7525  0.0717
 3452SOL     OW10971   5.729   0.789   4.796 -0.1928  0.6486  0.7109
 3452SOL    HW110972   5.652   0.740   4.768 -0.5407  1.7875 -0.4752
 3452SOL    HW210973   5.803   0.744   4.754 -0.2316 -0.2502  1.5834
 3453SOL     OW10974   5.057   2.891   1.894  0.2901 -0.5805 -0.2440
 3453SOL    HW110975   5.147   2.861   1.880  1.8560  2.7803  1.5896
 3453SOL    HW210976   5.037   2.942   1.816 -0.1616 -1.4630 -0.7269
 3454SOL     OW10977   3.579   6.720   4.275  0.7243  0.0271  0.6713
 3454SOL    HW110978   3.549   6.800   4.317 -1.4517  0.7034 -1.9132
 3454SOL    HW210979   3.504   6.661   4.278  1.2206 -0.6867 -0.3185
 3455SOL     OW10980   1.210   5.408   4.903  0.1323 -0.0336 -0.3160
 3455SOL    HW110981   1.302   5.410   4.876  0.0832  0.9954 -0.4698
 3455SOL    HW210982   1.164   5.366   4.831  0.0703  2.2461 -1.7080
 3456SOL     OW10983   2.632   3.013   6.563  0.5187  0.5371  0.0605
 3456SOL    HW110984   2.651   2.936   6.616  1.3948  0.8139  0.1749
 3456SOL    HW210985   2.714   3.063   6.564  0.3548  0.8603 -1.0203
 3457SOL     OW10986   7.088   5.351   1.863 -0.2151 -0.1879 -0.0875
 3457SOL    HW110987   7.087   5.401   1.781 -0.2767  0.6140  0.3971
 3457SOL    HW210988   7.171   5.374   1.905 -0.8799  0.6409  0.8145
 3458SOL     OW10989   1.039   5.750   1.241 -0.0581 -0.7449 -0.3177
 3458SOL    HW110990   1.024   5.656   1.241  0.2283 -0.8125 -1.8211
 3458SOL    HW210991   0.955   5.788   1.214 -0.4284 -0.5022  1.1214
 3459SOL     OW10992   4.014   4.130   3.622 -0.3234 -0.3289  0.1569
 3459SOL    HW110993   4.007   4.216   3.663 -1.0397 -0.6118  0.6502
 3459SOL    HW210994   3.923   4.106   3.601 -0.1054 -0.8545 -0.1986
 3460SOL     OW10995   2.936   2.588   0.065  0.0249 -0.1282  0.0711
 3460SOL    HW110996   2.867   2.611   0.003 -1.2447  0.2196  1.5722
 3460SOL    HW210997   3.012   2.637   0.035 -1.2660  2.0985  0.2586
 3461SOL     OW10998   0.154   5.979   2.137  0.3417  0.9709  0.4185
 3461SOL    HW110999   0.209   5.904   2.112  0.4767  0.5511  1.8679
 3461SOL    HW211000   0.146   6.031   2.057  0.2825 -0.5602 -0.6131
 3462SOL     OW11001   7.189   1.397   0.086  0.1750  0.4353  0.2090
 3462SOL    HW111002   7.115   1.397   0.147 -0.9602 -1.7695 -1.0251
 3462SOL    HW211003   7.161   1.452   0.013 -0.5315 -0.8226 -0.5029
 3463SOL     OW11004   0.942   0.725   6.970 -0.1398 -0.2170 -0.3675
 3463SOL    HW111005   0.937   0.742   7.065 -0.7798  0.8234 -0.5728
 3463SOL    HW211006   1.029   0.756   6.945 -0.3507  0.4387 -0.2943
 3464SOL     OW11007   2.506   5.954   5.265 -0.3245 -0.2090  0.2944
 3464SOL    HW111008   2.443   5.883   5.255 -0.7475  0.0991  0.7110
 3464SOL    HW211009   2.559   5.928   5.341  1.7807 -1.7271 -1.5521
 3465SOL     OW11010   1.050   4.338   3.359 -0.0060 -0.1853 -0.5250
 3465SOL    HW111011   0.962   4.364   3.384  0.0759 -2.2939  2.4064
 3465SOL    HW211012   1.037   4.273   3.289 -0.8749 -1.1510  0.4971
 3466SOL     OW11013   1.218   0.263   1.048  0.2930 -0.0927  0.4266
 3466SOL    HW111014   1.216   0.241   0.955  0.3013 -0.2838  0.4694
 3466SOL    HW211015   1.276   0.339   1.054 -1.1895  1.1129  0.0535
 3467SOL     OW11016   2.931   6.616   3.115  0.1075 -0.4236 -0.0611
 3467SOL    HW111017   2.933   6.704   3.154  1.5105 -0.1931 -0.5748
 3467SOL    HW211018   2.879   6.626   3.035 -1.7939 -0.6389  1.0880
 3468SOL     OW11019   4.720   0.903   6.972  0.0614  0.0900 -0.4245
 3468SOL    HW111020   4.762   0.849   7.039 -0.0093  0.1143 -0.3597
 3468SOL    HW211021   4.633   0.922   7.008  0.6579  1.6342  0.3019
 3469SOL     OW11022   1.508   0.483   4.897 -0.2929  0.3640  0.2547
 3469SOL    HW111023   1.501   0.445   4.984 -1.3777  1.0857  0.5134
 3469SOL    HW211024   1.477   0.414   4.838 -1.3461  0.4995  0.6261
 3470SOL     OW11025   3.195   6.707   0.856  1.0391 -0.3863  0.1976
 3470SOL    HW111026   3.223   6.718   0.765 -0.0209  2.6195  0.1405
 3470SOL    HW211027   3.262   6.650   0.894  1.6286 -1.5669 -2.3724
 3471SOL     OW11028   6.843   3.158   4.095 -0.1397  0.1675 -0.4229
 3471SOL    HW111029   6.929   3.200   4.089  0.2106 -0.4931 -0.1944
 3471SOL    HW211030   6.863   3.065   4.107 -0.8060  0.3113  2.6152
 3472SOL     OW11031   6.436   3.716   0.922  0.3311  1.1984 -0.0475
 3472SOL    HW111032   6.447   3.723   1.017  2.3903  2.7436 -0.3210
 3472SOL    HW211033   6.375   3.787   0.900 -1.2818 -0.0434  0.2120
 3473SOL     OW11034   0.702   1.371   5.443  0.8346 -0.0088  0.1495
 3473SOL    HW111035   0.784   1.330   5.471  0.5609 -0.5415  0.1947
 3473SOL    HW211036   0.637   1.336   5.503  0.4261 -0.2969 -0.4519
 3474SOL     OW11037   0.454   2.380   0.134  0.2145  0.3719 -0.5305
 3474SOL    HW111038   0.433   2.304   0.188  0.1039  0.5899 -0.2564
 3474SOL    HW211039   0.548   2.392   0.144  0.2553  0.1768 -0.6976
 3475SOL     OW11040   2.530   4.416   3.383  0.1739  0.7086 -0.0035
 3475SOL    HW111041   2.441   4.449   3.386  0.5080  1.6400  0.0062
 3475SOL    HW211042   2.523   4.330   3.340 -0.7425  0.6742  0.2126
 3476SOL     OW11043   6.167   1.194   3.713  0.2595  0.0625  0.2147
 3476SOL    HW111044   6.226   1.211   3.787  2.1918  2.4086 -1.6938
 3476SOL    HW211045   6.116   1.275   3.704 -0.7676 -0.6292 -0.3262
 3477SOL     OW11046   0.724   0.954   5.326 -0.5208 -0.2141 -0.7299
 3477SOL    HW111047   0.693   0.975   5.238 -1.9362  1.5155  0.1245
 3477SOL    HW211048   0.811   0.994   5.331 -0.2892 -0.6064 -1.4253
 3478SOL     OW11049   6.564   2.335   6.105  0.1024 -0.8457  0.6858
 3478SOL    HW111050   6.649   2.293   6.089  0.3088 -0.7123  1.3811
 3478SOL    HW211051   6.560   2.405   6.041  0.5744 -0.7830  0.7165
 3479SOL     OW11052   7.101   6.052   4.272 -0.0688 -0.3806  0.2454
 3479SOL    HW111053   7.079   6.066   4.180  0.0842 -1.9055 -0.0535
 3479SOL    HW211054   7.049   6.117   4.319 -0.7723 -0.1082 -0.8576
 3480SOL     OW11055   1.145   5.640   2.064  0.0636  0.8984 -0.1722
 3480SOL    HW111056   1.216   5.613   2.007  0.8471  0.6278  0.9139
 3480SOL    HW211057   1.071   5.585   2.038  1.1913 -1.2717  0.9568
 3481SOL     OW11058   4.287   3.213   5.503 -0.3317  0.0913 -0.3084
 3481SOL    HW111059   4.200   3.238   5.473 -0.2342  1.4116  0.4637
 3481SOL    HW211060   4.316   3.147   5.440 -1.5469  0.2350 -1.0409
 3482SOL     OW11061   1.369   1.288   4.218  0.0601 -0.2785  0.1608
 3482SOL    HW111062   1.346   1.358   4.157  1.5470 -0.2822 -0.4472
 3482SOL    HW211063   1.318   1.307   4.296  0.8477  1.8644  0.2459
 3483SOL     OW11064   5.859   5.298   3.331  0.3654 -0.0978 -0.3875
 3483SOL    HW111065   5.916   5.262   3.398 -2.1783 -1.1404  1.3904
 3483SOL    HW211066   5.832   5.222   3.279  1.1126  0.4841 -1.6773
 3484SOL     OW11067   6.954   3.630   6.564  0.4350  0.2172  0.2137
 3484SOL    HW111068   7.016   3.701   6.548  1.0276  0.2587  2.4413
 3484SOL    HW211069   7.006   3.561   6.604 -0.9307  0.3630  2.4020
 3485SOL     OW11070   0.546   4.630   7.143 -0.3155 -0.3394 -0.2867
 3485SOL    HW111071   0.604   4.664   7.211 -0.6317 -1.5910  0.6455
 3485SOL    HW211072   0.596   4.640   7.061  1.3810 -1.6542  0.5120
 3486SOL     OW11073   5.188   6.869   5.619 -0.2484  0.0173  0.5690
 3486SOL    HW111074   5.194   6.891   5.712 -2.6317  0.8931  0.5904
 3486SOL    HW211075   5.226   6.945   5.575  0.6710 -0.2920  0.8212
 3487SOL     OW11076   6.109   4.412   3.299 -0.4406  0.7099  0.1330
 3487SOL    HW111077   6.203   4.402   3.317 -0.2617  2.7295  0.5998
 3487SOL    HW211078   6.105   4.460   3.216 -0.9070  3.3084  1.5458
 3488SOL     OW11079   2.555   1.810   0.703 -0.0460 -0.1014  0.0536
 3488SOL    HW111080   2.580   1.718   0.711 -0.6274 -0.5275 -2.2506
 3488SOL    HW211081   2.494   1.811   0.629  1.3487  2.3931 -1.1635
 3489SOL     OW11082   4.789   1.431   0.889 -0.6736 -0.1785 -0.4729
 3489SOL    HW111083   4.702   1.427   0.928 -0.9666  0.8218 -0.9926
 3489SOL    HW211084   4.847   1.452   0.962 -1.2663  2.1016 -0.5742
 3490SOL     OW11085   6.292   1.118   3.052 -0.4468  0.2631 -0.1793
 3490SOL    HW111086   6.330   1.157   3.131 -1.5132  1.3551 -0.1704
 3490SOL    HW211087   6.354   1.050   3.026  0.7057  0.9407  0.7086
 3491SOL     OW11088   4.373   4.673   3.836 -0.1607  0.1750 -0.0415
 3491SOL    HW111089   4.353   4.641   3.924 -0.3747  1.4547  0.3994
 3491SOL    HW211090   4.404   4.595   3.789 -3.2003 -1.2967  0.1310
 3492SOL     OW11091   5.588   6.652   2.838 -0.9211  0.2691 -0.3027
 3492SOL    HW111092   5.548   6.576   2.795  0.6665 -0.7733 -0.0581
 3492SOL    HW211093   5.620   6.706   2.765  0.7028 -0.9012 -0.5378
 3493SOL     OW11094   1.239   5.425   3.005  0.2626  0.5418  0.3977
 3493SOL    HW111095   1.326   5.407   3.042 -0.0539 -1.1820  0.3798
 3493SOL    HW211096   1.256   5.486   2.934  1.6357 -0.5977 -0.3153
 3494SOL     OW11097   4.123   2.288   1.860 -0.3848  0.0885  0.3127
 3494SOL    HW111098   4.164   2.358   1.809 -0.3031 -0.5535 -0.5146
 3494SOL    HW211099   4.196   2.230   1.883 -0.7020 -0.6566 -0.5167
 3495SOL     OW11100   0.061   1.653   6.892 -0.5563 -0.0239 -0.0149
 3495SOL    HW111101   0.113   1.661   6.812 -2.2422  0.2005 -1.1495
 3495SOL    HW211102   0.037   1.560   6.896 -1.0034  0.0802 -0.1459
 3496SOL     OW11103   3.836   1.474   0.464  0.5491  0.2848 -0.1791
 3496SOL    HW111104   3.795   1.391   0.485 -1.9126  2.2101  3.7197
 3496SOL    HW211105   3.793   1.504   0.383 -0.5361 -0.9453 -0.0673
 3497SOL     OW11106   3.938   3.053   2.274 -0.0383  0.0227  0.4182
 3497SOL    HW111107   3.917   3.039   2.367 -1.2805 -1.7682 -0.0643
 3497SOL    HW211108   3.956   3.147   2.267 -0.1542  0.2426  2.4164
 3498SOL     OW11109   3.755   5.064   1.047  0.4431  0.6238  0.6486
 3498SOL    HW111110   3.736   5.023   0.963 -1.2867  1.0959  0.7650
 3498SOL    HW211111   3.847   5.046   1.063  0.2016 -1.5995 -0.1865
 3499SOL     OW11112   0.245   0.173   2.496  0.3595 -0.0453 -0.0327
 3499SOL    HW111113   0.316   0.194   2.436  0.8798 -0.8966  0.2610
 3499SOL    HW211114   0.218   0.257   2.532 -0.9056  0.6875 -2.4530
 3500SOL     OW11115   6.540   4.955   6.898  0.1939 -0.0524  0.1095
 3500SOL    HW111116   6.482   5.031   6.901  2.8007  2.0719  2.1942
 3500SOL    HW211117   6.541   4.922   6.988 -1.5347 -3.2537 -0.9022
 3501SOL     OW11118   3.822   4.404   0.899  0.5194 -0.5580  0.2317
 3501SOL    HW111119   3.755   4.434   0.960 -0.3611  1.0562 -1.4224
 3501SOL    HW211120   3.903   4.402   0.949 -0.1931  0.5624  1.4696
 3502SOL     OW11121   0.405   6.423   5.246 -0.3082  1.1128  0.1219
 3502SOL    HW111122   0.361   6.495   5.291  1.3208  0.7417  2.4635
 3502SOL    HW211123   0.451   6.465   5.173 -1.1069  2.1026  0.1679
 3503SOL     OW11124   3.202   6.919   2.302  0.2750  0.1026 -0.3172
 3503SOL    HW111125   3.162   6.941   2.218  0.5257 -0.3240 -0.5537
 3503SOL    HW211126   3.285   6.877   2.279 -0.5449 -1.8672  0.0472
 3504SOL     OW11127   7.204   3.507   6.685 -0.0285 -0.2800 -0.2549
 3504SOL    HW111128   7.178   3.461   6.604 -0.3115  0.8737 -0.8468
 3504SOL    HW211129   7.299   3.510   6.681  0.0546 -1.5716  0.2381
 3505SOL     OW11130   2.596   0.695   0.948 -0.1990 -0.4661 -0.3234
 3505SOL    HW111131   2.592   0.655   0.861  0.8399 -0.3790 -0.4211
 3505SOL    HW211132   2.554   0.632   1.006 -0.0059 -0.9751 -0.7341
 3506SOL     OW11133   6.237   6.420   0.378 -0.4002 -0.0708  0.6622
 3506SOL    HW111134   6.242   6.341   0.432 -2.4096 -0.3483  0.5194
 3506SOL    HW211135   6.284   6.487   0.428 -1.4262 -0.5543  2.3333
 3507SOL     OW11136   0.267   4.600   6.827  0.6630  0.6873  0.3576
 3507SOL    HW111137   0.334   4.536   6.805  0.8419  0.4570  1.5249
 3507SOL    HW211138   0.198   4.550   6.870 -0.2827  0.9218 -0.8134
 3508SOL     OW11139   0.190   4.555   5.657 -0.0354 -0.1329 -0.1300
 3508SOL    HW111140   0.166   4.565   5.565 -0.9266  0.2776  0.1279
 3508SOL    HW211141   0.211   4.462   5.667  0.7577 -0.0401 -0.8962
 3509SOL     OW11142   4.519   5.204   1.379  0.3069 -0.1371  0.2206
 3509SOL    HW111143   4.485   5.141   1.316  0.4802 -0.6463  0.6217
 3509SOL    HW211144   4.555   5.149   1.450  1.0717  0.4009  0.2594
 3510SOL     OW11145   2.208   1.429   0.604  0.3676  0.5754  0.0345
 3510SOL    HW111146   2.133   1.381   0.638  1.8707 -1.1771  1.0517
 3510SOL    HW211147   2.262   1.363   0.560  3.2760  0.8433  2.8183
 3511SOL     OW11148   1.725   5.849   3.560 -0.0659 -0.4547 -0.2284
 3511SOL    HW111149   1.703   5.866   3.651 -0.6346 -0.9457 -0.2698
 3511SOL    HW211150   1.820   5.835   3.561 -0.0055 -0.0587  0.2194
 3512SOL     OW11151   7.104   0.401   1.354 -0.4293  0.1844  0.5423
 3512SOL    HW111152   7.104   0.413   1.259  1.5837 -0.3078  0.4224
 3512SOL    HW211153   7.147   0.479   1.388 -0.4338  0.0023  0.9736
 3513SOL     OW11154   1.540   4.136   6.722 -0.0378 -0.1347 -0.1804
 3513SOL    HW111155   1.519   4.166   6.811  2.0528 -0.8122  0.6077
 3513SOL    HW211156   1.604   4.199   6.691  0.4897 -0.8460 -0.5466
 3514SOL     OW11157   1.552   5.976   0.518  0.9917  0.3331 -0.0598
 3514SOL    HW111158   1.615   5.986   0.447  0.7037  0.9045 -0.2466
 3514SOL    HW211159   1.532   6.065   0.545  0.5274  0.1472  0.2310
 3515SOL     OW11160   4.429   2.573   3.049 -0.0116  0.1056 -0.1268
 3515SOL    HW111161   4.438   2.563   3.144 -0.4776 -0.1316 -0.1029
 3515SOL    HW211162   4.372   2.649   3.038 -0.1512 -0.0077 -0.2043
 3516SOL     OW11163   5.358   3.246   2.975 -0.6543  0.6146  0.0268
 3516SOL    HW111164   5.370   3.293   3.058  1.0284 -1.3289  0.9748
 3516SOL    HW211165   5.434   3.272   2.922 -0.4146 -0.0031  0.0571
 3517SOL     OW11166   2.001   0.578   5.589  0.0879 -0.1123  0.2581
 3517SOL    HW111167   2.026   0.504   5.645 -0.7121 -0.4732  0.1535
 3517SOL    HW211168   1.921   0.549   5.546  1.2011 -0.2264 -1.8445
 3518SOL     OW11169   0.719   0.374   5.482  0.0238  0.6256 -0.3529
 3518SOL    HW111170   0.785   0.431   5.521  0.2650  1.2736 -1.6337
 3518SOL    HW211171   0.642   0.430   5.470  0.1031  0.5697 -1.1848
 3519SOL     OW11172   4.181   0.234   3.673 -0.6048 -0.0045  0.1322
 3519SOL    HW111173   4.227   0.317   3.687 -0.1247 -0.3268  0.5035
 3519SOL    HW211174   4.217   0.176   3.740 -0.9850 -0.4949 -0.0887
 3520SOL     OW11175   4.471   3.038   3.935 -0.2650 -0.8742 -0.3099
 3520SOL    HW111176   4.411   3.092   3.987  0.1347  0.0515 -0.7914
 3520SOL    HW211177   4.440   3.048   3.845  1.8199  1.3330 -0.8733
 3521SOL     OW11178   2.386   1.362   6.108  0.5816 -0.8331 -0.3328
 3521SOL    HW111179   2.291   1.363   6.093  0.3529  0.8182  0.9545
 3521SOL    HW211180   2.395   1.372   6.203  2.0457 -2.6449 -0.2433
 3522SOL     OW11181   6.779   2.760   1.299 -0.1883  0.1977  0.6246
 3522SOL    HW111182   6.722   2.705   1.354 -0.2667  1.1104  1.4777
 3522SOL    HW211183   6.743   2.848   1.307 -0.9229  0.1906 -1.8732
 3523SOL     OW11184   5.883   5.370   6.830  0.0619  0.2632 -0.5466
 3523SOL    HW111185   5.932   5.296   6.793  0.4305  0.4599 -0.4515
 3523SOL    HW211186   5.947   5.417   6.883 -0.4993 -0.1098  0.4873
 3524SOL     OW11187   0.236   1.575   4.089  0.2012  0.0479  0.2237
 3524SOL    HW111188   0.153   1.531   4.071 -0.0830  0.6943 -0.0795
 3524SOL    HW211189   0.245   1.639   4.018  1.5790 -0.8838 -0.4780
 3525SOL     OW11190   2.472   4.066   4.057 -0.0926  0.5967  0.0256
 3525SOL    HW111191   2.433   4.141   4.012  1.0634  0.5169 -1.1765
 3525SOL    HW211192   2.557   4.099   4.088  0.9429 -0.5013 -1.5324
 3526SOL     OW11193   2.552   6.719   2.449 -0.5655 -0.5410 -0.1727
 3526SOL    HW111194   2.458   6.702   2.450 -0.9616  1.1361 -1.9189
 3526SOL    HW211195   2.562   6.794   2.390  1.5550  1.4133  2.4164
 3527SOL     OW11196   3.431   5.910   5.384  0.0384  0.3436  0.5018
 3527SOL    HW111197   3.474   5.830   5.413 -1.1471 -1.6158 -2.6296
 3527SOL    HW211198   3.339   5.900   5.410 -0.2223  0.4026 -0.3508
 3528SOL     OW11199   0.161   7.108   1.979 -0.7962 -0.6321  0.3905
 3528SOL    HW111200   0.170   7.127   2.073 -0.7929 -2.2490  0.7512
 3528SOL    HW211201   0.193   7.187   1.936  0.2925 -0.2740  1.7521
 3529SOL     OW11202   4.110   6.443   6.364 -0.1331  0.2377 -0.0818
 3529SOL    HW111203   4.166   6.511   6.327 -0.3224  0.7777  0.5990
 3529SOL    HW211204   4.153   6.419   6.447 -0.7918  0.5135  0.3481
 3530SOL     OW11205   0.180   3.872   2.851  0.3682  0.4345  0.6503
 3530SOL    HW111206   0.202   3.791   2.805  0.2510 -0.6153  2.3726
 3530SOL    HW211207   0.253   3.887   2.911  0.2460  1.4634  0.5706
 3531SOL     OW11208   5.773   4.293   0.394  0.2865 -0.0718 -0.2090
 3531SOL    HW111209   5.761   4.332   0.307 -0.1511 -0.3174 -0.2590
 3531SOL    HW211210   5.854   4.243   0.387  0.4247  0.1757 -0.3800
 3532SOL     OW11211   0.540   5.331   0.193 -0.3008 -0.4743 -0.3951
 3532SOL    HW111212   0.470   5.266   0.186 -1.3766  0.7456 -1.5342
 3532SOL    HW211213   0.512   5.388   0.265 -0.4839 -0.0222 -0.8122
 3533SOL     OW11214   6.273   4.221   5.966 -0.4411 -0.3839 -0.0986
 3533SOL    HW111215   6.305   4.311   5.971  0.1450 -0.5717 -0.3893
 3533SOL    HW211216   6.281   4.188   6.055 -1.7386  0.2051  0.2599
 3534SOL     OW11217   4.302   5.971   2.568 -0.0415  0.3591  0.5428
 3534SOL    HW111218   4.242   5.903   2.598 -1.7365  1.3439 -0.4352
 3534SOL    HW211219   4.252   6.052   2.577  0.7751  1.1183 -1.2226
 3535SOL     OW11220   2.267   5.986   5.566  0.5210  0.3008 -0.1286
 3535SOL    HW111221   2.308   6.036   5.636  0.3775 -0.0708  0.2277
 3535SOL    HW211222   2.339   5.957   5.511  0.6784  0.1858  0.1382
 3536SOL     OW11223   3.999   0.683   1.247  0.4874  0.6070 -0.2121
 3536SOL    HW111224   3.999   0.605   1.192 -1.1260  1.0292 -0.8767
 3536SOL    HW211225   4.087   0.721   1.235  0.9319 -0.5276 -0.6882
 3537SOL     OW11226   3.413   5.036   6.705 -0.1398 -0.0011  0.5406
 3537SOL    HW111227   3.490   5.040   6.762 -0.6446  0.8911  1.1699
 3537SOL    HW211228   3.349   4.984   6.754 -0.2560  0.0135  0.4062
 3538SOL     OW11229   6.956   2.048   0.534  0.4043  0.2676 -0.1999
 3538SOL    HW111230   6.955   2.135   0.495 -0.9956  0.5437  0.4170
 3538SOL    HW211231   6.958   1.988   0.458 -1.0059  0.8119 -0.6975
 3539SOL     OW11232   4.700   6.467   2.098 -0.1159  0.4697  0.7418
 3539SOL    HW111233   4.624   6.517   2.070 -2.5262 -1.7483  2.7228
 3539SOL    HW211234   4.747   6.448   2.018 -1.9948  1.4253 -0.6682
 3540SOL     OW11235   3.824   2.813   6.986  0.2031  0.2644 -0.8259
 3540SOL    HW111236   3.908   2.856   6.997  0.4371 -0.4099  0.1484
 3540SOL    HW211237   3.825   2.782   6.895  0.5859  1.1029 -1.1168
 3541SOL     OW11238   0.474   0.260   4.548  0.1899  0.4696  0.0589
 3541SOL    HW111239   0.477   0.182   4.492  0.4570  1.2197 -1.0174
 3541SOL    HW211240   0.530   0.324   4.503  0.7312  0.9763  1.4115
 3542SOL     OW11241   1.388   2.517   3.079 -0.4745 -0.1294  0.0037
 3542SOL    HW111242   1.403   2.423   3.077  0.5570 -0.0414  1.7889
 3542SOL    HW211243   1.474   2.556   3.063  0.3057  0.4149  4.3504
 3543SOL     OW11244   4.399   6.186   6.134 -0.8354 -0.2775 -0.0558
 3543SOL    HW111245   4.310   6.158   6.153 -1.3381  1.0153 -0.4727
 3543SOL    HW211246   4.428   6.128   6.063 -0.8749 -1.5292  0.9228
 3544SOL     OW11247   5.592   6.238   0.768 -0.1664  0.2179 -0.4054
 3544SOL    HW111248   5.585   6.145   0.792  1.3086  0.2096  0.1194
 3544SOL    HW211249   5.504   6.272   0.779 -0.3441 -0.6641  1.4257
 3545SOL     OW11250   4.405   6.387   4.279 -0.7775  0.1155  0.5784
 3545SOL    HW111251   4.436   6.339   4.355  0.0073 -1.5472 -0.7319
 3545SOL    HW211252   4.335   6.443   4.313  1.0940  1.2022  2.9261
 3546SOL     OW11253   1.837   6.405   6.332 -0.1655 -0.2228 -0.1711
 3546SOL    HW111254   1.798   6.458   6.263 -0.2522 -0.9965 -0.7209
 3546SOL    HW211255   1.885   6.336   6.286  1.1911  0.2235  0.4944
 3547SOL     OW11256   5.858   3.495   5.721 -0.9450  0.2068 -0.5110
 3547SOL    HW111257   5.902   3.503   5.805 -1.4590  1.6311 -0.3518
 3547SOL    HW211258   5.918   3.443   5.667 -0.3132 -0.1581  0.5155
 3548SOL     OW11259   0.949   3.785   4.670 -0.3259 -0.4237 -0.5010
 3548SOL    HW111260   0.962   3.857   4.608 -0.3740 -1.7934 -2.1859
 3548SOL    HW211261   0.931   3.709   4.614 -1.8062 -1.4292  1.2706
 3549SOL     OW11262   5.016   1.742   4.200  0.0741 -0.1908 -0.0771
 3549SOL    HW111263   5.043   1.834   4.199 -0.1968 -0.1075 -1.8217
 3549SOL    HW211264   5.085   1.698   4.251  1.1600  0.7056 -0.7180
 3550SOL     OW11265   5.755   6.654   0.333 -0.1165 -0.1015 -0.6946
 3550SOL    HW111266   5.799   6.637   0.417  0.1845  1.0111 -0.6073
 3550SOL    HW211267   5.693   6.581   0.323  0.1575 -0.4872  0.2784
 3551SOL     OW11268   4.059   3.816   5.560  0.2941  0.1675  0.4175
 3551SOL    HW111269   4.044   3.721   5.557  1.7851 -0.0740 -1.4136
 3551SOL    HW211270   4.128   3.827   5.626 -0.1853  0.0350  0.9458
 3552SOL     OW11271   6.032   6.108   5.951 -0.9068  0.3577 -0.4868
 3552SOL    HW111272   6.101   6.083   5.889 -1.6121 -1.9500 -0.4091
 3552SOL    HW211273   6.078   6.125   6.033 -0.4259 -1.9687 -0.2099
 3553SOL     OW11274   0.684   5.856   5.967 -0.0696  0.1958  0.6271
 3553SOL    HW111275   0.618   5.812   6.021  2.2754 -0.3185  3.2967
 3553SOL    HW211276   0.738   5.785   5.933 -0.5509  0.6388 -1.1879
 3554SOL     OW11277   4.403   0.637   5.262  0.0896 -0.1219 -0.5446
 3554SOL    HW111278   4.438   0.711   5.312  1.6733 -2.1044  1.5293
 3554SOL    HW211279   4.320   0.616   5.305 -0.8554  0.9739 -1.7540
 3555SOL     OW11280   1.239   2.130   1.221  0.3582 -0.0540  0.1204
 3555SOL    HW111281   1.265   2.082   1.142 -2.2980 -1.5155  0.0119
 3555SOL    HW211282   1.200   2.211   1.188 -1.0864 -0.8299 -0.1457
 3556SOL     OW11283   3.894   7.169   3.664 -0.3711  0.2327 -0.2914
 3556SOL    HW111284   3.952   7.096   3.641 -1.0857 -0.5271  0.2824
 3556SOL    HW211285   3.856   7.144   3.749 -1.5231  0.7292 -0.6429
 3557SOL     OW11286   6.979   1.718   1.835  0.0426 -0.0716  0.0964
 3557SOL    HW111287   6.925   1.640   1.847 -2.3255  0.9996 -2.5240
 3557SOL    HW211288   7.062   1.684   1.800 -1.1653 -1.4558 -1.6263
 3558SOL     OW11289   1.116   4.603   3.981  0.7472 -0.5159 -0.1069
 3558SOL    HW111290   1.122   4.696   4.004  0.5270 -1.0324  2.3139
 3558SOL    HW211291   1.023   4.587   3.969  0.6795 -0.6183  0.5058
 3559SOL     OW11292   2.891   5.920   4.195  0.2287  0.2868 -0.0241
 3559SOL    HW111293   2.907   5.826   4.198 -0.0920  0.2249 -0.2085
 3559SOL    HW211294   2.799   5.929   4.220 -0.1320  0.4409 -1.3774
 3560SOL     OW11295   1.910   2.913   4.938  0.1635  0.0262 -0.1102
 3560SOL    HW111296   1.855   2.836   4.923 -1.1684  1.1252 -1.2192
 3560SOL    HW211297   1.871   2.981   4.882  1.2107  1.5362  0.9231
 3561SOL     OW11298   0.888   4.824   5.374  0.1722 -0.4899 -0.4669
 3561SOL    HW111299   0.812   4.829   5.316  1.4042 -0.8277 -2.1674
 3561SOL    HW211300   0.878   4.740   5.419  0.0737 -1.0228 -1.4604
 3562SOL     OW11301   0.017   1.137   6.949 -0.0573  0.5770  0.0425
 3562SOL    HW111302   0.017   1.073   6.878 -1.1943 -0.0110  0.5429
 3562SOL    HW211303   0.055   1.090   7.023  0.1862  0.8588  0.0970
 3563SOL     OW11304   0.945   3.164   4.928  0.2856 -0.0690 -0.6112
 3563SOL    HW111305   1.040   3.170   4.924  0.3862  0.8471  1.6849
 3563SOL    HW211306   0.922   3.202   5.013 -1.9848 -1.8200 -0.3431
 3564SOL     OW11307   4.555   2.196   4.996 -0.4234  0.5137  0.1411
 3564SOL    HW111308   4.641   2.220   5.031 -1.0794  0.6695  1.7087
 3564SOL    HW211309   4.574   2.126   4.934  1.1313  2.3739 -1.6605
 3565SOL     OW11310   2.481   2.766   3.027  0.1816  0.0239  0.1608
 3565SOL    HW111311   2.552   2.720   3.071  2.3261  1.2146 -1.7845
 3565SOL    HW211312   2.447   2.703   2.963 -0.2526 -0.4186  0.8217
 3566SOL     OW11313   3.343   0.438   5.138 -0.6146  0.4496  0.0465
 3566SOL    HW111314   3.326   0.439   5.044 -1.4074 -0.7601  0.1475
 3566SOL    HW211315   3.424   0.488   5.149 -0.5723  0.7000 -1.2546
 3567SOL     OW11316   2.715   5.798   7.014  0.3559  0.1442  0.0155
 3567SOL    HW111317   2.630   5.758   6.996  1.3507 -1.0297 -2.6595
 3567SOL    HW211318   2.764   5.729   7.058  0.9838 -0.5136 -1.6078
 3568SOL     OW11319   3.395   4.627   1.963 -0.0808 -0.0894 -0.4082
 3568SOL    HW111320   3.388   4.551   1.905  1.7971 -0.5313 -0.1193
 3568SOL    HW211321   3.429   4.697   1.907  0.7836 -0.2375 -0.0785
 3569SOL     OW11322   5.068   3.762   0.684  1.2111 -0.3032 -0.6199
 3569SOL    HW111323   5.046   3.841   0.634  0.9839  0.4202  0.5927
 3569SOL    HW211324   5.151   3.783   0.726  1.5668 -1.0320 -0.9583
 3570SOL     OW11325   0.063   0.072   1.174 -0.2317  0.2734  0.1631
 3570SOL    HW111326   0.010   0.120   1.110  0.1299  1.6642  0.8521
 3570SOL    HW211327   0.153   0.095   1.152 -0.0982  0.6647  1.0586
 3571SOL     OW11328   4.226   0.562   0.048  0.3050 -0.0229  0.5765
 3571SOL    HW111329   4.201   0.584   0.138  0.9816  0.6799  0.6007
 3571SOL    HW211330   4.310   0.606   0.035  0.3869 -0.4215 -0.2792
 3572SOL     OW11331   7.229   5.975   3.297  0.0122 -0.1850  0.4386
 3572SOL    HW111332   7.287   5.915   3.343  0.8298 -1.9523 -2.6227
 3572SOL    HW211333   7.156   5.920   3.268 -0.3835  0.7844 -0.4718
 3573SOL     OW11334   6.806   2.431   1.665  0.2868  0.2842  0.2165
 3573SOL    HW111335   6.848   2.459   1.584 -1.5717  1.4336 -0.4051
 3573SOL    HW211336   6.788   2.338   1.652 -0.4644  0.5705 -0.9496
 3574SOL     OW11337   4.006   1.770   4.024 -0.3029 -0.0654 -0.0048
 3574SOL    HW111338   4.051   1.847   4.058 -0.0933 -0.7992  1.4507
 3574SOL    HW211339   3.916   1.780   4.054 -0.2470 -0.4501  0.2935
 3575SOL     OW11340   0.600   3.857   3.465  0.1509  0.1349 -0.1366
 3575SOL    HW111341   0.567   3.928   3.521 -0.3882  1.4761 -2.0583
 3575SOL    HW211342   0.583   3.777   3.515  0.5445  1.3234  1.9975
 3576SOL     OW11343   2.063   4.141   4.814 -0.1147  0.4969  0.1262
 3576SOL    HW111344   2.012   4.217   4.843  1.0177  1.5757 -0.6313
 3576SOL    HW211345   2.036   4.128   4.722 -0.1870  0.0743  0.2050
 3577SOL     OW11346   1.918   5.988   1.804 -0.5313  0.4778  0.5130
 3577SOL    HW111347   1.960   6.001   1.889  0.7611 -0.1958 -0.0058
 3577SOL    HW211348   1.958   6.053   1.747 -0.7510  0.3341  0.1925
 3578SOL     OW11349   3.019   4.806   0.177 -0.3141  0.6680  0.5753
 3578SOL    HW111350   2.944   4.776   0.125  0.1451 -0.7675  0.6845
 3578SOL    HW211351   3.088   4.820   0.112  0.2532 -1.1048  0.7336
 3579SOL     OW11352   5.211   6.418   0.094 -0.0630  0.3997  0.3672
 3579SOL    HW111353   5.277   6.400   0.027 -0.8512 -0.9091 -0.0853
 3579SOL    HW211354   5.153   6.483   0.054  0.8690  1.4960  0.7359
 3580SOL     OW11355   2.574   4.676   1.891 -0.1487 -0.1592  0.3619
 3580SOL    HW111356   2.567   4.770   1.875  0.7268  0.0805  1.2922
 3580SOL    HW211357   2.616   4.669   1.976 -0.7932 -1.4046  0.5992
 3581SOL     OW11358   4.940   3.175   1.316 -0.5757 -0.1307  0.3350
 3581SOL    HW111359   4.998   3.248   1.340 -0.0480 -0.5350  0.3089
 3581SOL    HW211360   4.996   3.097   1.323 -1.2813 -0.5948  0.9029
 3582SOL     OW11361   3.140   4.961   5.203 -0.0862 -0.2356  0.0781
 3582SOL    HW111362   3.101   5.047   5.217 -0.3009 -0.1538 -0.9602
 3582SOL    HW211363   3.074   4.912   5.156 -0.3493 -1.3129  1.4918
 3583SOL     OW11364   2.757   1.497   5.439  0.3556 -0.8870 -0.2487
 3583SOL    HW111365   2.803   1.581   5.437  0.0611 -0.7356 -1.0975
 3583SOL    HW211366   2.742   1.480   5.532  1.1218 -0.3900 -0.0296
 3584SOL     OW11367   0.896   1.512   5.991  0.2768 -0.0384 -0.4785
 3584SOL    HW111368   0.892   1.563   5.910 -1.7482 -1.0246 -1.0693
 3584SOL    HW211369   0.812   1.529   6.034 -0.2090 -2.3205 -0.3979
 3585SOL     OW11370   0.505   3.176   3.710 -0.1799  0.0315 -0.5397
 3585SOL    HW111371   0.594   3.159   3.740 -0.0046 -0.6493 -1.4109
 3585SOL    HW211372   0.460   3.092   3.720 -0.1778 -0.1504 -1.9233
 3586SOL     OW11373   3.623   0.407   4.363  0.2761 -0.0936 -0.1267
 3586SOL    HW111374   3.705   0.456   4.359  0.5100  0.0880  3.2613
 3586SOL    HW211375   3.555   0.474   4.373  0.0066 -0.3077 -0.5055
 3587SOL     OW11376   3.504   2.342   1.850  0.1237  0.1123 -0.0467
 3587SOL    HW111377   3.462   2.425   1.829  0.3047  0.0079 -0.8519
 3587SOL    HW211378   3.431   2.280   1.855  0.2377 -0.7501 -4.5880
 3588SOL     OW11379   3.921   5.183   0.666  0.0197 -0.2489  0.7478
 3588SOL    HW111380   4.007   5.204   0.629  0.1083  0.1822  1.1881
 3588SOL    HW211381   3.913   5.239   0.743 -0.5708 -0.4353  0.8327
 3589SOL     OW11382   1.666   0.286   0.382 -0.5481  0.2026 -0.0822
 3589SOL    HW111383   1.638   0.194   0.385 -0.3730  0.0955 -1.1442
 3589SOL    HW211384   1.609   0.331   0.444 -0.7634 -0.5974  0.3042
 3590SOL     OW11385   5.023   1.427   3.494  0.1605  0.3449  0.2797
 3590SOL    HW111386   4.947   1.441   3.437 -0.7923 -0.9868  1.1487
 3590SOL    HW211387   4.998   1.352   3.549  1.4931  0.8598  1.6597
 3591SOL     OW11388   6.462   4.098   4.627  0.2496  0.0310  0.8982
 3591SOL    HW111389   6.456   4.095   4.723 -1.6837  0.1504  0.8160
 3591SOL    HW211390   6.472   4.191   4.608  1.2507 -0.0467  0.9903
 3592SOL     OW11391   0.718   6.365   7.209 -0.4805  0.0490 -0.5075
 3592SOL    HW111392   0.633   6.333   7.180 -0.5786  0.0779 -0.2513
 3592SOL    HW211393   0.771   6.286   7.218 -0.3845  0.0556 -0.9665
 3593SOL     OW11394   3.882   2.891   3.794 -0.2161  0.3289  0.0118
 3593SOL    HW111395   3.850   2.929   3.712  0.0699  0.0360 -0.2403
 3593SOL    HW211396   3.861   2.798   3.786  0.6006  0.1501 -0.1097
 3594SOL     OW11397   0.288   2.912   6.163  0.2296  0.1288 -0.2023
 3594SOL    HW111398   0.263   2.823   6.185 -0.9218  0.0929 -1.4805
 3594SOL    HW211399   0.265   2.964   6.240  1.7271 -0.7598  0.9043
 3595SOL     OW11400   4.451   6.452   6.189 -0.8183  0.5594 -0.0863
 3595SOL    HW111401   4.363   6.479   6.164 -0.1901  1.3354 -1.5629
 3595SOL    HW211402   4.454   6.359   6.167 -1.5323  0.3178  0.7805
 3596SOL     OW11403   0.152   4.567   5.369 -0.2410  0.2656 -0.0516
 3596SOL    HW111404   0.062   4.555   5.401 -0.1599 -0.1832  0.0105
 3596SOL    HW211405   0.168   4.491   5.314  0.0505  0.4260 -0.1899
 3597SOL     OW11406   1.726   7.119   5.029  0.0682 -0.1083 -0.8222
 3597SOL    HW111407   1.735   7.072   4.946 -0.6639 -1.7133 -0.0357
 3597SOL    HW211408   1.684   7.056   5.088 -0.6073  1.4231  0.4086
 3598SOL     OW11409   3.383   2.593   0.418 -0.0778  0.3908 -0.4868
 3598SOL    HW111410   3.343   2.541   0.487  0.8788  0.5958  0.2389
 3598SOL    HW211411   3.367   2.544   0.338 -3.1422  1.2162 -0.4943
 3599SOL     OW11412   3.950   4.178   6.617  0.0280  0.3846 -0.0534
 3599SOL    HW111413   4.016   4.242   6.592  0.3604 -0.8528 -2.7146
 3599SOL    HW211414   3.886   4.228   6.668  1.1882  2.3955 -0.4664
 3600SOL     OW11415   3.005   4.411   4.843 -0.3674  0.6697 -0.3897
 3600SOL    HW111416   3.015   4.327   4.888  0.2508  1.2975  0.6928
 3600SOL    HW211417   2.952   4.391   4.765  0.9494 -0.9756 -0.9214
 3601SOL     OW11418   4.120   6.472   4.252 -0.4038 -0.2524  0.1959
 3601SOL    HW111419   4.024   6.481   4.247 -0.5491 -1.0518  1.2534
 3601SOL    HW211420   4.147   6.540   4.314 -0.3407 -0.3460  0.2703
 3602SOL     OW11421   0.246   0.993   3.356  0.0678 -0.4728  0.3627
 3602SOL    HW111422   0.205   0.994   3.269 -1.3014 -1.1773  0.9693
 3602SOL    HW211423   0.326   0.940   3.344 -0.0140 -0.4159 -0.4964
 3603SOL     OW11424   4.042   3.504   3.050  0.4623 -0.3118  0.1539
 3603SOL    HW111425   4.041   3.431   3.111 -0.7406 -0.3697  0.0901
 3603SOL    HW211426   4.123   3.494   3.001  0.7700 -1.0481  0.8096
 3604SOL     OW11427   2.760   0.276   3.673 -0.1274  0.0607 -0.0985
 3604SOL    HW111428   2.793   0.206   3.729 -1.6474 -1.3110 -0.8131
 3604SOL    HW211429   2.671   0.291   3.703 -0.7466 -0.2394 -1.6698
 3605SOL     OW11430   5.089   1.826   0.641  0.1231  0.1518 -0.2884
 3605SOL    HW111431   5.081   1.918   0.615  1.3614  0.5465  0.6294
 3605SOL    HW211432   5.003   1.789   0.624 -0.9056  1.8702  0.7971
 3606SOL     OW11433   2.990   2.245   2.796 -0.0384 -0.5220  0.6909
 3606SOL    HW111434   3.070   2.254   2.847 -0.5336 -1.8249  1.7744
 3606SOL    HW211435   2.925   2.214   2.859 -1.1035 -0.5890 -0.3981
 3607SOL     OW11436   1.713   6.233   5.407 -0.3537  0.4921  0.1163
 3607SOL    HW111437   1.725   6.309   5.465 -1.2236  1.5091 -0.9719
 3607SOL    HW211438   1.800   6.216   5.372  0.3069 -0.5439  2.1695
 3608SOL     OW11439   5.526   2.608   2.269  0.1565  0.2458 -0.1539
 3608SOL    HW111440   5.576   2.615   2.351 -0.8491 -3.5122  0.9555
 3608SOL    HW211441   5.434   2.613   2.296 -0.1982  1.3347 -1.4352
 3609SOL     OW11442   5.590   0.800   0.330  0.1779  0.0915 -0.1060
 3609SOL    HW111443   5.530   0.757   0.391  0.4151  0.9599  0.7645
 3609SOL    HW211444   5.558   0.890   0.323  0.3750  0.1079 -0.9903
 3610SOL     OW11445   2.409   3.834   3.706 -0.0897  0.2265 -0.1499
 3610SOL    HW111446   2.339   3.776   3.676 -0.8337  2.6324 -3.7021
 3610SOL    HW211447   2.486   3.804   3.658  0.3214  0.1611  0.5436
 3611SOL     OW11448   1.480   6.426   0.793  0.1430 -0.1965  0.5897
 3611SOL    HW111449   1.556   6.484   0.793  0.1618 -0.1409 -1.6147
 3611SOL    HW211450   1.409   6.479   0.757  0.0601 -1.3865 -1.0863
 3612SOL     OW11451   3.730   1.003   2.966  0.6799 -0.2129  0.1622
 3612SOL    HW111452   3.645   0.983   3.005  0.2836 -2.1329 -1.5013
 3612SOL    HW211453   3.726   1.098   2.948 -0.5459 -0.0149  1.3510
 3613SOL     OW11454   1.080   2.469   4.759  0.4414  0.0306 -0.1166
 3613SOL    HW111455   1.075   2.558   4.725  0.7952 -0.0126 -0.2805
 3613SOL    HW211456   1.088   2.413   4.682  1.2641 -0.0645  0.0280
 3614SOL     OW11457   4.360   4.563   1.880 -0.2433  0.3088 -0.5106
 3614SOL    HW111458   4.436   4.577   1.824  0.0323  0.8681 -0.0036
 3614SOL    HW211459   4.289   4.609   1.837 -0.3538 -0.3716 -1.0852
 3615SOL     OW11460   0.673   5.979   1.829  0.2234  0.3367 -0.0621
 3615SOL    HW111461   0.739   5.910   1.834 -0.0758  0.0640  0.1747
 3615SOL    HW211462   0.702   6.035   1.757 -0.7886 -1.3555 -1.8955
 3616SOL     OW11463   2.468   4.133   2.831 -0.6324 -0.8552 -0.0664
 3616SOL    HW111464   2.434   4.164   2.747 -1.0181 -0.8882  0.0776
 3616SOL    HW211465   2.412   4.175   2.897  1.1256  1.0961  0.2901
 3617SOL     OW11466   4.451   0.782   6.243 -0.4592  0.2148  0.3381
 3617SOL    HW111467   4.479   0.781   6.151 -0.3421 -0.3540  0.3773
 3617SOL    HW211468   4.357   0.768   6.239 -0.3375 -0.6548  0.3401
 3618SOL     OW11469   4.038   3.304   4.492  0.1884  0.3655 -0.0186
 3618SOL    HW111470   4.019   3.292   4.399  2.8165 -5.0339 -0.2367
 3618SOL    HW211471   3.961   3.268   4.537  0.1963  0.1735 -0.1612
 3619SOL     OW11472   0.272   0.815   5.849  0.8369 -0.2258 -0.2043
 3619SOL    HW111473   0.218   0.805   5.928  1.2012 -0.5777  0.0071
 3619SOL    HW211474   0.237   0.892   5.806 -0.7931 -1.2570 -0.8360
 3620SOL     OW11475   4.562   0.086   5.583 -0.6934  0.2261  0.3313
 3620SOL    HW111476   4.468   0.082   5.599 -0.7552 -0.5237 -0.1802
 3620SOL    HW211477   4.596   0.003   5.617 -0.3284  0.1614 -0.1766
 3621SOL     OW11478   0.240   1.516   1.344 -0.2007  0.3032 -0.7665
 3621SOL    HW111479   0.229   1.423   1.362 -2.8338  0.9225  1.5964
 3621SOL    HW211480   0.335   1.528   1.339  0.2852 -2.2549  0.4353
 3622SOL     OW11481   3.003   1.332   0.967  0.2928  0.0586 -0.1619
 3622SOL    HW111482   2.987   1.417   0.927 -2.5466 -0.6590 -0.7549
 3622SOL    HW211483   3.099   1.322   0.966  0.5495  1.8975 -2.8808
 3623SOL     OW11484   3.782   3.947   6.571 -0.1122  0.0280  0.1808
 3623SOL    HW111485   3.815   4.007   6.638 -1.7959  0.3984  0.7347
 3623SOL    HW211486   3.764   4.003   6.496  0.4996 -0.1642 -0.1081
 3624SOL     OW11487   2.933   0.720   4.960 -0.1214  0.1027 -0.3739
 3624SOL    HW111488   3.017   0.686   4.929  0.5237 -0.1618  1.5091
 3624SOL    HW211489   2.882   0.642   4.981 -0.3374  0.2627 -0.3050
 3625SOL     OW11490   1.322   1.765   2.026 -0.5596 -0.1769  0.2140
 3625SOL    HW111491   1.386   1.762   2.097  1.5345 -0.4614 -1.6003
 3625SOL    HW211492   1.373   1.785   1.948 -2.3297 -2.5747 -1.7109
 3626SOL     OW11493   7.175   0.976   0.210  0.4177  0.2786 -0.1847
 3626SOL    HW111494   7.223   0.909   0.259 -0.6438  1.3764  2.5301
 3626SOL    HW211495   7.222   1.057   0.228 -0.9963  0.9719  0.4993
 3627SOL     OW11496   2.501   1.187   5.916  0.0831  0.0340 -0.2373
 3627SOL    HW111497   2.453   1.259   5.959 -1.0354  0.3691 -1.9474
 3627SOL    HW211498   2.476   1.109   5.965 -1.7405  0.3028 -0.6748
 3628SOL     OW11499   1.789   5.641   5.894 -0.0184 -1.1514  0.1987
 3628SOL    HW111500   1.782   5.677   5.983  0.3309 -0.9468  0.1418
 3628SOL    HW211501   1.706   5.593   5.882 -0.1051 -1.1105  0.6014
 3629SOL     OW11502   1.375   5.100   3.994 -0.2267 -0.0882  0.3394
 3629SOL    HW111503   1.439   5.076   4.062  1.2072  0.5007 -0.7429
 3629SOL    HW211504   1.362   5.194   4.007  0.4733  0.1386 -0.5082
 3630SOL     OW11505   6.169   0.649   4.767 -0.0452  0.4539  0.2525
 3630SOL    HW111506   6.092   0.628   4.714 -0.7510  0.7358  1.1434
 3630SOL    HW211507   6.231   0.685   4.704 -0.7677  0.5433 -0.4353
 3631SOL     OW11508   0.166   5.148   3.321  0.0233 -0.0218 -0.6279
 3631SOL    HW111509   0.245   5.201   3.310  0.2432 -0.1016  0.4420
 3631SOL    HW211510   0.199   5.058   3.326  0.0029  0.0294  0.9392
 3632SOL     OW11511   3.065   3.659   4.941 -0.0869  0.1052  0.3211
 3632SOL    HW111512   3.071   3.629   5.032 -1.3832 -0.1953  0.3286
 3632SOL    HW211513   3.139   3.719   4.930  0.5729 -0.5078  1.3190
 3633SOL     OW11514   6.450   4.230   1.450 -0.5279  0.3160  0.5555
 3633SOL    HW111515   6.385   4.229   1.380  0.8441 -0.4183 -0.7515
 3633SOL    HW211516   6.471   4.323   1.462 -0.2034  0.3986 -0.5718
 3634SOL     OW11517   7.251   2.825   5.077 -0.3539 -0.0479  0.0668
 3634SOL    HW111518   7.159   2.845   5.092 -0.4810  0.1919 -0.9413
 3634SOL    HW211519   7.288   2.907   5.043 -0.0394 -0.4557 -0.6066
 3635SOL     OW11520   3.458   7.113   1.892 -0.4653  0.2459  0.2357
 3635SOL    HW111521   3.439   7.176   1.962  0.1932  0.2654  0.4092
 3635SOL    HW211522   3.531   7.062   1.926 -0.0405  0.3476 -0.4936
 3636SOL     OW11523   0.743   7.170   0.401 -0.3071 -0.1807 -0.2483
 3636SOL    HW111524   0.694   7.222   0.337  1.3042  3.1726  1.0165
 3636SOL    HW211525   0.715   7.204   0.486  0.4353 -1.8286  0.6975
 3637SOL     OW11526   3.610   6.491   6.508  0.3994  0.8284  0.5961
 3637SOL    HW111527   3.530   6.505   6.456  0.4522  0.0120  0.2714
 3637SOL    HW211528   3.681   6.520   6.451  0.3481  1.3320  0.7917
 3638SOL     OW11529   6.077   5.823   2.704 -0.0131  0.3781 -0.2261
 3638SOL    HW111530   6.064   5.728   2.705  0.7064  0.2768  0.7057
 3638SOL    HW211531   6.097   5.843   2.612 -1.1885 -0.2088 -0.6305
 3639SOL     OW11532   2.892   3.627   3.994 -1.1460 -0.0573  0.5765
 3639SOL    HW111533   2.801   3.636   4.024 -1.2172  0.7249  0.1557
 3639SOL    HW211534   2.905   3.533   3.986 -1.3142 -0.2767  2.4238
 3640SOL     OW11535   0.745   2.407   3.480  0.7155  0.4215 -0.2806
 3640SOL    HW111536   0.728   2.395   3.574  0.7074  2.1576 -0.0420
 3640SOL    HW211537   0.798   2.330   3.457 -0.4363 -0.7543  0.8114
 3641SOL     OW11538   1.179   5.091   0.672  0.0794  0.7171 -0.0970
 3641SOL    HW111539   1.154   5.148   0.745  0.3636  0.6808  0.0293
 3641SOL    HW211540   1.261   5.050   0.700 -1.0075 -1.1150  0.5636
 3642SOL     OW11541   6.285   6.099   2.504  0.2185 -0.0383  0.1012
 3642SOL    HW111542   6.277   6.132   2.593  1.5302 -0.2860  0.3383
 3642SOL    HW211543   6.299   6.177   2.451  0.4734  0.0340  0.2690
 3643SOL     OW11544   0.558   0.939   1.680 -0.1760  0.6129 -0.0955
 3643SOL    HW111545   0.538   0.992   1.757 -0.6890  0.0396  0.1771
 3643SOL    HW211546   0.634   0.887   1.705 -0.6839  0.0124  0.2410
 3644SOL     OW11547   1.585   0.001   6.903  0.4243  0.3503  0.2567
 3644SOL    HW111548   1.548  -0.033   6.984 -1.3177 -1.4326 -1.1769
 3644SOL    HW211549   1.617  -0.077   6.857 -0.1407  1.0651 -1.4481
 3645SOL     OW11550   1.759   3.741   5.810  0.0744 -0.3348 -0.3851
 3645SOL    HW111551   1.790   3.798   5.740 -0.0663 -0.6659 -0.7213
 3645SOL    HW211552   1.770   3.652   5.775 -0.0617 -0.4973 -0.0149
 3646SOL     OW11553   3.619   2.031   5.253  0.0042 -0.0210 -0.4922
 3646SOL    HW111554   3.543   1.974   5.268 -1.1343  1.0611 -1.8536
 3646SOL    HW211555   3.663   1.992   5.178  0.6419 -0.4742  0.1075
 3647SOL     OW11556   0.601   3.660   4.132 -0.3478  0.1475  0.5046
 3647SOL    HW111557   0.680   3.688   4.178  0.5828 -1.0884 -0.2534
 3647SOL    HW211558   0.611   3.565   4.123 -1.5504  0.0721 -0.2842
 3648SOL     OW11559   2.197   1.692   3.349 -0.5108  0.4294 -0.1149
 3648SOL    HW111560   2.228   1.761   3.407 -1.0034  0.7989 -0.2796
 3648SOL    HW211561   2.229   1.611   3.388 -0.5330  0.7004  0.4721
 3649SOL     OW11562   1.186   0.448   3.782 -0.0828 -0.2770  0.0191
 3649SOL    HW111563   1.154   0.477   3.867 -2.0883  0.1997 -0.8239
 3649SOL    HW211564   1.165   0.355   3.779  2.8893 -1.0730  1.2324
 3650SOL     OW11565   3.296   4.134   2.984  0.2404 -0.0475  1.0218
 3650SOL    HW111566   3.335   4.072   2.922 -0.4861  0.5535 -0.0570
 3650SOL    HW211567   3.286   4.083   3.065  1.9643 -0.6151  0.9231
 3651SOL     OW11568   2.854   0.445   6.234  0.1398 -0.3036 -0.2222
 3651SOL    HW111569   2.907   0.415   6.161  0.4389 -0.6462  0.1328
 3651SOL    HW211570   2.783   0.382   6.240 -1.8347  1.5182 -2.3225
 3652SOL     OW11571   1.867   2.682   0.470  0.2676  0.6102  0.5068
 3652SOL    HW111572   1.924   2.608   0.492 -0.1481  0.3904  0.8693
 3652SOL    HW211573   1.845   2.669   0.377 -0.3454 -0.1026  0.7409
 3653SOL     OW11574   3.464   1.693   6.892 -0.1612 -0.6160  0.0523
 3653SOL    HW111575   3.500   1.660   6.974  1.2784 -2.1818 -1.1323
 3653SOL    HW211576   3.389   1.746   6.918  2.2374  1.8362  2.6168
 3654SOL     OW11577   1.058   3.082   1.707 -0.4087  0.3176 -0.0808
 3654SOL    HW111578   1.076   3.012   1.770  1.1860  0.8441  0.1029
 3654SOL    HW211579   0.966   3.070   1.683 -1.0380  0.0070  2.2386
 3655SOL     OW11580   1.367   1.464   2.328 -0.1274  0.0668  0.2678
 3655SOL    HW111581   1.373   1.379   2.370 -0.0934 -0.0131  0.0996
 3655SOL    HW211582   1.273   1.483   2.327 -0.3155 -0.8217 -1.4051
 3656SOL     OW11583   1.398   6.173   5.638 -0.1985  0.5029 -0.3048
 3656SOL    HW111584   1.483   6.201   5.606 -0.6270  1.7146 -0.4219
 3656SOL    HW211585   1.346   6.253   5.642 -1.2708 -0.1856 -0.0380
 3657SOL     OW11586   2.733   2.228   7.199 -0.2265  0.5303 -0.2741
 3657SOL    HW111587   2.763   2.186   7.280  1.5135  1.3972 -0.4410
 3657SOL    HW211588   2.688   2.157   7.152  0.0897 -0.3901  0.7524
 3658SOL     OW11589   6.497   6.250   2.746  0.2778  0.0222 -0.9014
 3658SOL    HW111590   6.403   6.242   2.761 -0.2551  2.7169 -2.1619
 3658SOL    HW211591   6.520   6.336   2.783  1.7158  0.4613 -2.6603
 3659SOL     OW11592   2.725   3.394   5.835 -0.1622 -0.8424 -0.2563
 3659SOL    HW111593   2.710   3.397   5.741 -0.5937 -1.6175 -0.2159
 3659SOL    HW211594   2.661   3.456   5.871 -1.6866 -2.3125 -0.2925
 3660SOL     OW11595   1.933   3.369   4.528 -0.3921  0.2401  0.6334
 3660SOL    HW111596   2.005   3.410   4.577  0.7158 -0.9478  0.0692
 3660SOL    HW211597   1.976   3.328   4.453 -1.7194 -0.2330  0.1054
 3661SOL     OW11598   0.480   3.501   5.750  0.1029 -0.9143  0.4819
 3661SOL    HW111599   0.494   3.594   5.730 -1.6216 -1.0489 -1.7514
 3661SOL    HW211600   0.556   3.457   5.712 -1.7692 -0.8628 -3.8349
 3662SOL     OW11601   1.414   0.993   2.728  0.1611  0.3898 -0.3263
 3662SOL    HW111602   1.375   0.905   2.729  2.2054 -0.5769 -0.7085
 3662SOL    HW211603   1.340   1.052   2.744 -0.7769 -1.5616  4.2336
 3663SOL     OW11604   2.504   4.576   1.302  0.2036  0.4193 -0.7322
 3663SOL    HW111605   2.452   4.644   1.344  0.5440  0.6425 -0.6740
 3663SOL    HW211606   2.551   4.620   1.232  0.3707  0.2283 -0.7417
 3664SOL     OW11607   6.534   1.508   6.106 -0.3633  0.4594 -0.1130
 3664SOL    HW111608   6.457   1.501   6.162 -0.0476  1.5242  0.4911
 3664SOL    HW211609   6.530   1.431   6.050 -1.8784  0.5230 -0.1274
 3665SOL     OW11610   5.289   5.135   3.543 -0.6628  0.0474 -0.2992
 3665SOL    HW111611   5.330   5.217   3.515  0.4133 -0.6233 -0.7535
 3665SOL    HW211612   5.279   5.084   3.463 -0.4184 -0.6510  0.1036
 3666SOL     OW11613   0.559   2.391   5.911  0.3028 -1.0636 -0.2020
 3666SOL    HW111614   0.627   2.325   5.923 -0.1650 -1.2645  1.5712
 3666SOL    HW211615   0.477   2.341   5.911  0.0027 -0.5858  0.2372
 3667SOL     OW11616   5.340   6.467   1.527 -0.0632 -0.1955 -0.8148
 3667SOL    HW111617   5.280   6.541   1.532  0.3743  0.1090  0.3549
 3667SOL    HW211618   5.288   6.392   1.556  0.1257  0.0877  0.3091
 3668SOL     OW11619   4.844   3.159   2.864 -0.1574  0.5875  0.7739
 3668SOL    HW111620   4.815   3.079   2.908  1.0790 -0.7630 -0.7320
 3668SOL    HW211621   4.939   3.160   2.876  0.5690 -0.8340 -3.1345
 3669SOL     OW11622   1.305   3.908   5.263  0.4033 -0.1302 -0.3769
 3669SOL    HW111623   1.222   3.882   5.224 -0.3288  1.3119  0.1286
 3669SOL    HW211624   1.302   4.004   5.264  2.4450 -0.0037 -1.1282
 3670SOL     OW11625   2.136   6.674   1.186  0.0581 -0.1012 -0.0279
 3670SOL    HW111626   2.120   6.722   1.267  2.7568  0.6108  0.1918
 3670SOL    HW211627   2.224   6.637   1.197  0.6810  0.3485 -2.7469
 3671SOL     OW11628   7.177   4.975   4.657  0.1232 -0.0191 -0.3148
 3671SOL    HW111629   7.156   5.012   4.742 -1.5887  0.8993 -1.0956
 3671SOL    HW211630   7.155   4.882   4.664 -0.0264  0.0593  0.2349
 3672SOL     OW11631   0.663   1.193   2.561 -0.5234  0.2074 -0.0634
 3672SOL    HW111632   0.685   1.127   2.495  1.3196 -0.2880  0.9809
 3672SOL    HW211633   0.626   1.266   2.511 -0.1562 -0.5710 -1.5167
 3673SOL     OW11634   4.734   6.654   2.805 -0.0468  0.1115 -0.0889
 3673SOL    HW111635   4.781   6.640   2.723  1.0311 -0.7880  0.6373
 3673SOL    HW211636   4.650   6.691   2.779 -0.1431 -1.1073 -1.6852
 3674SOL     OW11637   1.823   0.703   5.235  0.3557 -0.1899  0.1284
 3674SOL    HW111638   1.861   0.616   5.227  1.5627  0.3713 -0.6634
 3674SOL    HW211639   1.729   0.689   5.239  0.5623 -1.5579  0.7328
 3675SOL     OW11640   0.387   3.468   6.242 -0.5971 -0.5887 -0.5016
 3675SOL    HW111641   0.384   3.550   6.289 -0.9155 -1.3814  0.9049
 3675SOL    HW211642   0.296   3.441   6.233 -0.4326 -1.3785  0.1266
 3676SOL     OW11643   4.534   7.252   4.471 -0.6251 -0.3265  0.5835
 3676SOL    HW111644   4.446   7.245   4.433 -0.3798 -1.2626  0.1650
 3676SOL    HW211645   4.564   7.162   4.479 -0.7101 -0.2223  3.1542
 3677SOL     OW11646   3.610   2.012   0.515 -0.0480  1.0737 -0.2432
 3677SOL    HW111647   3.696   2.013   0.559 -1.0823  1.1138  1.9070
 3677SOL    HW211648   3.570   2.095   0.541 -1.1015  0.6429 -0.4681
 3678SOL     OW11649   5.075   5.738   4.987 -0.4001 -0.2343  0.6527
 3678SOL    HW111650   4.994   5.702   4.952 -0.1766  0.7829 -1.0131
 3678SOL    HW211651   5.135   5.663   4.991 -0.8732 -0.6431  0.2170
 3679SOL     OW11652   0.668   4.671   2.416  0.6167  0.2030 -0.3909
 3679SOL    HW111653   0.703   4.593   2.373 -0.0844 -0.7533  0.7182
 3679SOL    HW211654   0.597   4.638   2.470  1.6589  1.2937  1.7526
 3680SOL     OW11655   3.944   0.146   2.046 -0.0091 -0.0428 -0.1322
 3680SOL    HW111656   4.024   0.137   2.098  1.3478  1.0076 -1.9107
 3680SOL    HW211657   3.942   0.238   2.021 -1.7149 -0.0833 -0.2745
 3681SOL     OW11658   0.807   2.959   2.930 -0.3094 -0.2789  0.2889
 3681SOL    HW111659   0.726   2.989   2.972  0.4750  0.5949  1.2527
 3681SOL    HW211660   0.874   2.971   2.997  0.4512 -2.0233 -0.1226
 3682SOL     OW11661   2.206   2.027   0.219 -0.2856 -0.0554  1.1394
 3682SOL    HW111662   2.175   1.937   0.221 -1.8928  0.4699  2.1960
 3682SOL    HW211663   2.301   2.020   0.231 -0.2829 -1.6162  0.4472
 3683SOL     OW11664   6.737   6.609   7.221  0.5966 -0.6534  0.3329
 3683SOL    HW111665   6.707   6.615   7.130 -1.3832  0.6359  1.0133
 3683SOL    HW211666   6.766   6.697   7.243 -0.3106 -0.6070  1.3873
 3684SOL     OW11667   0.767   0.641   3.787 -0.7916  0.1037  0.0417
 3684SOL    HW111668   0.746   0.558   3.744 -1.6172  0.1929  0.2439
 3684SOL    HW211669   0.775   0.619   3.879 -0.6581  0.1855  0.0492
 3685SOL     OW11670   3.338   2.100   1.821 -0.2822  0.6170  0.0824
 3685SOL    HW111671   3.358   2.008   1.809 -1.8503  0.3102 -0.4869
 3685SOL    HW211672   3.284   2.103   1.900 -1.8091  0.7482 -0.9028
 3686SOL     OW11673   4.294   4.372   3.403  0.1288  0.1656  0.0616
 3686SOL    HW111674   4.354   4.378   3.330  0.5397 -0.3651  0.3477
 3686SOL    HW211675   4.216   4.421   3.375  0.5247  0.4911 -0.4728
 3687SOL     OW11676   0.655   2.186   4.274  0.1193 -0.0058  0.4340
 3687SOL    HW111677   0.688   2.096   4.272 -1.3582 -0.5532 -0.5166
 3687SOL    HW211678   0.571   2.180   4.320 -0.6012  0.6604 -0.7478
 3688SOL     OW11679   0.817   4.872   2.957 -0.8990 -0.3117  0.1985
 3688SOL    HW111680   0.834   4.889   2.864 -1.0643  0.3348  0.2791
 3688SOL    HW211681   0.901   4.888   3.000 -0.7961 -0.7133  0.1497
 3689SOL     OW11682   1.267   5.910   6.094 -0.6498 -0.4179  0.3109
 3689SOL    HW111683   1.321   5.833   6.078 -1.2222 -0.7551 -0.0153
 3689SOL    HW211684   1.292   5.972   6.026 -1.5793 -1.0563 -0.6312
 3690SOL     OW11685   0.871   6.847   2.226 -0.4587  1.4041 -0.1784
 3690SOL    HW111686   0.781   6.825   2.202  0.3215 -0.6286 -1.5377
 3690SOL    HW211687   0.895   6.917   2.166 -0.4155  0.3432 -1.4342
 3691SOL     OW11688   3.788   5.391   0.860 -0.2966 -0.2897  0.4656
 3691SOL    HW111689   3.819   5.473   0.822 -0.9971 -0.0329  0.4400
 3691SOL    HW211690   3.697   5.383   0.829  0.2163 -1.8198 -0.7931
 3692SOL     OW11691   0.059   0.520   3.701 -0.2723 -0.5983  0.2147
 3692SOL    HW111692   0.095   0.604   3.728 -0.1463 -0.3809 -0.5957
 3692SOL    HW211693  -0.032   0.521   3.731 -0.3507 -0.0479 -0.0334
 3693SOL     OW11694   4.451   6.946   2.501  0.5357 -0.5454 -0.0002
 3693SOL    HW111695   4.376   6.994   2.466  0.8488 -1.1305 -1.5603
 3693SOL    HW211696   4.504   7.013   2.545 -0.1314  0.1373 -0.2088
 3694SOL     OW11697   1.441   2.731   1.982  0.5836  0.1187  0.3815
 3694SOL    HW111698   1.530   2.738   2.016  0.3227  3.2667  0.7064
 3694SOL    HW211699   1.390   2.693   2.054  1.0733  1.5190  1.5073
 3695SOL     OW11700   5.400   1.196   4.404  0.0608 -0.1461  0.6303
 3695SOL    HW111701   5.339   1.269   4.414 -1.3214 -1.3147  1.0181
 3695SOL    HW211702   5.374   1.153   4.323  1.3235  0.1694  0.0226
 3696SOL     OW11703   4.985   1.265   1.251 -0.6831 -0.0422  0.4558
 3696SOL    HW111704   4.949   1.214   1.324 -0.9313 -1.4051 -0.5794
 3696SOL    HW211705   4.908   1.306   1.211 -0.8616 -1.1215 -0.3729
 3697SOL     OW11706   4.274   5.290   6.350 -0.4253 -0.0641  0.4841
 3697SOL    HW111707   4.351   5.272   6.296 -1.7002 -0.6702 -1.1859
 3697SOL    HW211708   4.263   5.211   6.403 -0.7846 -0.6134 -0.3930
 3698SOL     OW11709   3.000   2.028   6.664 -0.3166 -0.0227  0.0634
 3698SOL    HW111710   3.061   2.090   6.624  0.4156 -0.5045  0.4031
 3698SOL    HW211711   2.981   2.065   6.750  0.7006 -0.6163  0.5615
 3699SOL     OW11712   3.004   3.828   2.998 -0.1986 -0.0446  0.9100
 3699SOL    HW111713   2.950   3.889   3.049  0.9458  0.5340  1.4690
 3699SOL    HW211714   2.992   3.744   3.041 -1.4382 -0.1358  0.4118
 3700SOL     OW11715   1.661   3.754   1.816  0.2544 -0.1531  0.6622
 3700SOL    HW111716   1.742   3.783   1.775 -0.3117 -0.4719 -0.7158
 3700SOL    HW211717   1.598   3.824   1.799  0.1729  0.0130  1.5751
 3701SOL     OW11718   6.069   0.611   3.304 -0.5545  0.1015 -0.4149
 3701SOL    HW111719   6.005   0.661   3.254 -1.0131 -0.0888 -0.0242
 3701SOL    HW211720   6.121   0.677   3.350 -0.7327  0.2399 -0.4144
 3702SOL     OW11721   3.787   4.003   6.910 -0.0598 -0.1299 -0.3322
 3702SOL    HW111722   3.705   4.046   6.934  0.6375  2.0772 -1.6181
 3702SOL    HW211723   3.839   4.072   6.870  2.2675 -1.5759  0.0132
 3703SOL     OW11724   4.781   3.579   5.291  0.1670  0.3614 -0.1467
 3703SOL    HW111725   4.841   3.647   5.259  1.3083 -0.6227 -0.1763
 3703SOL    HW211726   4.698   3.624   5.304  0.7458  1.6334 -0.7181
 3704SOL     OW11727   3.435   1.945   0.715  0.5810 -0.1193  0.0944
 3704SOL    HW111728   3.411   1.852   0.717  1.9366 -0.5001  2.8068
 3704SOL    HW211729   3.498   1.952   0.644  1.1678 -1.4972  0.4483
 3705SOL     OW11730   6.167   1.056   0.377  0.5404 -1.1923  0.1797
 3705SOL    HW111731   6.203   0.973   0.410  0.4493 -0.5130  2.1403
 3705SOL    HW211732   6.172   1.115   0.452 -1.1652  0.0371 -0.6146
 3706SOL     OW11733   5.898   0.581   6.858  0.0178 -0.1908 -0.5504
 3706SOL    HW111734   5.862   0.652   6.806 -0.2817 -1.1124 -1.6596
 3706SOL    HW211735   5.989   0.605   6.873  0.0223  0.2421 -1.2441
 3707SOL     OW11736   6.842   6.071   5.038 -0.5464  0.0339 -0.2440
 3707SOL    HW111737   6.804   6.095   5.122 -1.4356 -1.3850 -0.2028
 3707SOL    HW211738   6.837   6.151   4.986  0.2593  1.0001  1.1141
 3708SOL     OW11739   3.683   2.573   4.770 -0.2696 -0.2674 -0.1021
 3708SOL    HW111740   3.718   2.508   4.831 -1.3433  0.5119  1.3920
 3708SOL    HW211741   3.623   2.626   4.822 -0.8051  0.7934 -1.7122
 3709SOL     OW11742   1.318   0.467   1.241 -0.5656  0.0216 -0.0086
 3709SOL    HW111743   1.231   0.459   1.279 -0.7271  1.2102 -0.0839
 3709SOL    HW211744   1.378   0.459   1.315 -0.7634 -0.3045  0.1156
 3710SOL     OW11745   3.850   0.260   0.301  0.7575  0.0745  0.1387
 3710SOL    HW111746   3.774   0.304   0.340 -0.5798 -1.5405 -0.4848
 3710SOL    HW211747   3.818   0.172   0.280  2.6949 -0.5143 -0.5736
 3711SOL     OW11748   6.047   4.898   2.021  0.5891  1.1191  0.2020
 3711SOL    HW111749   6.017   4.807   2.022  2.7490  0.3278 -0.4564
 3711SOL    HW211750   5.968   4.950   2.030 -0.6744 -0.8330  0.8850
 3712SOL     OW11751   3.078   6.276   3.790 -0.5695 -0.5067 -0.2954
 3712SOL    HW111752   3.055   6.213   3.858  2.5535 -0.6196  0.7830
 3712SOL    HW211753   3.154   6.238   3.747 -1.4073  0.3960 -2.7852
 3713SOL     OW11754   4.210   1.251   5.259 -0.2239 -0.3345 -0.3543
 3713SOL    HW111755   4.172   1.262   5.346 -1.1614 -0.8597 -0.6803
 3713SOL    HW211756   4.236   1.339   5.232  1.0369 -0.3003  0.8649
 3714SOL     OW11757   6.311   1.519   1.571 -0.1997  0.3881  0.0803
 3714SOL    HW111758   6.350   1.441   1.610 -1.0744 -0.2758 -0.3675
 3714SOL    HW211759   6.263   1.488   1.495 -1.0942  1.2786  0.2579
 3715SOL     OW11760   0.391   5.709   2.961 -0.2552  0.1322 -0.4226
 3715SOL    HW111761   0.304   5.748   2.952  0.3513  2.1054  1.3786
 3715SOL    HW211762   0.387   5.660   3.042  0.0772 -0.4981 -0.7840
 3716SOL     OW11763   3.732   0.504   1.798 -0.1436 -0.3276 -0.0753
 3716SOL    HW111764   3.659   0.565   1.791 -0.9672 -1.2456  0.2044
 3716SOL    HW211765   3.696   0.420   1.769  1.2966 -0.4504 -1.6510
 3717SOL     OW11766   5.695   0.346   6.874 -0.2198 -0.0033  0.3315
 3717SOL    HW111767   5.683   0.427   6.825  0.9624 -0.2358 -0.3710
 3717SOL    HW211768   5.760   0.297   6.824 -1.1389 -1.5305  0.5801
 3718SOL     OW11769   7.196   3.542   4.060  0.1467 -0.4833 -0.3403
 3718SOL    HW111770   7.281   3.510   4.030  1.0289  0.2534  1.2770
 3718SOL    HW211771   7.209   3.562   4.153 -1.1624  1.7598 -0.5716
 3719SOL     OW11772   7.076   5.504   0.599 -0.2006 -0.4485 -0.0027
 3719SOL    HW111773   7.050   5.422   0.641 -1.2684 -1.0617 -1.7191
 3719SOL    HW211774   7.075   5.569   0.669 -1.5091 -1.4778  0.9852
 3720SOL     OW11775   1.577   4.808   3.708  0.0696 -0.4045 -0.2694
 3720SOL    HW111776   1.566   4.718   3.737 -1.2237 -0.7203 -1.6058
 3720SOL    HW211777   1.505   4.856   3.751 -0.7862 -0.5352 -1.5054
 3721SOL     OW11778   5.708   1.811   0.626 -0.1378  0.3515 -0.3379
 3721SOL    HW111779   5.683   1.852   0.544  1.1471  0.1100 -0.8657
 3721SOL    HW211780   5.796   1.843   0.644 -0.0360 -0.3247  0.4575
 3722SOL     OW11781   5.260   2.529   3.200 -0.9231 -0.3508 -0.6664
 3722SOL    HW111782   5.242   2.473   3.124  0.0339  1.3188 -2.2274
 3722SOL    HW211783   5.272   2.617   3.162  2.0237  0.1602  1.0982
 3723SOL     OW11784   3.439   0.397   6.783  0.4655 -0.2921  0.8473
 3723SOL    HW111785   3.399   0.315   6.753  1.1511  0.2284 -1.7416
 3723SOL    HW211786   3.523   0.371   6.820  0.9076 -0.7375 -0.4396
 3724SOL     OW11787   0.086   6.312   3.316  0.1252  0.2184 -0.2473
 3724SOL    HW111788   0.027   6.294   3.243 -0.9208 -1.1676  0.8670
 3724SOL    HW211789   0.165   6.347   3.276 -0.9767  0.9628 -1.8996
 3725SOL     OW11790   0.324   2.416   3.754  0.3626  0.1065  1.1859
 3725SOL    HW111791   0.309   2.412   3.849  0.6289  1.6928  1.3158
 3725SOL    HW211792   0.397   2.476   3.743  1.8332 -1.7791  0.0751
 3726SOL     OW11793   5.468   4.866   6.716 -0.3555 -0.0674  0.3335
 3726SOL    HW111794   5.453   4.842   6.807  2.1868 -0.0888  0.8087
 3726SOL    HW211795   5.480   4.961   6.717  0.1006 -0.1166  0.1077
 3727SOL     OW11796   0.947   7.063   2.413 -0.1033 -0.0339 -0.2370
 3727SOL    HW111797   0.885   7.118   2.460  1.3063 -0.0568  1.7990
 3727SOL    HW211798   0.893   7.003   2.362 -1.7045  2.9458 -2.2950
 3728SOL     OW11799   2.755   7.012   6.453  0.2728  0.1764 -0.8132
 3728SOL    HW111800   2.714   6.929   6.430 -1.3136  0.7917 -0.2948
 3728SOL    HW211801   2.785   7.048   6.369 -1.0681  0.1246 -1.3423
 3729SOL     OW11802   2.753   6.509   3.538 -0.0769  0.3403  0.3069
 3729SOL    HW111803   2.687   6.542   3.477 -1.0220 -1.3785  0.3315
 3729SOL    HW211804   2.836   6.532   3.498 -0.6831  1.1792 -0.5188
 3730SOL     OW11805   0.058   4.792   2.848  0.2855 -0.0075 -0.3841
 3730SOL    HW111806   0.073   4.698   2.857  0.2432 -0.0403 -0.6531
 3730SOL    HW211807   0.127   4.833   2.901  1.4978 -0.1514 -1.7964
 3731SOL     OW11808   4.518   5.545   2.091 -0.2453 -0.0003 -0.3123
 3731SOL    HW111809   4.459   5.566   2.163 -0.4680 -1.3701 -0.0640
 3731SOL    HW211810   4.585   5.612   2.094  1.5034 -1.6330  3.1232
 3732SOL     OW11811   5.431   1.197   6.209 -0.1733 -0.6909  0.0925
 3732SOL    HW111812   5.428   1.217   6.116 -0.6074 -2.1269 -0.2226
 3732SOL    HW211813   5.343   1.218   6.241  0.4354  1.4248  0.5836
 3733SOL     OW11814   2.196   1.451   0.976 -0.0664  0.4025  0.1108
 3733SOL    HW111815   2.249   1.396   0.917 -0.2118  1.4955 -1.0845
 3733SOL    HW211816   2.137   1.390   1.019  0.0298 -0.4396 -0.9110
 3734SOL     OW11817   6.450   5.028   2.975 -0.4588 -0.1808  0.3944
 3734SOL    HW111818   6.388   4.968   3.016  0.1283  0.1609  1.8565
 3734SOL    HW211819   6.396   5.088   2.925 -1.0002 -2.8564 -2.5221
 3735SOL     OW11820   5.937   2.722   5.621 -0.5104  0.0566  0.1278
 3735SOL    HW111821   5.985   2.680   5.550 -0.4071  1.4713 -0.6680
 3735SOL    HW211822   6.001   2.728   5.693  0.1501  0.8067 -0.5023
 3736SOL     OW11823   3.655   0.547   7.187 -0.3678  0.4210 -0.3640
 3736SOL    HW111824   3.669   0.531   7.094 -0.7670 -1.2469 -0.1784
 3736SOL    HW211825   3.592   0.620   7.190  0.0134  0.8049 -1.3758
 3737SOL     OW11826   5.218   5.205   1.537  0.6502 -0.2747 -0.2074
 3737SOL    HW111827   5.308   5.235   1.554  0.7166  0.4917 -1.7801
 3737SOL    HW211828   5.205   5.133   1.599  2.6912 -1.0490 -0.5887
 3738SOL     OW11829   0.352   1.897   4.355 -0.3381 -0.4695 -0.3842
 3738SOL    HW111830   0.256   1.905   4.353 -0.3171 -0.2219 -0.5625
 3738SOL    HW211831   0.382   1.987   4.368 -0.1474 -0.6477  0.4451
 3739SOL     OW11832   4.722   7.031   4.403  0.8288  0.1067 -0.1876
 3739SOL    HW111833   4.657   6.961   4.402 -0.9011  1.6554 -0.5787
 3739SOL    HW211834   4.775   7.016   4.324  0.6401 -0.8756 -0.1376
 3740SOL     OW11835   4.556   2.869   5.508  0.0552  0.1323 -0.4617
 3740SOL    HW111836   4.571   2.775   5.497 -0.8504  0.1661 -2.4542
 3740SOL    HW211837   4.516   2.877   5.594  2.5165 -0.9643  0.8884
 3741SOL     OW11838   3.028   4.918   1.070  0.1121 -0.6361 -0.2621
 3741SOL    HW111839   3.054   4.997   1.117  1.8442 -0.5148 -1.3186
 3741SOL    HW211840   2.938   4.935   1.042 -0.0359  0.3502  0.7452
 3742SOL     OW11841   6.282   2.691   1.906  0.2046  0.1921 -0.2138
 3742SOL    HW111842   6.256   2.611   1.953 -0.2879  0.4073 -0.1110
 3742SOL    HW211843   6.291   2.757   1.975  1.0557  0.1194 -0.2472
 3743SOL     OW11844   0.699   6.111   0.485  0.0204 -0.0449  0.0015
 3743SOL    HW111845   0.604   6.100   0.475 -0.2739  0.8623  1.4503
 3743SOL    HW211846   0.711   6.206   0.491  0.7185 -0.1978  1.9742
 3744SOL     OW11847   0.088   4.775   6.175  0.4195 -0.2757  0.3216
 3744SOL    HW111848   0.035   4.832   6.230 -0.5968  0.2171 -1.0995
 3744SOL    HW211849   0.028   4.707   6.145  0.5547  0.2527 -1.2574
 3745SOL     OW11850   3.876   6.812   2.097 -0.0898  0.7926  0.3399
 3745SOL    HW111851   3.901   6.748   2.162 -0.6037  0.7873  0.5396
 3745SOL    HW211852   3.888   6.768   2.013  0.0837  0.6281  0.4519
 3746SOL     OW11853   4.147   0.549   6.651  0.8579  0.4148 -0.3008
 3746SOL    HW111854   4.192   0.597   6.581  0.5378  1.4299  0.1651
 3746SOL    HW211855   4.097   0.616   6.697 -0.7654 -0.6113 -0.5080
 3747SOL     OW11856   6.048   4.837   6.030 -0.0701 -0.1232  0.8243
 3747SOL    HW111857   6.055   4.932   6.020  1.5156 -0.3622 -1.4249
 3747SOL    HW211858   6.120   4.814   6.089  0.3519  0.0054  0.3760
 3748SOL     OW11859   5.736   5.204   2.438 -0.6242  0.1129 -0.0723
 3748SOL    HW111860   5.643   5.184   2.428 -0.6932 -0.4635  1.3837
 3748SOL    HW211861   5.780   5.120   2.430 -0.5886 -0.2224  2.6107
 3749SOL     OW11862   1.737   6.698   2.370  0.0877  0.0334 -0.2855
 3749SOL    HW111863   1.723   6.604   2.382  0.6343 -0.0782 -0.4697
 3749SOL    HW211864   1.693   6.719   2.289 -0.6820  0.0909  0.1407
 3750SOL     OW11865   1.284   1.284   5.211 -0.0562  0.1600 -0.0500
 3750SOL    HW111866   1.253   1.256   5.125  0.7934 -2.3076  0.3384
 3750SOL    HW211867   1.377   1.304   5.197  0.2841 -1.0050  0.3796
 3751SOL     OW11868   5.749   4.168   4.581  0.0054 -0.2752  0.4813
 3751SOL    HW111869   5.654   4.173   4.570  0.1229  0.1292 -0.4310
 3751SOL    HW211870   5.762   4.156   4.675 -0.9122  0.8782  0.7767
 3752SOL     OW11871   3.761   3.698   0.816 -0.3778 -0.1133 -0.1569
 3752SOL    HW111872   3.720   3.729   0.735 -1.1069 -1.3266 -0.2768
 3752SOL    HW211873   3.855   3.711   0.801 -0.4948 -0.3622 -1.2139
 3753SOL     OW11874   1.108   2.501   7.105  0.1534 -0.6781 -0.0224
 3753SOL    HW111875   1.075   2.470   7.020 -1.1137  1.1416 -0.2578
 3753SOL    HW211876   1.031   2.506   7.161  0.4413  0.9981  0.2922
 3754SOL     OW11877   3.314   2.087   0.895 -0.0570 -0.0946  0.0763
 3754SOL    HW111878   3.358   2.018   0.844  0.2750 -0.5988  1.0254
 3754SOL    HW211879   3.258   2.039   0.957  1.1346  0.4249  1.6071
 3755SOL     OW11880   6.969   1.022   0.384 -0.4791  0.5439  0.4899
 3755SOL    HW111881   7.043   1.002   0.325 -0.7921  1.5756 -0.2876
 3755SOL    HW211882   6.952   0.940   0.430 -0.1696 -0.2760 -0.8127
 3756SOL     OW11883   4.113   2.314   3.566 -0.2265 -0.2631  0.7112
 3756SOL    HW111884   4.155   2.281   3.487 -0.6204 -0.5870  0.6371
 3756SOL    HW211885   4.079   2.400   3.541  0.9078  0.2728  0.9402
 3757SOL     OW11886   6.740   0.281   6.980  0.2281  0.1145 -0.3488
 3757SOL    HW111887   6.823   0.327   6.987  0.4886 -0.4140  0.1526
 3757SOL    HW211888   6.749   0.225   6.903  1.5616 -2.2769  1.3796
 3758SOL     OW11889   5.970   5.356   0.418  0.2993 -0.2983  0.2952
 3758SOL    HW111890   5.886   5.373   0.461 -0.1192 -2.3987  0.4055
 3758SOL    HW211891   5.950   5.364   0.324  0.2019  0.0913  0.3460
 3759SOL     OW11892   2.044   1.412   2.193  0.4843 -0.0356  0.3427
 3759SOL    HW111893   2.055   1.404   2.288  0.9440  0.3951  0.3324
 3759SOL    HW211894   2.133   1.400   2.158  0.3599  0.0727 -0.0095
 3760SOL     OW11895   3.266   2.558   2.766 -0.0313 -0.4360 -0.0183
 3760SOL    HW111896   3.286   2.471   2.801 -1.5477 -0.9366 -0.3127
 3760SOL    HW211897   3.267   2.546   2.671  0.4800  0.0571 -0.0818
 3761SOL     OW11898   5.073   4.202   1.325 -0.0890 -0.5682 -0.0139
 3761SOL    HW111899   5.075   4.128   1.385 -1.1523 -1.6374 -1.2267
 3761SOL    HW211900   5.032   4.167   1.245 -1.1275  1.4653 -0.4375
 3762SOL     OW11901   0.014   4.134   4.049  0.0880  0.0122  0.9753
 3762SOL    HW111902   0.108   4.147   4.063 -0.0482 -0.5194  2.5429
 3762SOL    HW211903  -0.027   4.170   4.128 -0.9337 -0.9392  0.8949
 3763SOL     OW11904   7.212   5.667   6.874  0.5613  0.0892  0.0949
 3763SOL    HW111905   7.288   5.624   6.914  1.4316  0.3621 -1.2123
 3763SOL    HW211906   7.227   5.661   6.780 -1.3236 -0.3247 -0.2324
 3764SOL     OW11907   3.357   6.495   6.270 -0.5522  0.2507 -0.2658
 3764SOL    HW111908   3.389   6.584   6.256  1.4685 -0.4858 -0.6499
 3764SOL    HW211909   3.397   6.444   6.199 -1.0516 -1.1088  0.4032
 3765SOL     OW11910   5.035   0.464   4.882  0.3489 -0.2471  0.1989
 3765SOL    HW111911   5.037   0.559   4.877  1.0149 -0.1969  1.1555
 3765SOL    HW211912   4.979   0.445   4.958  1.6018 -0.5628  1.0651
 3766SOL     OW11913   5.357   3.120   6.882 -0.4678 -0.1729  0.2992
 3766SOL    HW111914   5.371   3.184   6.813  1.0492 -0.7043  0.0847
 3766SOL    HW211915   5.414   3.149   6.954 -1.4169 -0.0748  1.0408
 3767SOL     OW11916   6.592   6.741   2.632  0.0911  0.6867  0.7151
 3767SOL    HW111917   6.605   6.659   2.585  0.4332 -0.0181  1.9734
 3767SOL    HW211918   6.508   6.774   2.601 -0.6166 -0.7402  1.0069
 3768SOL     OW11919   1.900   5.764   3.094 -0.3709  0.0660 -0.2632
 3768SOL    HW111920   1.893   5.837   3.156  2.0181 -0.3962  0.6785
 3768SOL    HW211921   1.898   5.686   3.150  0.8177 -0.3946 -0.8255
 3769SOL     OW11922   0.102   4.112   1.110  0.2566  0.6200 -0.1872
 3769SOL    HW111923   0.069   4.027   1.081 -0.7997  0.6422  0.8423
 3769SOL    HW211924   0.194   4.097   1.129  0.7569  0.3804 -2.5294
 3770SOL     OW11925   5.756   3.091   0.448  0.6461  0.3688 -0.4557
 3770SOL    HW111926   5.787   3.036   0.376  0.1053 -1.8183  0.8746
 3770SOL    HW211927   5.771   3.038   0.526 -2.7315  0.7682  0.6233
 3771SOL     OW11928   1.060   5.236   3.294 -0.1474  0.3499 -0.6806
 3771SOL    HW111929   1.078   5.288   3.372 -1.2135 -0.0551 -0.1383
 3771SOL    HW211930   1.136   5.178   3.285  1.1254  2.0673 -1.3879
 3772SOL     OW11931   7.236   6.250   3.565 -0.1729  0.4658 -0.4031
 3772SOL    HW111932   7.271   6.242   3.476  0.8360  2.9881 -0.3240
 3772SOL    HW211933   7.217   6.343   3.575 -0.2794  0.2468  2.0352
 3773SOL     OW11934   5.720   2.994   6.431 -0.6426  0.3014  0.6722
 3773SOL    HW111935   5.708   2.907   6.393 -1.7848  0.4682  0.6325
 3773SOL    HW211936   5.632   3.031   6.436 -0.5134  0.4189  3.1890
 3774SOL     OW11937   5.350   4.866   6.233  0.1563  0.3982 -0.2791
 3774SOL    HW111938   5.354   4.831   6.144 -0.0782  1.5451 -0.7535
 3774SOL    HW211939   5.395   4.800   6.286 -1.0690 -1.0557 -0.9892
 3775SOL     OW11940   2.650   4.475   2.878  0.1362 -0.0730  0.2836
 3775SOL    HW111941   2.576   4.470   2.817 -1.2016 -1.0605  1.8816
 3775SOL    HW211942   2.694   4.390   2.869 -0.2044 -0.3139  0.8287
 3776SOL     OW11943   3.759   3.954   3.475  0.5321  0.5264  0.4771
 3776SOL    HW111944   3.677   3.906   3.482 -0.0318  1.4257  0.2689
 3776SOL    HW211945   3.752   4.023   3.541  2.0444 -0.6379  1.9479
 3777SOL     OW11946   2.483   6.349   2.291  0.7281 -0.1658  0.2927
 3777SOL    HW111947   2.421   6.406   2.245 -0.7793 -0.1561  2.1902
 3777SOL    HW211948   2.545   6.322   2.224 -1.5007 -0.4134 -1.8348
 3778SOL     OW11949   2.442   0.366   5.453  0.4872 -0.1129  0.3610
 3778SOL    HW111950   2.384   0.323   5.517 -0.4538  0.2235 -0.2402
 3778SOL    HW211951   2.410   0.456   5.450 -0.4792 -0.4682 -1.6665
 3779SOL     OW11952   6.987   4.393   1.479  0.0613 -0.2110 -0.2419
 3779SOL    HW111953   7.012   4.464   1.537 -1.7280  1.4895 -1.4403
 3779SOL    HW211954   6.964   4.436   1.397 -1.2471 -2.1573 -0.9580
 3780SOL     OW11955   0.434   4.266   5.373 -0.1511 -0.0202 -0.0874
 3780SOL    HW111956   0.351   4.226   5.398 -0.0104  0.0095  0.4498
 3780SOL    HW211957   0.453   4.329   5.443 -0.7092  1.5146 -1.2724
 3781SOL     OW11958   0.712   3.757   0.307 -0.1171 -0.1438  0.3527
 3781SOL    HW111959   0.621   3.762   0.276  0.2184  1.1961 -0.4766
 3781SOL    HW211960   0.758   3.709   0.239  0.3640  1.7284 -0.7174
 3782SOL     OW11961   6.027   2.944   2.917  0.5670  0.4293 -0.0064
 3782SOL    HW111962   6.031   2.933   2.822  0.1628  0.6392 -0.0490
 3782SOL    HW211963   6.012   2.856   2.951 -2.0318  0.6828 -0.3057
 3783SOL     OW11964   4.233   1.953   1.249 -0.3467  0.3769 -0.0896
 3783SOL    HW111965   4.263   1.902   1.325 -2.8848 -0.3193  0.5402
 3783SOL    HW211966   4.252   1.897   1.174 -2.7279 -1.4954  0.5621
 3784SOL     OW11967   4.859   0.909   4.341  0.4012 -0.1788  0.4976
 3784SOL    HW111968   4.908   0.909   4.423 -2.1145  1.3448  2.1259
 3784SOL    HW211969   4.903   0.974   4.286  0.5464  0.7449  1.6823
 3785SOL     OW11970   6.885   5.457   4.947 -0.6368  0.0227  0.8415
 3785SOL    HW111971   6.841   5.447   5.031 -2.1704  0.4032  0.1160
 3785SOL    HW211972   6.830   5.409   4.884  0.7673 -0.7137  0.1262
 3786SOL     OW11973   5.710   0.633   4.463 -0.7900 -0.0512  0.5061
 3786SOL    HW111974   5.650   0.699   4.427  0.0366 -0.2672 -1.4248
 3786SOL    HW211975   5.684   0.552   4.419 -1.0501 -0.7993  1.9918
 3787SOL     OW11976   4.458   1.773   0.820 -0.2497  0.1604 -0.1143
 3787SOL    HW111977   4.401   1.739   0.751 -0.8143  1.3447 -0.2642
 3787SOL    HW211978   4.544   1.780   0.779 -0.5398  0.6688 -0.6574
 3788SOL     OW11979   6.023   0.629   0.996 -0.1421  0.5140  0.2511
 3788SOL    HW111980   6.113   0.662   1.003 -0.0665  0.6658 -1.0297
 3788SOL    HW211981   5.986   0.680   0.924  0.0111 -2.1986 -1.9144
 3789SOL     OW11982   2.700   1.520   4.780  0.0839  0.0387 -0.5983
 3789SOL    HW111983   2.760   1.448   4.762  0.5910  0.1768  0.4430
 3789SOL    HW211984   2.695   1.569   4.698  1.5843  0.1602 -0.6457
 3790SOL     OW11985   4.987   0.407   0.118 -0.5506  0.4061  0.1497
 3790SOL    HW111986   4.998   0.393   0.024 -1.6943  1.1176 -0.1082
 3790SOL    HW211987   4.919   0.344   0.143  1.0967 -1.1613  0.9209
 3791SOL     OW11988   6.508   0.491   1.754  0.0347 -0.3952  0.4889
 3791SOL    HW111989   6.534   0.475   1.663  0.2471 -0.7953  0.6177
 3791SOL    HW211990   6.557   0.569   1.779  1.5910 -1.4496  0.8999
 3792SOL     OW11991   6.718   2.608   0.929  0.4310  0.5815  0.0917
 3792SOL    HW111992   6.646   2.669   0.909 -0.1683 -0.3663 -0.7317
 3792SOL    HW211993   6.716   2.601   1.024 -1.6143 -0.6024  0.0275
 3793SOL     OW11994   1.793   3.821   3.729 -0.5754 -0.2534  0.2301
 3793SOL    HW111995   1.882   3.801   3.760 -0.7854 -1.0682  0.3038
 3793SOL    HW211996   1.793   3.917   3.720 -0.3153 -0.0235  2.1635
 3794SOL     OW11997   4.267   4.141   5.277 -0.3190  0.7074  0.0751
 3794SOL    HW111998   4.212   4.168   5.350 -0.8995  1.1254 -0.5065
 3794SOL    HW211999   4.328   4.214   5.266  0.4268  0.2048  0.7785
 3795SOL     OW12000   6.853   0.800   3.175 -0.4719 -0.1711  0.4372
 3795SOL    HW112001   6.792   0.726   3.173 -1.2580  0.4415  1.0219
 3795SOL    HW212002   6.909   0.784   3.250 -0.7976 -0.0640  0.7074
 3796SOL     OW12003   6.530   2.490   5.773 -0.3271  0.1788 -0.3860
 3796SOL    HW112004   6.460   2.434   5.805  0.5758 -1.4323 -1.1454
 3796SOL    HW212005   6.533   2.474   5.679  2.0378 -0.9954 -0.1769
 3797SOL     OW12006   2.219   0.597   4.131 -0.2154  0.4824 -0.1445
 3797SOL    HW112007   2.230   0.687   4.100  0.3102 -0.1481 -1.9109
 3797SOL    HW212008   2.184   0.550   4.056 -1.7789 -0.5367  1.1570
 3798SOL     OW12009   1.861   7.219   4.536 -0.2819 -0.6021  0.4512
 3798SOL    HW112010   1.846   7.288   4.471  2.2573 -1.3824 -1.0878
 3798SOL    HW212011   1.783   7.163   4.529 -1.6026  1.1302  0.5528
 3799SOL     OW12012   6.581   0.717   4.951  0.0485  0.0268  0.2256
 3799SOL    HW112013   6.634   0.689   4.876  2.2745 -0.0991  1.7397
 3799SOL    HW212014   6.634   0.694   5.027 -1.2330  1.9302  1.7945
 3800SOL     OW12015   5.506   6.959   7.211 -0.1622 -0.0060 -0.3989
 3800SOL    HW112016   5.437   6.900   7.179 -1.4740  1.4343 -0.3653
 3800SOL    HW212017   5.553   6.986   7.132  0.5084 -1.1528 -0.4022
 3801SOL     OW12018   6.190   4.986   4.747 -0.4276  0.7485  0.0331
 3801SOL    HW112019   6.221   4.983   4.837  0.1402  2.0762 -0.0957
 3801SOL    HW212020   6.173   4.894   4.724 -1.2895  0.4419  1.7179
 3802SOL     OW12021   6.978   6.051   7.197 -0.0303  0.4943 -0.1050
 3802SOL    HW112022   7.009   5.979   7.143 -1.9114 -0.2248 -0.2977
 3802SOL    HW212023   6.928   6.106   7.137 -0.1478  0.9772  0.4237
 3803SOL     OW12024   0.718   0.123   0.660 -0.3393  0.4419 -0.0028
 3803SOL    HW112025   0.625   0.147   0.653 -0.5581  0.8606  2.9149
 3803SOL    HW212026   0.716   0.029   0.679 -0.2724  0.6281  0.9995
 3804SOL     OW12027   5.853   5.233   6.484  0.1200  0.8142  0.2878
 3804SOL    HW112028   5.802   5.304   6.521  1.0695  0.7498  1.7786
 3804SOL    HW212029   5.889   5.269   6.403 -0.2092  1.6941  0.5277
 3805SOL     OW12030   3.464   0.597   6.419 -0.3770 -0.5906 -0.1149
 3805SOL    HW112031   3.472   0.521   6.477 -0.9688  0.7307  1.7858
 3805SOL    HW212032   3.468   0.673   6.477  0.3897  0.8740 -1.9743
 3806SOL     OW12033   1.538   2.662   3.377 -0.6412 -0.1896  0.1622
 3806SOL    HW112034   1.456   2.657   3.328 -2.0052  0.2134  2.2517
 3806SOL    HW212035   1.598   2.603   3.331 -1.4299  0.9796 -2.5633
 3807SOL     OW12036   2.742   4.430   2.475 -0.4114  0.2576  0.0638
 3807SOL    HW112037   2.729   4.487   2.399  3.5662  1.6681  0.2054
 3807SOL    HW212038   2.819   4.377   2.452  0.1493 -0.1491  2.6226
 3808SOL     OW12039   0.022   1.290   6.527  0.1798 -0.6204  0.2733
 3808SOL    HW112040   0.022   1.206   6.480  0.8014 -1.0276  0.9753
 3808SOL    HW212041   0.018   1.356   6.458  1.0906 -1.2011 -0.3535
 3809SOL     OW12042   3.766   5.658   3.566 -0.0037  0.1097 -0.1129
 3809SOL    HW112043   3.744   5.628   3.655 -1.2406  1.0110 -0.0964
 3809SOL    HW212044   3.747   5.751   3.567  0.3679  0.2090 -1.2235
 3810SOL     OW12045   2.223   5.502   0.770 -0.3395 -0.4573 -0.1463
 3810SOL    HW112046   2.221   5.547   0.854 -0.0643  0.6494 -0.7234
 3810SOL    HW212047   2.197   5.412   0.791  1.1122 -0.5847  1.3523
 3811SOL     OW12048   2.181   0.438   2.605  0.3615 -0.5187 -0.6307
 3811SOL    HW112049   2.154   0.467   2.692  0.0783 -0.2314 -0.8132
 3811SOL    HW212050   2.110   0.465   2.548  0.9670  0.1041 -1.0981
 3812SOL     OW12051   7.166   5.602   6.581  0.2541  0.6372  0.1944
 3812SOL    HW112052   7.173   5.508   6.598  1.1627  0.9475  1.7816
 3812SOL    HW212053   7.113   5.608   6.502 -0.5597 -1.1722  0.5383
 3813SOL     OW12054   6.985   0.212   6.102 -0.5240  0.1574  0.0640
 3813SOL    HW112055   6.955   0.196   6.012  1.5115  0.9812 -0.8178
 3813SOL    HW212056   6.912   0.259   6.143 -2.1396 -1.6193 -0.6235
 3814SOL     OW12057   6.295   3.225   0.088 -0.4317  0.2261  0.1242
 3814SOL    HW112058   6.343   3.160   0.037 -2.2277 -0.5133 -0.7081
 3814SOL    HW212059   6.316   3.308   0.045 -2.2348 -0.4196 -2.1930
 3815SOL     OW12060   0.260   7.087   1.393 -0.0262  0.8483  0.7087
 3815SOL    HW112061   0.254   7.095   1.488  0.6559 -2.3830  1.1146
 3815SOL    HW212062   0.283   6.996   1.377  0.1722  1.3384 -2.5796
 3816SOL     OW12063   0.818   6.722   6.414 -1.0602 -0.4994 -0.0076
 3816SOL    HW112064   0.877   6.649   6.433 -1.1273 -1.1846 -2.1077
 3816SOL    HW212065   0.813   6.772   6.495  0.3676 -1.8682  0.9659
 3817SOL     OW12066   5.615   0.050   2.392 -0.0893  0.1504  0.0604
 3817SOL    HW112067   5.699   0.097   2.387  0.3885 -0.7801 -2.6905
 3817SOL    HW212068   5.557   0.110   2.439  1.8106  1.2979  1.0840
 3818SOL     OW12069   5.437   0.629   6.294 -0.2313  0.4517  0.2760
 3818SOL    HW112070   5.406   0.567   6.359 -0.1725  0.2466  0.1100
 3818SOL    HW212071   5.518   0.591   6.261 -0.4596  0.3614 -0.1916
 3819SOL     OW12072   2.004   1.138   3.286  0.0217 -0.3471 -0.3405
 3819SOL    HW112073   2.057   1.165   3.212 -0.2449  0.3360 -0.2903
 3819SOL    HW212074   2.060   1.151   3.362 -0.0566 -0.0598 -0.3299
 3820SOL     OW12075   5.670   6.718   3.623 -0.1941  0.1410  0.5721
 3820SOL    HW112076   5.690   6.699   3.531 -0.1885  0.4901  0.4992
 3820SOL    HW212077   5.630   6.637   3.656 -0.9683  0.2943  0.0351
 3821SOL     OW12078   5.130   0.454   4.632  0.7090  0.3758 -0.0869
 3821SOL    HW112079   5.194   0.383   4.641  0.2817  0.1106  1.1836
 3821SOL    HW212080   5.093   0.463   4.720 -1.5441 -0.0039 -0.9162
 3822SOL     OW12081   1.974   5.607   1.788  0.2888 -0.6431  0.2188
 3822SOL    HW112082   2.027   5.677   1.749  0.9696 -0.0772  2.0882
 3822SOL    HW212083   1.887   5.621   1.751  0.7081  0.3711 -0.4502
 3823SOL     OW12084   2.390   6.280   6.550  0.3757  0.5957  0.1692
 3823SOL    HW112085   2.429   6.203   6.590  1.6049  1.3523  0.4888
 3823SOL    HW212086   2.356   6.330   6.625 -0.6856  0.2367 -0.0587
 3824SOL     OW12087   5.357   0.178   6.012 -0.1838  0.5372  0.0579
 3824SOL    HW112088   5.431   0.117   6.011 -1.8964 -1.6888  0.5665
 3824SOL    HW212089   5.369   0.230   6.091  0.6481  0.0008  0.2956
 3825SOL     OW12090   3.794   0.130   5.667 -0.4373  0.3437  0.1255
 3825SOL    HW112091   3.872   0.162   5.620 -1.3695  1.9671 -0.3614
 3825SOL    HW212092   3.792   0.036   5.646  0.1492  0.6847 -1.7057
 3826SOL     OW12093   6.282   3.195   1.207 -0.2036 -0.1736  0.7568
 3826SOL    HW112094   6.318   3.264   1.262  0.4283  0.7735 -0.7638
 3826SOL    HW212095   6.343   3.122   1.218 -0.4518 -0.2377  1.7886
 3827SOL     OW12096   2.889   3.162   2.026  0.7524  0.5132 -0.0538
 3827SOL    HW112097   2.875   3.256   2.015 -4.8186  0.4382  2.6443
 3827SOL    HW212098   2.830   3.122   1.961  1.5847 -1.1000  0.1372
 3828SOL     OW12099   3.369   2.366   5.093 -0.5386  0.1657 -0.2047
 3828SOL    HW112100   3.404   2.322   5.171 -1.6386 -2.0735 -0.8610
 3828SOL    HW212101   3.277   2.383   5.115 -0.5807  0.4845 -0.6253
 3829SOL     OW12102   0.720   3.998   6.849 -0.2229  0.2230  0.1705
 3829SOL    HW112103   0.671   3.953   6.779 -0.9091  1.3444 -0.0951
 3829SOL    HW212104   0.671   3.977   6.928 -0.5025  0.4260  0.0560
 3830SOL     OW12105   4.836   1.699   6.664  0.4422 -0.2280 -0.2357
 3830SOL    HW112106   4.825   1.780   6.614 -1.1940  0.1320  0.6194
 3830SOL    HW212107   4.826   1.629   6.600 -2.2942  0.2071 -0.3915
 3831SOL     OW12108   1.079   1.872   1.954 -0.4664  0.0165 -0.4041
 3831SOL    HW112109   1.016   1.805   1.979 -1.0416  1.0710  1.0799
 3831SOL    HW212110   1.163   1.839   1.985 -0.9495  0.5985  1.6638
 3832SOL     OW12111   4.844   1.066   1.995 -0.4544  0.6782  0.2303
 3832SOL    HW112112   4.931   1.037   1.967 -0.0686  2.4341 -0.5335
 3832SOL    HW212113   4.791   0.987   1.993  1.0805 -0.4018  0.5420
 3833SOL     OW12114   6.680   0.497   6.716  0.4758 -0.0382  0.4428
 3833SOL    HW112115   6.758   0.499   6.661 -0.9408 -0.1855 -1.6950
 3833SOL    HW212116   6.649   0.407   6.711 -0.3246  0.2234  0.5409
 3834SOL     OW12117   3.679   6.911   3.492 -0.0514 -0.1930 -0.1923
 3834SOL    HW112118   3.684   6.955   3.407  0.6058 -0.2521 -0.1829
 3834SOL    HW212119   3.769   6.889   3.514 -0.3582 -1.4850 -0.1561
 3835SOL     OW12120   3.692   0.605   4.879 -1.0322  0.0690  0.1872
 3835SOL    HW112121   3.601   0.589   4.854 -0.8324  0.2288 -0.6819
 3835SOL    HW212122   3.742   0.538   4.832 -0.7054 -0.0668  0.7202
 3836SOL     OW12123   3.605   5.370   2.725  0.1667 -0.0042  0.0466
 3836SOL    HW112124   3.652   5.379   2.642  0.6328 -1.8927  0.0564
 3836SOL    HW212125   3.523   5.327   2.701 -0.0989  0.2761  0.4502
 3837SOL     OW12126   1.547   6.419   3.005 -0.1278  0.4134 -0.3293
 3837SOL    HW112127   1.575   6.363   2.933  3.1710  2.3915 -0.7953
 3837SOL    HW212128   1.542   6.361   3.081 -0.1363 -1.0620 -1.4238
 3838SOL     OW12129   1.030   6.720   0.888 -0.1332  0.3524 -0.4268
 3838SOL    HW112130   1.010   6.722   0.982 -0.9832  0.2157 -0.6032
 3838SOL    HW212131   0.978   6.648   0.854  1.5489 -0.7664 -0.7059
 3839SOL     OW12132   4.300   4.611   4.516  0.1363 -0.5870  0.4769
 3839SOL    HW112133   4.262   4.558   4.587  0.9540 -0.2848  1.1578
 3839SOL    HW212134   4.393   4.617   4.538  0.1134  0.8741  0.2420
 3840SOL     OW12135   2.444   0.720   4.993  0.8848 -0.2984  0.1144
 3840SOL    HW112136   2.501   0.718   4.916  1.0411  1.0800  0.1787
 3840SOL    HW212137   2.457   0.634   5.034  1.4078 -0.7462 -0.9563
 3841SOL     OW12138   6.020   3.374   6.594  0.0824  0.1579  0.2213
 3841SOL    HW112139   5.977   3.443   6.544  0.5783  0.2579 -0.0679
 3841SOL    HW212140   6.043   3.308   6.529 -0.2387 -0.2075  0.4724
 3842SOL     OW12141   1.469   3.554   4.938 -0.0691  0.1311 -0.3167
 3842SOL    HW112142   1.533   3.533   5.006  0.0091  0.5241 -0.2678
 3842SOL    HW212143   1.523   3.587   4.865 -0.1923  0.1719 -0.3889
 3843SOL     OW12144   3.615   3.768   3.793  0.5980  0.2538 -0.1025
 3843SOL    HW112145   3.571   3.684   3.778 -0.9148  0.6703  1.7235
 3843SOL    HW212146   3.655   3.760   3.879 -0.1215  1.6138  0.3921
 3844SOL     OW12147   5.240   7.129   6.269 -0.4817  0.5076 -0.1344
 3844SOL    HW112148   5.213   7.105   6.180  0.7018 -0.1382 -0.3409
 3844SOL    HW212149   5.328   7.165   6.259 -0.5195  0.8708  0.7291
 3845SOL     OW12150   1.340   2.675   1.349 -0.3333  0.4879  0.1523
 3845SOL    HW112151   1.354   2.764   1.384 -0.9638  1.3960 -1.7790
 3845SOL    HW212152   1.246   2.669   1.336 -0.4337 -0.9213  1.2941
 3846SOL     OW12153   1.561   2.372   2.859 -0.0468 -0.1612  0.9478
 3846SOL    HW112154   1.501   2.441   2.829 -0.2656 -0.8129 -0.1498
 3846SOL    HW212155   1.646   2.398   2.825 -0.1656 -0.5310  0.3621
 3847SOL     OW12156   5.376   4.561   6.990  0.5312 -0.0995 -0.1516
 3847SOL    HW112157   5.358   4.553   7.084  0.1539  1.0526 -0.1189
 3847SOL    HW212158   5.298   4.526   6.948  0.4226  0.0090 -0.0386
 3848SOL     OW12159   0.158   0.375   0.809 -0.1021 -0.2526  0.0049
 3848SOL    HW112160   0.201   0.450   0.768  0.0320 -0.8086 -0.9083
 3848SOL    HW212161   0.226   0.335   0.863 -0.1149  0.1522  0.3293
 3849SOL     OW12162   6.760   1.136   6.991  0.0961 -0.0492 -0.1740
 3849SOL    HW112163   6.844   1.167   7.025  1.6773 -1.9488 -2.0538
 3849SOL    HW212164   6.715   1.098   7.066  0.8317  1.1251  0.8931
 3850SOL     OW12165   3.613   0.352   6.507  0.7545 -0.8274 -0.1668
 3850SOL    HW112166   3.586   0.299   6.582 -0.8026 -1.2799 -0.9778
 3850SOL    HW212167   3.708   0.347   6.506  0.7088 -3.0987  0.1962
 3851SOL     OW12168   2.099   3.266   4.319 -0.6127 -0.0435  0.0669
 3851SOL    HW112169   2.103   3.253   4.224  0.6683  2.3035 -0.2781
 3851SOL    HW212170   2.147   3.192   4.356  2.7611  1.1858 -1.4438
 3852SOL     OW12171   7.076   3.740   4.915  0.0273  0.7372 -0.9134
 3852SOL    HW112172   7.038   3.820   4.880  0.1225  0.9865 -0.4568
 3852SOL    HW212173   7.098   3.688   4.838  1.1929  1.7161 -1.2747
 3853SOL     OW12174   0.402   6.125   4.892  0.4040 -0.7867  0.0891
 3853SOL    HW112175   0.431   6.124   4.801  1.0751  0.2731  0.2614
 3853SOL    HW212176   0.307   6.130   4.888  0.4561  2.9312 -0.7049
 3854SOL     OW12177   5.899   6.441   1.888 -0.1943 -0.0726 -0.0730
 3854SOL    HW112178   5.822   6.492   1.911 -0.2845  0.7852 -2.0310
 3854SOL    HW212179   5.934   6.485   1.810  2.2349 -0.4721  0.6963
 3855SOL     OW12180   5.109   6.151   0.418 -0.1269 -0.3545  0.1651
 3855SOL    HW112181   5.163   6.226   0.393  2.5972 -2.5791 -1.2258
 3855SOL    HW212182   5.075   6.118   0.335 -0.4895 -1.2437  0.6548
 3856SOL     OW12183   0.355   1.583   5.378 -0.3567  0.6923 -0.4380
 3856SOL    HW112184   0.353   1.511   5.441 -2.4074  1.6496  0.7027
 3856SOL    HW212185   0.317   1.546   5.298 -1.0493  0.3713  0.0225
 3857SOL     OW12186   6.230   6.638   2.511  0.4091  0.6665 -0.1747
 3857SOL    HW112187   6.281   6.718   2.520  1.4869 -0.1390  1.2684
 3857SOL    HW212188   6.207   6.613   2.600 -1.2740  0.1958 -0.7001
 3858SOL     OW12189   7.160   4.817   0.920  0.6350 -0.2856 -0.3024
 3858SOL    HW112190   7.100   4.873   0.970  0.8064 -1.7713  1.7012
 3858SOL    HW212191   7.103   4.763   0.866  0.1656 -0.9937  0.8497
 3859SOL     OW12192   1.333   6.505   4.205  0.1724 -0.1325  0.1950
 3859SOL    HW112193   1.419   6.544   4.187 -0.3197  0.2015 -1.7026
 3859SOL    HW212194   1.347   6.411   4.190  0.0399  0.0163 -0.9738
 3860SOL     OW12195   3.528   6.429   5.971 -0.2338  0.8335  0.0781
 3860SOL    HW112196   3.479   6.347   5.963  0.1760  0.7648 -2.7860
 3860SOL    HW212197   3.619   6.404   5.959 -0.1865  1.7333 -1.9956
 3861SOL     OW12198   1.692   4.925   0.489  0.2212  0.0761 -0.3320
 3861SOL    HW112199   1.774   4.886   0.459  0.5277  0.5307 -0.0773
 3861SOL    HW212200   1.696   4.920   0.584  0.4939  1.2032 -0.2735
 3862SOL     OW12201   4.415   0.880   4.632  0.4083  0.1773  0.0992
 3862SOL    HW112202   4.379   0.834   4.556  1.8929  0.4612 -0.8232
 3862SOL    HW212203   4.347   0.942   4.658 -0.9379 -1.3521  0.3069
 3863SOL     OW12204   4.358   4.422   0.189  0.2229 -0.1626 -0.3169
 3863SOL    HW112205   4.430   4.483   0.208  0.2597 -0.2715 -0.1075
 3863SOL    HW212206   4.279   4.477   0.195  0.0601 -0.5292  1.9238
 3864SOL     OW12207   1.374   4.266   4.538 -0.2418 -0.1827 -0.3738
 3864SOL    HW112208   1.341   4.224   4.617  0.1731  0.4779  0.1659
 3864SOL    HW212209   1.300   4.319   4.507 -0.7428 -1.2501 -1.0215
 3865SOL     OW12210   2.021   3.559   0.240 -0.5243 -0.0929  0.0835
 3865SOL    HW112211   2.057   3.539   0.327 -2.8998 -2.4424  0.6550
 3865SOL    HW212212   1.953   3.493   0.226 -2.4591  2.1554 -2.2137
 3866SOL     OW12213   5.327   5.562   7.126  0.7431  0.4548  0.1601
 3866SOL    HW112214   5.272   5.499   7.078 -0.7738  2.5289 -0.9655
 3866SOL    HW212215   5.360   5.621   7.058  1.4247  1.3822  1.2710
 3867SOL     OW12216   3.919   0.132   1.101 -0.4612 -0.0010 -0.4990
 3867SOL    HW112217   3.906   0.107   1.010 -1.2507  1.4902 -0.8102
 3867SOL    HW212218   3.849   0.088   1.149 -0.4247 -0.2666 -0.6861
 3868SOL     OW12219   1.318   5.722   5.380 -0.1883 -0.1290  0.2765
 3868SOL    HW112220   1.300   5.632   5.409  0.4070 -0.4453 -0.3130
 3868SOL    HW212221   1.308   5.774   5.460 -1.4547 -0.5726  0.4430
 3869SOL     OW12222   0.914   0.226   5.888 -0.0531 -0.2345 -0.4458
 3869SOL    HW112223   0.897   0.310   5.929  0.4269  0.3315 -1.3791
 3869SOL    HW212224   0.942   0.247   5.799 -0.6892 -1.4109 -0.9564
 3870SOL     OW12225   3.499   2.200   1.194 -0.0056 -0.2999 -0.4412
 3870SOL    HW112226   3.479   2.285   1.234  0.8955  0.4273 -1.4734
 3870SOL    HW212227   3.414   2.156   1.188 -0.9819  1.6075 -2.2862
 3871SOL     OW12228   1.392   0.570   1.750  0.0018 -0.5717 -0.1625
 3871SOL    HW112229   1.331   0.499   1.768 -0.4465 -0.1331  0.1113
 3871SOL    HW212230   1.387   0.626   1.828 -0.5310  0.3640 -0.8384
 3872SOL     OW12231   2.082   2.803   1.350  0.2886 -0.4406  0.1251
 3872SOL    HW112232   2.114   2.888   1.322  0.3431 -0.3922  0.3297
 3872SOL    HW212233   2.124   2.740   1.292  0.6723 -0.3694  0.3235
 3873SOL     OW12234   6.740   0.961   6.006  0.1266 -0.3982  0.1536
 3873SOL    HW112235   6.738   0.928   6.096  0.8104 -0.0172  0.3095
 3873SOL    HW212236   6.712   1.052   6.014  3.7344  0.8229  0.5277
 3874SOL     OW12237   0.242   5.942   0.399 -0.0711  0.4725  0.4864
 3874SOL    HW112238   0.153   5.945   0.362 -0.2675  1.2618  1.0027
 3874SOL    HW212239   0.274   5.855   0.376 -0.6692  0.4802 -0.4187
 3875SOL     OW12240   2.838   2.313   6.804 -0.9742  0.1262 -0.6170
 3875SOL    HW112241   2.867   2.229   6.839 -0.2515  0.5751 -0.1114
 3875SOL    HW212242   2.858   2.309   6.711 -0.7853 -0.1909 -0.5625
 3876SOL     OW12243   4.909   3.684   5.748 -0.2756  0.6107 -0.2842
 3876SOL    HW112244   4.956   3.725   5.821  1.1635 -0.5539 -0.5390
 3876SOL    HW212245   4.859   3.613   5.789 -1.4592  1.4936 -0.1032
 3877SOL     OW12246   4.004   3.334   1.152 -0.3376 -0.0734 -0.3349
 3877SOL    HW112247   4.018   3.298   1.239  1.9323  1.3749 -0.0273
 3877SOL    HW212248   3.912   3.313   1.132  0.0215 -3.4350  0.9036
 3878SOL     OW12249   4.121   7.075   5.355  0.0217  0.0226  0.2133
 3878SOL    HW112250   4.162   7.152   5.315  0.0132 -0.5696 -0.9813
 3878SOL    HW212251   4.173   7.001   5.324  0.1387 -0.4532  1.4960
 3879SOL     OW12252   6.562   7.132   6.868 -0.1655  0.7342  0.3578
 3879SOL    HW112253   6.635   7.085   6.907  0.4111  1.7216  0.5093
 3879SOL    HW212254   6.554   7.212   6.920 -0.0684  1.5638 -0.8439
 3880SOL     OW12255   7.036   5.925   4.881 -0.4763  0.2624  0.0608
 3880SOL    HW112256   6.989   5.948   4.961 -0.8485 -0.4799  0.0588
 3880SOL    HW212257   7.119   5.889   4.911  0.2432  1.8416  0.0592
 3881SOL     OW12258   2.911   6.828   3.831  0.3758 -0.4855  0.2121
 3881SOL    HW112259   2.997   6.788   3.819  0.5937 -0.4582  1.5338
 3881SOL    HW212260   2.930   6.919   3.853 -0.0967  0.2140 -2.0629
 3882SOL     OW12261   1.098   5.843   2.445  0.2295 -0.1219 -0.2206
 3882SOL    HW112262   1.050   5.908   2.496 -0.0357  2.2967 -3.2714
 3882SOL    HW212263   1.088   5.872   2.354  1.8696 -3.3351 -1.5701
 3883SOL     OW12264   4.846   6.908   2.689  0.0830  0.3458  0.1112
 3883SOL    HW112265   4.790   6.832   2.703 -1.1157  0.8744 -1.5265
 3883SOL    HW212266   4.839   6.927   2.595  1.7898  1.3882  0.1478
 3884SOL     OW12267   1.872   3.253   6.776 -0.2998  0.1748  0.0744
 3884SOL    HW112268   1.807   3.224   6.839 -1.5168  1.8537 -0.3602
 3884SOL    HW212269   1.907   3.334   6.812  0.9342 -0.2257 -0.1484
 3885SOL     OW12270   5.642   5.361   4.809 -0.2794  0.2899 -0.0544
 3885SOL    HW112271   5.613   5.342   4.720  0.3735  0.2567 -0.2624
 3885SOL    HW212272   5.618   5.284   4.859 -1.8661  0.8473  0.0942
 3886SOL     OW12273   3.524   5.444   4.409 -0.4979  0.0000 -0.5491
 3886SOL    HW112274   3.613   5.415   4.430 -0.7818 -0.0020  0.7587
 3886SOL    HW212275   3.503   5.400   4.327  0.2428 -1.0286 -0.2105
 3887SOL     OW12276   0.290   2.706   4.227 -0.6642 -0.1356 -0.4011
 3887SOL    HW112277   0.208   2.742   4.261 -0.9933 -0.8391 -0.4405
 3887SOL    HW212278   0.277   2.701   4.133 -0.6953 -0.5388 -0.3762
 3888SOL     OW12279   6.506   0.161   5.419  0.5675  0.3414  0.2275
 3888SOL    HW112280   6.492   0.068   5.400 -0.0245  0.4365  0.1743
 3888SOL    HW212281   6.420   0.201   5.404  0.2452  0.5466  2.3367
 3889SOL     OW12282   0.496   5.677   1.977 -0.8801 -0.2922 -0.1264
 3889SOL    HW112283   0.438   5.642   2.043  0.3399 -3.8059 -0.6810
 3889SOL    HW212284   0.563   5.726   2.026 -1.2763 -0.8686  1.0079
 3890SOL     OW12285   0.161   3.979   0.819  0.3973 -0.4482  0.2321
 3890SOL    HW112286   0.174   3.918   0.746 -0.6720 -2.0640  1.3069
 3890SOL    HW212287   0.142   3.922   0.893 -0.5811  1.2244  1.3180
 3891SOL     OW12288   5.871   2.210   0.840  0.3638 -0.3719  0.1649
 3891SOL    HW112289   5.788   2.209   0.888  0.3115 -0.9403  0.0696
 3891SOL    HW212290   5.875   2.125   0.796  1.1512 -0.4774  0.4269
 3892SOL     OW12291   0.774   4.407   4.123 -0.0137 -0.1395 -0.3243
 3892SOL    HW112292   0.856   4.380   4.164  0.2620  0.3368 -0.5559
 3892SOL    HW212293   0.781   4.502   4.115 -0.5703 -0.1000 -0.3852
 3893SOL     OW12294   5.536   7.238   5.895 -0.2799  0.4140 -0.8470
 3893SOL    HW112295   5.566   7.162   5.945 -2.3077  0.3201  0.3679
 3893SOL    HW212296   5.547   7.213   5.804  0.2678 -0.8423 -0.4647
 3894SOL     OW12297   2.761   5.495   4.611  0.3413 -0.9821  0.2579
 3894SOL    HW112298   2.766   5.399   4.605 -1.7578 -1.4412  3.3811
 3894SOL    HW212299   2.849   5.524   4.590  0.5730 -3.3854 -2.7662
 3895SOL     OW12300   4.816   3.202   2.286 -0.4131 -0.1098 -0.0683
 3895SOL    HW112301   4.835   3.223   2.195 -0.5159 -1.1039 -0.3314
 3895SOL    HW212302   4.728   3.235   2.301  0.1451  1.3702  0.1192
 3896SOL     OW12303   2.966   2.930   2.195  0.9582 -1.0324 -0.4460
 3896SOL    HW112304   2.925   2.981   2.125  0.2281 -0.0096  0.7006
 3896SOL    HW212305   2.998   2.851   2.151  0.2152 -0.5744 -1.8655
 3897SOL     OW12306   3.885   0.433   3.492  0.3061  0.0102 -0.1991
 3897SOL    HW112307   3.889   0.343   3.525  0.3570 -0.7815 -2.2372
 3897SOL    HW212308   3.938   0.483   3.554  1.8533 -1.7048 -0.0316
 3898SOL     OW12309   3.549   6.046   0.602 -0.1120 -0.1488  0.0337
 3898SOL    HW112310   3.527   5.971   0.658  0.9871 -0.9863 -0.6165
 3898SOL    HW212311   3.492   6.036   0.526  1.6503 -1.7432 -1.1778
 3899SOL     OW12312   3.825   4.615   6.769  0.3435  0.2307  0.1164
 3899SOL    HW112313   3.752   4.612   6.708  0.4015  0.1230  0.0531
 3899SOL    HW212314   3.903   4.606   6.713  0.4113  0.4681  0.1686
 3900SOL     OW12315   4.565   4.644   1.681 -0.0270 -0.0177  0.1142
 3900SOL    HW112316   4.554   4.609   1.593  0.2828  0.0823  0.0349
 3900SOL    HW212317   4.657   4.672   1.685  0.2232 -0.8778  0.7699
 3901SOL     OW12318   4.672   2.008   2.574 -0.3119 -0.9561 -0.5205
 3901SOL    HW112319   4.584   2.031   2.604 -0.2604 -1.8520  0.3824
 3901SOL    HW212320   4.709   2.091   2.544 -1.0879 -0.3693  0.0847
 3902SOL     OW12321   3.503   3.960   4.855 -0.0953 -0.1774 -0.0865
 3902SOL    HW112322   3.560   3.883   4.854 -0.9992 -0.9737  2.7319
 3902SOL    HW212323   3.559   4.031   4.886 -0.1005 -0.4654  0.5805
 3903SOL     OW12324   3.309   2.560   7.228  0.7593  0.0084  0.1830
 3903SOL    HW112325   3.382   2.508   7.195  0.6268  1.6178 -3.0245
 3903SOL    HW212326   3.349   2.624   7.286  1.3984 -1.2864  1.2104
 3904SOL     OW12327   5.901   0.031   5.873  0.1971  0.2892  0.1702
 3904SOL    HW112328   5.851  -0.051   5.878 -0.1622  0.4101 -1.1865
 3904SOL    HW212329   5.938   0.042   5.961 -0.2829 -0.9908  0.5481
 3905SOL     OW12330   3.358   5.605   6.174 -0.7072 -0.1450  0.2790
 3905SOL    HW112331   3.389   5.674   6.115 -0.3528 -0.9558 -0.5217
 3905SOL    HW212332   3.263   5.612   6.172 -0.7287 -0.5583 -0.9113
 3906SOL     OW12333   4.577   1.776   2.212 -0.2303  0.6589  0.4123
 3906SOL    HW112334   4.596   1.771   2.305  3.0697 -1.8497 -0.2179
 3906SOL    HW212335   4.485   1.751   2.205 -0.9737  2.2623  2.9926
 3907SOL     OW12336   2.202   5.076   3.060 -0.2090 -0.3810 -1.0457
 3907SOL    HW112337   2.298   5.074   3.060 -0.2049 -0.4674 -1.6079
 3907SOL    HW212338   2.179   5.112   2.974 -0.6624  0.7793 -0.4548
 3908SOL     OW12339   2.116   0.037   0.174 -0.1102  0.2360  0.0818
 3908SOL    HW112340   2.109   0.066   0.083 -0.4444 -0.5849 -0.1547
 3908SOL    HW212341   2.105   0.118   0.225 -4.0380  0.2387 -0.4580
 3909SOL     OW12342   1.965   4.806   6.131  0.3258  0.5721  0.0170
 3909SOL    HW112343   1.920   4.891   6.134 -1.1471 -0.1948  2.2790
 3909SOL    HW212344   1.900   4.745   6.097  0.8546  0.0576 -0.0981
 3910SOL     OW12345   3.257   3.460   5.345 -0.4120 -0.0927 -0.2266
 3910SOL    HW112346   3.223   3.550   5.343  3.5955  1.6512 -0.2550
 3910SOL    HW212347   3.248   3.429   5.255 -0.4921  0.8918 -0.5729
 3911SOL     OW12348   6.895   4.843   1.808 -0.6839  0.3684  0.3092
 3911SOL    HW112349   6.925   4.933   1.824 -0.9789  0.7301 -1.0155
 3911SOL    HW212350   6.912   4.797   1.890 -1.5807  1.9136  1.4149
 3912SOL     OW12351   0.805   0.035   1.464  0.5561  0.0165  0.0994
 3912SOL    HW112352   0.869   0.105   1.477  1.5378 -0.9143  0.3711
 3912SOL    HW212353   0.817   0.009   1.372 -1.0645  1.3901 -0.5620
 3913SOL     OW12354   5.373   4.295   6.282  0.3021 -0.3356  0.1035
 3913SOL    HW112355   5.437   4.260   6.219 -0.4307 -0.2030 -0.7424
 3913SOL    HW212356   5.300   4.324   6.227 -0.4601 -0.4371  1.0485
 3914SOL     OW12357   4.990   6.622   1.756 -0.2312 -0.2960 -0.3395
 3914SOL    HW112358   5.039   6.698   1.787  0.5298 -1.1630  0.6767
 3914SOL    HW212359   4.956   6.648   1.671 -1.8027  1.9496  0.8853
 3915SOL     OW12360   3.051   6.573   1.060 -0.3451 -0.5376 -0.0505
 3915SOL    HW112361   3.097   6.631   1.119 -0.8223  0.3609 -0.5377
 3915SOL    HW212362   3.066   6.610   0.973 -1.9284 -0.2380 -0.2261
 3916SOL     OW12363   3.297   1.111   4.940  0.3561  0.1309 -0.1683
 3916SOL    HW112364   3.222   1.061   4.972  0.5621  0.1952  0.4299
 3916SOL    HW212365   3.364   1.100   5.007  0.3748  1.2896  0.0286
 3917SOL     OW12366   3.531   5.501   3.405  0.4020 -0.3476 -0.3800
 3917SOL    HW112367   3.489   5.575   3.361  0.8890  0.3164  0.2385
 3917SOL    HW212368   3.601   5.541   3.456  1.6251 -1.4038 -1.1799
 3918SOL     OW12369   2.739   5.117   5.305 -0.2695 -0.0339  0.9977
 3918SOL    HW112370   2.759   5.167   5.226 -0.3016 -0.5754  0.6439
 3918SOL    HW212371   2.759   5.177   5.377 -0.0515  0.3934  0.5839
 3919SOL     OW12372   6.656   4.274   3.739  0.6518 -0.0420  0.4535
 3919SOL    HW112373   6.708   4.198   3.763  1.0904  0.7895  2.3029
 3919SOL    HW212374   6.580   4.271   3.798  0.5935  0.8606  0.4388
 3920SOL     OW12375   2.856   4.528   6.104  0.1523  0.5247 -0.2586
 3920SOL    HW112376   2.892   4.537   6.016 -0.1138 -0.5435 -0.4944
 3920SOL    HW212377   2.869   4.614   6.145 -0.0422  1.1327 -1.4530
 3921SOL     OW12378   5.426   2.339   6.193  0.0275  0.5578 -0.0519
 3921SOL    HW112379   5.451   2.286   6.118  1.2819  1.1580 -0.0920
 3921SOL    HW212380   5.435   2.280   6.268  0.8180  0.5279 -0.1613
 3922SOL     OW12381   3.640   4.704   2.813  0.1243  0.6165 -0.5125
 3922SOL    HW112382   3.722   4.706   2.764  1.2304  1.3428  1.2686
 3922SOL    HW212383   3.616   4.797   2.824 -0.8496  0.4209 -0.8443
 3923SOL     OW12384   5.527   4.679   2.885  0.0508  0.0321 -0.0251
 3923SOL    HW112385   5.497   4.622   2.955  0.2035 -0.1656 -0.1188
 3923SOL    HW212386   5.589   4.625   2.835  0.5686  0.4351  0.1774
 3924SOL     OW12387   3.347   2.399   0.228  0.2537 -0.2721 -0.8559
 3924SOL    HW112388   3.252   2.392   0.217  0.6339 -2.4065 -4.0769
 3924SOL    HW212389   3.368   2.333   0.295 -0.5378  0.7917  0.4969
 3925SOL     OW12390   0.949   1.373   6.728  0.4513  0.5079 -0.8251
 3925SOL    HW112391   0.877   1.365   6.791  0.6320  1.3799 -0.4876
 3925SOL    HW212392   0.958   1.286   6.690  0.1871  0.0336  0.1856
 3926SOL     OW12393   1.500   6.424   2.127  0.3899  0.4968  0.4697
 3926SOL    HW112394   1.462   6.374   2.054  1.0078  0.2193  0.3344
 3926SOL    HW212395   1.424   6.453   2.178 -0.0666  0.8610 -0.3891
 3927SOL     OW12396   0.086   5.413   0.542 -0.2934 -0.3219  0.1651
 3927SOL    HW112397   0.097   5.348   0.473 -0.1850 -1.3212  1.1134
 3927SOL    HW212398  -0.008   5.418   0.557 -0.4362  0.8357 -0.9118
 3928SOL     OW12399   1.815   3.383   0.226  0.1707  0.0940 -0.4304
 3928SOL    HW112400   1.878   3.324   0.269  1.8683  1.3376 -1.0917
 3928SOL    HW212401   1.729   3.352   0.254  1.1358 -0.0556  2.6567
 3929SOL     OW12402   2.823   4.499   3.869 -0.8809 -0.4324 -0.3255
 3929SOL    HW112403   2.748   4.440   3.883 -2.1295  1.1430 -0.0726
 3929SOL    HW212404   2.794   4.559   3.800  0.3598 -0.1103 -0.5911
 3930SOL     OW12405   0.843   2.294   5.121 -0.4286 -0.1693 -0.0239
 3930SOL    HW112406   0.822   2.362   5.185  2.3802 -0.0592  0.9394
 3930SOL    HW212407   0.810   2.328   5.038  1.2087  2.6425  0.3450
 3931SOL     OW12408   5.788   5.785   6.817  0.3130 -0.3586  0.3735
 3931SOL    HW112409   5.878   5.759   6.832  1.0600  1.9469  0.2305
 3931SOL    HW212410   5.790   5.837   6.737 -0.8670  0.9839  1.1689
 3932SOL     OW12411   6.733   2.138   4.647  0.3632 -0.2764  0.4053
 3932SOL    HW112412   6.809   2.125   4.704 -0.7197 -1.0827  1.7379
 3932SOL    HW212413   6.729   2.059   4.594  0.9533  0.1631 -0.3214
 3933SOL     OW12414   2.695   7.004   5.193 -0.1319  0.3368  0.1556
 3933SOL    HW112415   2.704   7.068   5.264 -0.6079 -0.8785  1.3462
 3933SOL    HW212416   2.776   6.953   5.196 -0.8815 -0.8576  1.0179
 3934SOL     OW12417   6.543   4.330   1.756  0.1989 -0.0056 -0.3420
 3934SOL    HW112418   6.551   4.420   1.788  1.8412 -0.0485 -0.5508
 3934SOL    HW212419   6.599   4.328   1.678  0.7983 -1.4200  0.1151
 3935SOL     OW12420   0.248   5.395   0.099 -0.3400 -0.0401 -0.1915
 3935SOL    HW112421   0.304   5.450   0.155 -0.6159 -0.5594  0.6178
 3935SOL    HW212422   0.176   5.451   0.073 -0.1667  0.2309 -0.0866
 3936SOL     OW12423   3.432   2.578   4.952  0.0848 -0.3451 -0.1522
 3936SOL    HW112424   3.377   2.606   4.880  0.6836 -0.8839 -0.8407
 3936SOL    HW212425   3.388   2.500   4.987 -0.0422 -0.2641 -0.1305
 3937SOL     OW12426   5.119   2.658   0.465  0.0429  0.3852 -0.2404
 3937SOL    HW112427   5.093   2.567   0.477 -0.1484  0.3207 -1.1182
 3937SOL    HW212428   5.046   2.708   0.503 -0.1157  0.1841 -0.2766
 3938SOL     OW12429   0.924   4.606   4.757  0.1304 -0.1188  0.8632
 3938SOL    HW112430   0.863   4.662   4.708  1.5816  0.9893  0.2288
 3938SOL    HW212431   0.941   4.532   4.698  0.5103  0.3225  0.4016
 3939SOL     OW12432   5.567   1.133   4.592  0.3615  1.1052 -0.2169
 3939SOL    HW112433   5.511   1.155   4.518  0.2528  0.5770 -0.3002
 3939SOL    HW212434   5.591   1.217   4.631  0.0982  1.3657 -0.6154
 3940SOL     OW12435   0.637   0.797   1.097  0.0603 -0.5278  0.0482
 3940SOL    HW112436   0.560   0.846   1.069  1.0189  0.1753 -1.5162
 3940SOL    HW212437   0.604   0.709   1.115 -0.8469 -0.8469 -2.6405
 3941SOL     OW12438   0.660   5.291   5.488  0.0278  0.2202 -0.1294
 3941SOL    HW112439   0.645   5.237   5.411 -0.7910  1.2911 -0.7589
 3941SOL    HW212440   0.752   5.277   5.511 -0.0604 -1.0963 -0.5055
 3942SOL     OW12441   5.637   5.854   2.161 -0.4873  0.4273  0.9687
 3942SOL    HW112442   5.705   5.859   2.094 -1.2693  0.7372  0.1762
 3942SOL    HW212443   5.684   5.864   2.244  0.6205 -0.9215  0.5439
 3943SOL     OW12444   5.830   4.964   2.350 -0.1489  0.0640 -0.1813
 3943SOL    HW112445   5.844   4.872   2.374  0.9008  0.7288  1.9544
 3943SOL    HW212446   5.914   4.991   2.312 -0.1228  0.3990  0.1129
 3944SOL     OW12447   1.912   0.333   0.878 -0.2677  0.0726  0.8210
 3944SOL    HW112448   1.991   0.284   0.901 -0.1720 -0.5982 -0.8528
 3944SOL    HW212449   1.881   0.369   0.962  2.4266  1.3253  1.3932
 3945SOL     OW12450   3.264   5.221   4.901 -0.8028  0.1561  0.0149
 3945SOL    HW112451   3.215   5.262   4.972 -1.1681 -0.9554  0.4219
 3945SOL    HW212452   3.212   5.237   4.822 -1.7510 -0.8477  0.4116
 3946SOL     OW12453   3.508   6.073   6.738 -0.5828  0.0305  1.0026
 3946SOL    HW112454   3.579   6.066   6.674 -1.5301  4.4902 -0.9334
 3946SOL    HW212455   3.443   6.010   6.708 -0.4813  1.1486 -1.8672
 3947SOL     OW12456   3.124   3.880   4.495  0.1581 -0.1433  0.4334
 3947SOL    HW112457   3.209   3.845   4.468  0.9594  0.8349  1.5538
 3947SOL    HW212458   3.096   3.934   4.421 -0.5656 -2.1496 -0.8473
 3948SOL     OW12459   0.354   0.231   5.217  0.0293 -0.0820  0.7349
 3948SOL    HW112460   0.406   0.180   5.279 -1.3741  0.1746  2.2072
 3948SOL    HW212461   0.337   0.314   5.263 -0.4357  0.4242 -0.3083
 3949SOL     OW12462   4.770   0.736   0.850  0.1021  0.3407  0.1277
 3949SOL    HW112463   4.793   0.777   0.933  1.8245 -1.5764  0.6951
 3949SOL    HW212464   4.832   0.664   0.841 -1.2249 -0.6529 -1.9427
 3950SOL     OW12465   3.823   5.590   5.613  0.1167  0.5178  0.3223
 3950SOL    HW112466   3.881   5.550   5.547 -0.7387  0.1008 -0.1845
 3950SOL    HW212467   3.793   5.517   5.667 -1.0319  0.5282 -0.2783
 3951SOL     OW12468   6.424   5.965   1.921  0.0109 -0.2190 -0.2244
 3951SOL    HW112469   6.398   5.991   2.009 -0.3279 -1.5384  0.0859
 3951SOL    HW212470   6.414   6.044   1.868 -1.2437  0.2002  0.6188
 3952SOL     OW12471   4.877   4.707   6.506 -0.2515  0.1841  0.2235
 3952SOL    HW112472   4.950   4.677   6.560 -0.0329  0.8314  0.2950
 3952SOL    HW212473   4.815   4.635   6.508 -0.7120  0.5911  2.1899
 3953SOL     OW12474   7.244   1.427   1.000 -0.2145 -0.1407 -0.7921
 3953SOL    HW112475   7.166   1.372   1.004  0.6110 -1.2863  1.9917
 3953SOL    HW212476   7.231   1.481   0.922 -3.0772 -1.2792 -1.2383
 3954SOL     OW12477   2.249   0.746   3.408 -0.5201  0.2703 -0.2765
 3954SOL    HW112478   2.180   0.724   3.345  0.9273  1.2368 -2.3294
 3954SOL    HW212479   2.205   0.796   3.477 -2.4348 -2.1195  0.3614
 3955SOL     OW12480   5.470   3.712   0.428 -0.1747 -0.3419 -0.4332
 3955SOL    HW112481   5.510   3.764   0.498  1.5302 -2.8452  0.5614
 3955SOL    HW212482   5.531   3.720   0.355  0.4110 -1.3981 -0.0713
 3956SOL     OW12483   4.758   1.645   4.198  0.1788 -0.4139  0.1332
 3956SOL    HW112484   4.844   1.687   4.197 -0.0913  0.1638  0.7597
 3956SOL    HW212485   4.739   1.631   4.291 -0.9695  0.6537  0.0832
 3957SOL     OW12486   5.382   6.737   0.222 -0.0806 -0.5622 -0.2008
 3957SOL    HW112487   5.430   6.819   0.236  0.7016 -1.1186  0.4900
 3957SOL    HW212488   5.379   6.726   0.127  0.8644 -0.3246 -0.2713
 3958SOL     OW12489   5.173   3.592   2.037 -0.6292  0.1677  0.2669
 3958SOL    HW112490   5.264   3.566   2.053 -0.6274  1.1834  2.1643
 3958SOL    HW212491   5.179   3.673   1.987 -0.5316 -0.1585 -0.2652
 3959SOL     OW12492   0.047   0.412   3.264  0.3540  0.3727  0.1275
 3959SOL    HW112493  -0.014   0.475   3.303 -0.1968 -0.7374  1.1218
 3959SOL    HW212494   0.106   0.466   3.212 -1.2022  1.5328 -0.5242
 3960SOL     OW12495   5.990   2.460   0.834  0.3771  0.1158 -0.0028
 3960SOL    HW112496   5.956   2.483   0.747  0.7713  0.2206 -0.1339
 3960SOL    HW212497   5.957   2.372   0.850 -0.8796  0.6338  0.3649
 3961SOL     OW12498   3.757   4.173   3.640  0.2875 -0.3531  0.2279
 3961SOL    HW112499   3.793   4.255   3.672 -0.0929 -0.4640  0.9807
 3961SOL    HW212500   3.673   4.164   3.686 -0.4244 -0.3841 -1.0400
 3962SOL     OW12501   6.894   4.405   1.036 -0.2987 -0.0420 -0.2709
 3962SOL    HW112502   6.844   4.330   1.005 -1.8048  0.6981  0.2833
 3962SOL    HW212503   6.845   4.482   1.006  1.1321  0.7437 -0.6996
 3963SOL     OW12504   5.001   6.358   4.467  0.6949  0.0924  0.1892
 3963SOL    HW112505   5.088   6.325   4.445  0.4605  0.5991 -1.6467
 3963SOL    HW212506   4.952   6.352   4.385 -1.2358 -0.8588  1.3701
 3964SOL     OW12507   0.878   6.048   6.235  0.2043 -0.3110 -0.2664
 3964SOL    HW112508   0.924   5.978   6.189 -0.5182 -1.0314  0.0789
 3964SOL    HW212509   0.925   6.057   6.318  0.3885 -0.2857 -0.3737
 3965SOL     OW12510   1.924   6.543   5.934  0.2414  0.3492 -0.5053
 3965SOL    HW112511   1.940   6.504   5.848 -0.5487 -1.1450 -0.0128
 3965SOL    HW212512   1.988   6.501   5.992 -0.6341 -0.2729  0.0391
 3966SOL     OW12513   3.434   0.737   4.889 -0.4078 -0.0153 -0.3535
 3966SOL    HW112514   3.411   0.758   4.798 -1.0222 -0.4980 -0.3210
 3966SOL    HW212515   3.393   0.652   4.905  2.1031 -1.3610 -0.5317
 3967SOL     OW12516   6.053   1.987   3.143 -0.7307 -0.4465 -0.6111
 3967SOL    HW112517   6.000   1.993   3.063 -0.8330 -0.8268 -0.5719
 3967SOL    HW212518   6.143   1.984   3.111 -0.7015  0.6295 -0.6608
 3968SOL     OW12519   1.091   0.183   1.760  0.0651 -0.4113  0.4144
 3968SOL    HW112520   1.083   0.278   1.756 -0.3481 -0.4351  0.6626
 3968SOL    HW212521   1.028   0.156   1.827 -0.6762 -0.9553 -0.4781
 3969SOL     OW12522   0.660   1.395   6.588  0.1799  0.4693  0.0386
 3969SOL    HW112523   0.742   1.419   6.630 -0.8175  1.8979  1.3007
 3969SOL    HW212524   0.629   1.319   6.637  1.4258 -1.0536 -1.4168
 3970SOL     OW12525   3.499   2.573   3.207 -0.0688  0.2402 -0.4447
 3970SOL    HW112526   3.412   2.592   3.173 -1.2935 -1.1626  1.6755
 3970SOL    HW212527   3.519   2.485   3.174  0.7913  0.7289 -1.2924
 3971SOL     OW12528   4.133   3.583   4.443 -0.0266  0.0501 -0.1192
 3971SOL    HW112529   4.117   3.497   4.482 -1.2084 -0.4526 -1.6128
 3971SOL    HW212530   4.110   3.572   4.351  1.7059  1.4609 -0.7639
 3972SOL     OW12531   7.073   6.992   6.569 -0.5906  0.1928  0.0809
 3972SOL    HW112532   7.118   7.036   6.497  0.6107  0.4956  0.9727
 3972SOL    HW212533   7.142   6.947   6.617 -1.5583 -1.1562  0.2574
 3973SOL     OW12534   5.583   5.145   0.212  0.4207  0.2709 -0.0377
 3973SOL    HW112535   5.649   5.163   0.145  1.8151 -0.5336  1.0509
 3973SOL    HW212536   5.571   5.228   0.257 -0.3470  0.7587 -1.0780
 3974SOL     OW12537   1.716   6.471   6.847  0.4414 -0.1589  0.4579
 3974SOL    HW112538   1.640   6.507   6.892  0.7345  1.8719 -0.5789
 3974SOL    HW212539   1.736   6.535   6.778  2.4104 -1.1980 -0.0023
 3975SOL     OW12540   2.725   0.720   0.176 -0.0663  0.0815  0.1296
 3975SOL    HW112541   2.757   0.716   0.086  0.0989 -0.4828  0.2119
 3975SOL    HW212542   2.647   0.664   0.177  0.3259 -0.4728  0.4929
 3976SOL     OW12543   3.938   3.427   0.502  0.0995 -0.5096  0.2473
 3976SOL    HW112544   3.977   3.502   0.546  0.1157  0.1419 -0.8193
 3976SOL    HW212545   3.937   3.357   0.567  2.9113 -0.5350  0.3558
 3977SOL     OW12546   4.444   5.294   0.411  0.3087 -0.6818 -0.1446
 3977SOL    HW112547   4.519   5.254   0.456 -0.3687 -1.1564  0.5736
 3977SOL    HW212548   4.374   5.230   0.420 -0.1164 -0.3530 -1.0504
 3978SOL     OW12549   3.994   3.175   1.410  0.2718 -0.3665 -0.0957
 3978SOL    HW112550   4.007   3.092   1.363  3.1876 -1.2200  1.8953
 3978SOL    HW212551   3.978   3.149   1.500  1.3443  1.2079  0.5862
 3979SOL     OW12552   1.885   2.597   2.292 -0.0181 -0.5580 -0.2114
 3979SOL    HW112553   1.819   2.556   2.236  0.4141 -0.9271 -0.4564
 3979SOL    HW212554   1.835   2.656   2.349 -0.8535 -2.6082  1.2633
 3980SOL     OW12555   0.947   4.447   5.469 -0.1981 -0.1518  0.4125
 3980SOL    HW112556   0.913   4.357   5.470 -0.4022 -0.0768  0.0664
 3980SOL    HW212557   0.972   4.462   5.378  1.3826 -0.4368  0.7637
 3981SOL     OW12558   7.082   6.751   0.851 -0.2752  0.0353 -0.3381
 3981SOL    HW112559   7.070   6.662   0.884  0.1275  0.2033  0.2952
 3981SOL    HW212560   7.174   6.770   0.868 -0.5720  0.9033  0.3879
 3982SOL     OW12561   3.087   0.044   7.136 -0.0812 -0.1587 -0.2890
 3982SOL    HW112562   3.057  -0.046   7.144  0.2651 -0.5192 -2.4307
 3982SOL    HW212563   3.021   0.096   7.181 -0.0043 -1.4986  1.4602
 3983SOL     OW12564   3.989   2.040   3.820  0.4800  0.1013  0.2642
 3983SOL    HW112565   4.035   2.058   3.902 -0.8616 -1.1946  1.3441
 3983SOL    HW212566   4.056   2.007   3.761  1.6033  1.7335  0.5725
 3984SOL     OW12567   0.247   1.223   5.857 -0.2305 -0.0990  0.2053
 3984SOL    HW112568   0.213   1.141   5.820 -0.3758  0.1625 -0.2602
 3984SOL    HW212569   0.245   1.284   5.783 -0.4173  0.4084  0.6234
 3985SOL     OW12570   1.187   2.776   6.518 -0.2891  0.5556 -0.8683
 3985SOL    HW112571   1.145   2.840   6.461  3.3966  1.6961 -2.5669
 3985SOL    HW212572   1.225   2.828   6.589  1.6300  0.1725 -1.5573
 3986SOL     OW12573   2.949   2.960   0.699  0.2435  0.1692 -0.2399
 3986SOL    HW112574   3.006   2.926   0.630 -0.7917 -2.1620 -0.0656
 3986SOL    HW212575   2.860   2.945   0.665 -0.3308  2.6649 -0.0320
 3987SOL     OW12576   2.955   6.105   4.428  0.3448  0.1376  0.1285
 3987SOL    HW112577   2.937   6.085   4.336 -0.5597 -1.7596  0.6636
 3987SOL    HW212578   3.012   6.182   4.425  0.2766  0.1724 -2.0040
 3988SOL     OW12579   2.093   3.334   7.249 -0.1701  0.0140 -0.8549
 3988SOL    HW112580   2.170   3.316   7.303  1.1657  0.8381 -2.4074
 3988SOL    HW212581   2.020   3.333   7.310  1.2624  0.8416  0.9620
 3989SOL     OW12582   6.680   0.954   6.795  0.2432 -0.5035  0.2122
 3989SOL    HW112583   6.733   1.033   6.810 -0.5344 -0.0402  0.5787
 3989SOL    HW212584   6.608   0.961   6.857 -0.8821 -0.5475 -1.0415
 3990SOL     OW12585   3.977   6.044   1.383 -0.5667 -0.7763 -0.4261
 3990SOL    HW112586   4.041   5.976   1.404 -1.7788 -1.9382 -0.4185
 3990SOL    HW212587   3.909   5.999   1.333 -1.0883  0.5668 -0.9711
 3991SOL     OW12588   5.277   3.812   1.920 -0.2969 -0.2044 -0.2746
 3991SOL    HW112589   5.363   3.769   1.915 -0.5273 -0.6804 -0.2104
 3991SOL    HW212590   5.294   3.903   1.896  0.8141  0.5470  2.8898
 3992SOL     OW12591   4.691   2.899   4.367  0.0224 -0.8118  0.0210
 3992SOL    HW112592   4.604   2.909   4.329 -0.7321 -1.3301  1.5196
 3992SOL    HW212593   4.684   2.938   4.454  1.4052 -0.5381  0.0346
 3993SOL     OW12594   7.013   6.925   3.361  0.0051 -0.2002  0.2403
 3993SOL    HW112595   7.043   6.966   3.443 -3.7162 -0.2767  1.8903
 3993SOL    HW212596   7.034   6.989   3.294  0.0375  1.5798  1.8403
 3994SOL     OW12597   3.211   1.968   4.495 -0.6240  0.6972  0.2740
 3994SOL    HW112598   3.214   1.937   4.585 -0.3935  0.5955  0.2329
 3994SOL    HW212599   3.222   1.889   4.441 -0.4934  0.7906  0.1619
 3995SOL     OW12600   1.773   2.586   1.184  0.1645 -0.3553  0.3760
 3995SOL    HW112601   1.741   2.662   1.233  0.6272  0.0684  0.0460
 3995SOL    HW212602   1.811   2.528   1.250  1.6600  0.6502  0.4643
 3996SOL     OW12603   7.218   6.802   5.198  0.1883  0.4515  0.3521
 3996SOL    HW112604   7.288   6.767   5.143 -0.5258  1.0631 -0.9722
 3996SOL    HW212605   7.262   6.866   5.255  1.2568 -1.4924  1.8326
 3997SOL     OW12606   6.169   3.079   6.449 -0.7285  0.4104 -0.4366
 3997SOL    HW112607   6.242   3.124   6.492 -1.4081  1.3514 -0.2382
 3997SOL    HW212608   6.169   2.991   6.488  0.0016  0.5543 -0.1000
 3998SOL     OW12609   4.914   3.079   6.047  0.7351 -0.1411 -0.0460
 3998SOL    HW112610   4.999   3.095   6.087 -0.0128 -0.5333  1.8404
 3998SOL    HW212611   4.933   3.059   5.955  2.4839  1.7202 -0.1575
 3999SOL     OW12612   5.514   0.811   4.377  0.0753 -0.4695 -0.0430
 3999SOL    HW112613   5.462   0.887   4.405 -1.1807 -1.5664  0.7369
 3999SOL    HW212614   5.465   0.774   4.304  0.3120 -0.9251  0.0258
 4000SOL     OW12615   5.382   0.280   1.463  0.1061  0.4685 -0.1690
 4000SOL    HW112616   5.313   0.293   1.528  0.6337  0.2285  0.4569
 4000SOL    HW212617   5.454   0.336   1.494  0.8616 -0.6910  0.2359
 4001SOL     OW12618   4.421   7.088   0.672 -0.1988  0.4054  0.0635
 4001SOL    HW112619   4.361   7.110   0.743 -0.9957 -0.6738 -0.2527
 4001SOL    HW212620   4.366   7.045   0.607  1.1042 -1.8966  0.3678
 4002SOL     OW12621   2.565   2.374   0.127 -0.7808  0.2164  0.0686
 4002SOL    HW112622   2.610   2.359   0.044  1.5005 -1.5188  1.5085
 4002SOL    HW212623   2.605   2.454   0.162  0.8707 -0.9834  1.0575
 4003SOL     OW12624   4.307   5.853   0.854  0.5271  0.2231  0.6146
 4003SOL    HW112625   4.287   5.799   0.931 -0.2039 -0.5277 -0.0857
 4003SOL    HW212626   4.276   5.801   0.780 -0.5517  1.7699 -0.0582
 4004SOL     OW12627   6.293   3.199   0.688  0.4878  0.1011  0.4709
 4004SOL    HW112628   6.331   3.283   0.663 -0.5626  0.4601 -0.0121
 4004SOL    HW212629   6.266   3.160   0.605  0.6375 -0.5450  0.7230
 4005SOL     OW12630   3.245   0.258   2.484 -0.4701 -0.4047  0.2983
 4005SOL    HW112631   3.293   0.306   2.416 -0.3116 -1.2574 -0.2148
 4005SOL    HW212632   3.194   0.193   2.436 -0.2186 -1.1447  1.0071
 4006SOL     OW12633   0.182   3.604   2.788 -0.3094 -0.0238 -0.1036
 4006SOL    HW112634   0.186   3.540   2.716  0.4246  0.9864 -0.9884
 4006SOL    HW212635   0.091   3.634   2.788 -0.5699 -0.7969  0.0825
 4007SOL     OW12636   5.312   5.477   4.809 -0.4016 -0.3531  0.2267
 4007SOL    HW112637   5.320   5.387   4.778  1.4557 -0.2915  0.4042
 4007SOL    HW212638   5.322   5.471   4.904  0.7926  0.1052  0.1554
 4008SOL     OW12639   6.272   7.129   5.633  0.1739 -0.0576 -0.0804
 4008SOL    HW112640   6.284   7.127   5.538 -0.8038 -1.5137 -0.2061
 4008SOL    HW212641   6.250   7.221   5.652  4.6141  1.3325 -0.5952
 4009SOL     OW12642   0.792   6.244   5.237  0.2965 -0.5807  0.3358
 4009SOL    HW112643   0.822   6.159   5.271  0.8284 -1.6332 -2.4860
 4009SOL    HW212644   0.699   6.231   5.218  0.3753 -0.5304 -0.0884
 4010SOL     OW12645   1.255   4.603   4.664 -0.6126  0.3781 -0.3196
 4010SOL    HW112646   1.287   4.685   4.626 -1.2244  1.3588  1.1936
 4010SOL    HW212647   1.282   4.607   4.756 -0.0084 -1.4770 -0.3728
 4011SOL     OW12648   3.759   3.962   1.916 -0.3560  0.6201 -0.1422
 4011SOL    HW112649   3.721   3.876   1.894  0.1763  0.9282 -2.4431
 4011SOL    HW212650   3.683   4.021   1.920 -0.8600 -0.0528  2.4748
 4012SOL     OW12651   1.448   2.472   5.620  0.0924  0.4964 -0.6063
 4012SOL    HW112652   1.521   2.442   5.566 -0.1307  0.3033 -0.8011
 4012SOL    HW212653   1.488   2.495   5.704  0.3797  0.4155 -0.7214
 4013SOL     OW12654   5.133   3.521   1.457  0.4344 -0.3971  0.1539
 4013SOL    HW112655   5.154   3.443   1.404  1.8868  1.1112 -1.6362
 4013SOL    HW212656   5.196   3.587   1.428 -1.3007  1.7362  0.9683
 4014SOL     OW12657   1.949   7.019   6.776 -0.3625 -0.5317  0.0538
 4014SOL    HW112658   1.958   7.073   6.697  0.3001 -0.9848 -0.1915
 4014SOL    HW212659   2.024   6.958   6.772 -0.1761 -0.3956  1.1609
 4015SOL     OW12660   5.787   6.411   4.872 -0.0511  0.5145 -0.0151
 4015SOL    HW112661   5.735   6.391   4.795  0.0933  3.0621 -0.8739
 4015SOL    HW212662   5.740   6.483   4.915 -0.4374 -1.1973  2.6635
 4016SOL     OW12663   4.470   1.144   4.043 -0.2980 -0.1749 -0.4556
 4016SOL    HW112664   4.408   1.216   4.035 -2.2565 -1.8375 -1.1194
 4016SOL    HW212665   4.511   1.139   3.957 -0.2820  0.0197 -0.4610
 4017SOL     OW12666   2.802   2.606   2.402 -0.0881  0.0577 -0.1842
 4017SOL    HW112667   2.800   2.512   2.386 -1.3942  0.3792 -2.1972
 4017SOL    HW212668   2.879   2.619   2.459  0.2665 -2.1581 -0.0721
 4018SOL     OW12669   1.089   5.865   1.708  0.1551  0.1909 -0.1532
 4018SOL    HW112670   1.131   5.899   1.788  1.8629  0.6638 -1.1997
 4018SOL    HW212671   1.162   5.846   1.649 -1.0562 -0.4637 -1.4944
 4019SOL     OW12672   6.844   3.220   1.760  0.2286 -0.2964  0.1226
 4019SOL    HW112673   6.920   3.264   1.721  0.0497 -0.8236 -0.8459
 4019SOL    HW212674   6.824   3.272   1.838  0.6363  0.7547 -0.4539
 4020SOL     OW12675   4.718   0.461   1.859  0.1211  0.0352  0.1358
 4020SOL    HW112676   4.809   0.436   1.875  0.2076 -0.2909 -0.7516
 4020SOL    HW212677   4.668   0.383   1.882  0.0874  0.1356  0.4035
 4021SOL     OW12678   0.068   3.313   4.361  0.8209  0.5983 -0.0452
 4021SOL    HW112679  -0.013   3.364   4.364  0.6729  0.5281 -1.7160
 4021SOL    HW212680   0.137   3.376   4.384  0.2765  0.4937  2.0720
 4022SOL     OW12681   6.475   3.480   2.864  0.0111  0.3583  0.2585
 4022SOL    HW112682   6.558   3.444   2.897  0.1879 -0.5806 -1.1298
 4022SOL    HW212683   6.501   3.555   2.810 -0.0822  0.4085  0.2833
 4023SOL     OW12684   3.019   4.149   1.114  0.3878 -0.3212 -0.3865
 4023SOL    HW112685   2.964   4.184   1.043  1.1583 -1.1337 -1.4234
 4023SOL    HW212686   2.962   4.148   1.190 -1.1488 -1.4036 -1.4926
 4024SOL     OW12687   3.516   5.660   0.508 -0.1763  0.0877 -0.0634
 4024SOL    HW112688   3.426   5.655   0.541  0.2547 -2.6825  0.9509
 4024SOL    HW212689   3.556   5.730   0.560 -1.0846 -0.3674  1.3218
 4025SOL     OW12690   0.413   5.275   7.185  0.0564  0.5682  0.5221
 4025SOL    HW112691   0.472   5.309   7.253 -0.6846 -0.1640  1.5516
 4025SOL    HW212692   0.330   5.319   7.200 -0.2416  0.0660  0.3894
 4026SOL     OW12693   6.256   3.045   2.720  0.6563  0.0289  0.1688
 4026SOL    HW112694   6.166   3.040   2.688 -0.0080 -0.2529  1.9902
 4026SOL    HW212695   6.283   3.136   2.703 -0.5252  0.5494  0.9599
 4027SOL     OW12696   1.238   2.143   4.072 -0.3005 -0.3902 -0.6339
 4027SOL    HW112697   1.198   2.069   4.026  1.7930 -2.3649  0.4980
 4027SOL    HW212698   1.197   2.142   4.159 -1.3512  0.8058 -1.0777
 4028SOL     OW12699   3.966   5.247   6.439 -0.5503 -0.2060  0.4847
 4028SOL    HW112700   4.039   5.267   6.381 -0.7879  0.2267  0.3345
 4028SOL    HW212701   3.909   5.190   6.387 -0.3387 -0.5144  0.5897
 4029SOL     OW12702   7.241   0.635   3.409 -0.0308  0.1469 -0.2027
 4029SOL    HW112703   7.267   0.640   3.501  0.8430 -0.0346 -0.4306
 4029SOL    HW212704   7.227   0.726   3.384 -1.0719  0.1452  0.3213
 4030SOL     OW12705   5.534   7.166   1.383  0.2644 -0.0178  0.2978
 4030SOL    HW112706   5.618   7.125   1.402  0.1461  0.1679  1.2489
 4030SOL    HW212707   5.496   7.185   1.468 -0.8827 -0.3711 -0.1143
 4031SOL     OW12708   5.500   4.950   3.428  0.0930 -0.1379 -0.1076
 4031SOL    HW112709   5.580   4.930   3.378  0.9667 -0.7093  1.4354
 4031SOL    HW212710   5.528   5.017   3.490 -0.5835 -0.4705  0.5608
 4032SOL     OW12711   3.652   0.837   4.102  0.3808  0.1008 -0.0835
 4032SOL    HW112712   3.592   0.832   4.028  2.1075 -0.2218 -1.5440
 4032SOL    HW212713   3.699   0.919   4.089 -0.8072  1.2101  1.9715
 4033SOL     OW12714   4.572   1.113   5.011 -0.1840 -0.2740 -0.1656
 4033SOL    HW112715   4.497   1.055   5.026  0.4899 -0.7793  1.3898
 4033SOL    HW212716   4.533   1.197   4.987 -1.2044 -0.9339 -0.9238
 4034SOL     OW12717   6.104   3.545   1.964  0.5227 -0.4821 -0.2814
 4034SOL    HW112718   6.185   3.499   1.940  0.8272  0.9194 -2.1598
 4034SOL    HW212719   6.040   3.516   1.898 -0.2975 -0.9501  0.6969
 4035SOL     OW12720   1.338   2.983   6.570  0.0054  0.1260  0.2182
 4035SOL    HW112721   1.380   2.983   6.484  0.7482 -0.8218  0.5593
 4035SOL    HW212722   1.372   3.062   6.613 -0.1776  0.4704 -0.2656
 4036SOL     OW12723   3.337   1.093   3.761 -0.1510 -0.0092 -0.4138
 4036SOL    HW112724   3.384   1.011   3.778 -0.7000 -0.6158 -1.6451
 4036SOL    HW212725   3.247   1.066   3.745 -0.0282  0.5833 -2.5161
 4037SOL     OW12726   5.698   0.043   4.475 -0.3102  0.1019  0.1177
 4037SOL    HW112727   5.620  -0.010   4.461  0.4524 -0.6911 -1.3935
 4037SOL    HW212728   5.769  -0.020   4.485  0.3021  0.8083  0.3778
 4038SOL     OW12729   4.365   1.850   4.894 -0.6655 -0.5998 -0.2722
 4038SOL    HW112730   4.404   1.918   4.839 -0.9610 -2.4875 -3.0091
 4038SOL    HW212731   4.280   1.885   4.919  0.3344  1.1711  0.8797
 4039SOL     OW12732   6.681   1.034   7.230  0.3827 -0.2022 -0.2742
 4039SOL    HW112733   6.613   0.969   7.248  0.5442 -1.0271 -2.3472
 4039SOL    HW212734   6.759   1.001   7.274 -0.2437  0.1669  1.1691
 4040SOL     OW12735   0.280   7.107   6.687  0.1342 -0.3423  0.4052
 4040SOL    HW112736   0.333   7.145   6.617  0.2441  1.2158  1.3067
 4040SOL    HW212737   0.345   7.076   6.751  0.0212 -1.4458  0.0139
 4041SOL     OW12738   3.930   6.934   1.129  0.1837 -0.2333  0.2040
 4041SOL    HW112739   3.973   6.985   1.198 -3.2025  1.2641  1.4482
 4041SOL    HW212740   3.897   7.000   1.068 -1.6752 -1.0894  0.2176
 4042SOL     OW12741   4.295   3.663   0.674  0.5082 -0.1348  0.2929
 4042SOL    HW112742   4.212   3.663   0.627  0.6927 -1.1619 -0.0444
 4042SOL    HW212743   4.343   3.588   0.639  1.0497 -0.3303  1.4198
 4043SOL     OW12744   0.467   4.048   4.486  0.3580 -1.0318  0.2952
 4043SOL    HW112745   0.533   3.994   4.443  0.2771 -0.4197 -0.6117
 4043SOL    HW212746   0.517   4.119   4.526  0.2875 -0.7914 -0.0446
 4044SOL     OW12747   6.887   7.208   6.926  0.0931 -0.3772 -0.1470
 4044SOL    HW112748   6.828   7.142   6.889 -0.9587  0.6392 -0.3385
 4044SOL    HW212749   6.888   7.279   6.861  1.0013 -0.0898  0.1689
 4045SOL     OW12750   4.685   2.010   2.078  0.0474  0.5028 -0.4349
 4045SOL    HW112751   4.597   2.043   2.064 -0.3519 -0.2435  0.2520
 4045SOL    HW212752   4.675   1.939   2.141  1.3582  1.5715  1.0669
 4046SOL     OW12753   3.309   2.465   1.331 -0.0594 -0.0660 -0.1890
 4046SOL    HW112754   3.256   2.435   1.405 -0.4196  0.1202 -0.3635
 4046SOL    HW212755   3.399   2.457   1.360 -0.1968 -0.0811  0.2341
 4047SOL     OW12756   0.182   4.986   4.580  0.5937  0.1116  0.1559
 4047SOL    HW112757   0.209   4.937   4.658  1.5392  1.1493  0.5034
 4047SOL    HW212758   0.092   5.011   4.597 -0.2349 -2.2154 -0.4095
 4048SOL     OW12759   4.467   3.904   5.484 -0.0406  0.1575 -0.3650
 4048SOL    HW112760   4.460   3.857   5.566 -0.5581 -0.7553 -0.9184
 4048SOL    HW212761   4.545   3.960   5.494  0.3871 -0.5675  0.4229
 4049SOL     OW12762   3.553   1.226   3.911 -0.4745 -0.4452  0.5672
 4049SOL    HW112763   3.623   1.161   3.918  1.9463  1.6571 -1.8748
 4049SOL    HW212764   3.488   1.185   3.853  0.8905 -0.8352 -0.7564
 4050SOL     OW12765   4.502   5.296   6.159 -0.4000  0.4342 -0.2645
 4050SOL    HW112766   4.555   5.218   6.175 -2.2760 -0.7556  0.4542
 4050SOL    HW212767   4.553   5.347   6.096  1.7885 -0.3985  0.7488
 4051SOL     OW12768   5.925   0.771   0.738 -0.6713  0.1010 -0.1280
 4051SOL    HW112769   5.902   0.784   0.645 -0.0296  1.6319 -0.0982
 4051SOL    HW212770   5.849   0.806   0.786 -0.0206  1.5363 -0.0802
 4052SOL     OW12771   2.849   3.018   4.994 -0.4636 -0.3326  0.2755
 4052SOL    HW112772   2.860   2.939   5.048 -1.2788 -1.3251 -0.9451
 4052SOL    HW212773   2.756   3.038   5.000 -0.5602 -0.4305 -0.6922
 4053SOL     OW12774   2.774   1.798   2.207 -0.2428  0.0671  0.4317
 4053SOL    HW112775   2.820   1.768   2.285 -0.3359  1.7034  1.1540
 4053SOL    HW212776   2.783   1.726   2.145  2.0943 -0.2343  1.0248
 4054SOL     OW12777   3.207   6.325   5.345 -0.3094 -0.1925 -0.4534
 4054SOL    HW112778   3.195   6.295   5.436  0.8188 -0.3339 -0.3338
 4054SOL    HW212779   3.186   6.248   5.292  0.8680 -0.7154 -0.2147
 4055SOL     OW12780   5.030   2.030   3.610 -0.1618 -0.1868  0.3070
 4055SOL    HW112781   5.081   2.085   3.670  0.4832  0.5835 -0.8788
 4055SOL    HW212782   4.949   2.012   3.656 -0.7398  2.4192  0.5000
 4056SOL     OW12783   6.166   0.685   6.869  0.2103 -0.4212 -0.3014
 4056SOL    HW112784   6.178   0.759   6.809 -2.1559 -1.0218 -1.6662
 4056SOL    HW212785   6.151   0.725   6.954  0.8357  0.5811 -0.6419
 4057SOL     OW12786   3.124   1.148   2.807  0.2322  0.4576  0.1668
 4057SOL    HW112787   3.105   1.085   2.737 -2.2067  1.0091  0.2657
 4057SOL    HW212788   3.200   1.111   2.852  1.5995 -0.1516 -2.4460
 4058SOL     OW12789   3.287   4.606   5.236 -0.0740 -0.0113 -0.1119
 4058SOL    HW112790   3.222   4.656   5.285  0.7372 -1.2409  2.3947
 4058SOL    HW212791   3.242   4.525   5.212 -0.3295  0.3953 -1.0433
 4059SOL     OW12792   2.372   4.683   0.581 -0.4815 -0.3948 -0.2719
 4059SOL    HW112793   2.375   4.663   0.487  0.1198  1.4896 -0.6999
 4059SOL    HW212794   2.397   4.776   0.586  2.8614 -1.2245  2.0032
 4060SOL     OW12795   6.197   6.908   3.989 -0.0114 -0.6510 -0.6826
 4060SOL    HW112796   6.203   6.967   3.914  3.2611 -0.2383 -0.2681
 4060SOL    HW212797   6.183   6.965   4.064  0.2678 -0.6994 -0.5932
 4061SOL     OW12798   5.416   5.954   5.934 -0.2890 -0.0785  0.1630
 4061SOL    HW112799   5.408   6.006   6.014  0.7029 -0.3836  0.4877
 4061SOL    HW212800   5.402   6.016   5.863  2.1414  0.9896  0.4905
 4062SOL     OW12801   3.931   1.539   5.605  0.0181  0.2970 -0.4482
 4062SOL    HW112802   3.916   1.457   5.652  0.4527  0.3869 -0.1482
 4062SOL    HW212803   3.962   1.512   5.519 -0.9677  0.1274 -0.7716
 4063SOL     OW12804   2.697   4.130   6.442  0.3211  0.6233  0.3015
 4063SOL    HW112805   2.769   4.169   6.393  1.3434  0.4700  1.6273
 4063SOL    HW212806   2.708   4.163   6.531 -0.4770 -0.4398  0.8164
 4064SOL     OW12807   5.313   6.512   6.886  0.0468  0.4977 -0.6628
 4064SOL    HW112808   5.323   6.592   6.836  0.6589  0.3553 -0.7701
 4064SOL    HW212809   5.222   6.484   6.870 -0.7377  2.0603  0.7140
 4065SOL     OW12810   0.828   6.983   1.638  0.7587 -0.1088 -0.4053
 4065SOL    HW112811   0.839   7.049   1.569  1.7363 -1.3901 -1.5326
 4065SOL    HW212812   0.917   6.967   1.671  0.1915  1.4531  2.1851
 4066SOL     OW12813   5.179   6.324   5.102  0.2186 -0.1575  0.3374
 4066SOL    HW112814   5.115   6.391   5.076  1.0264  0.3851 -0.3028
 4066SOL    HW212815   5.174   6.323   5.198  1.3421  2.0436  0.4961
 4067SOL     OW12816   3.751   6.920   5.085 -0.7008  0.2333 -0.4355
 4067SOL    HW112817   3.766   7.001   5.132 -0.5042 -0.0656  0.0197
 4067SOL    HW212818   3.721   6.858   5.151  0.7304 -0.5351 -0.4623
 4068SOL     OW12819   2.816   4.900   2.891  0.6836  0.0882 -0.3748
 4068SOL    HW112820   2.731   4.869   2.922  0.3048 -0.0582 -1.4854
 4068SOL    HW212821   2.818   4.992   2.917  0.7516 -0.2226  0.7762
 4069SOL     OW12822   1.099   3.205   0.516  0.2936  0.2787 -0.0022
 4069SOL    HW112823   1.160   3.174   0.450  2.3479  0.7455  1.5789
 4069SOL    HW212824   1.060   3.284   0.479 -0.7665 -0.9882 -1.7516
 4070SOL     OW12825   2.618   6.204   0.313 -0.1808 -0.6892  0.5668
 4070SOL    HW112826   2.615   6.285   0.364 -1.7963 -0.9594  0.9606
 4070SOL    HW212827   2.682   6.149   0.359  0.4280  0.0922  0.6820
 4071SOL     OW12828   1.143   6.639   1.999 -0.0714  0.1808  0.5066
 4071SOL    HW112829   1.085   6.570   2.031  1.1894 -0.8233  0.6832
 4071SOL    HW212830   1.194   6.598   1.930  1.3825  0.6264  1.2705
 4072SOL     OW12831   5.335   5.084   0.213 -0.2424  0.3641 -0.3314
 4072SOL    HW112832   5.431   5.077   0.214 -0.2738 -0.0959  0.2218
 4072SOL    HW212833   5.318   5.174   0.185  0.3763  0.7384  0.4387
 4073SOL     OW12834   6.141   0.557   2.617 -0.0688  0.0016  0.5982
 4073SOL    HW112835   6.060   0.589   2.578 -1.4509 -2.3619  1.3255
 4073SOL    HW212836   6.210   0.595   2.563 -1.7079  0.8632 -1.0004
 4074SOL     OW12837   4.875   1.839   5.910 -0.2356 -0.3695  0.1857
 4074SOL    HW112838   4.795   1.888   5.893 -0.2895  0.0210  1.5113
 4074SOL    HW212839   4.929   1.854   5.832 -1.1492 -0.0517 -0.3994
 4075SOL     OW12840   5.410   4.672   1.140 -0.3388  0.0734 -0.2411
 4075SOL    HW112841   5.362   4.686   1.058 -0.7121  1.1946  0.1504
 4075SOL    HW212842   5.341   4.659   1.206 -0.1539  2.0993  0.4035
 4076SOL     OW12843   6.859   4.290   2.756  0.0226 -0.2676 -0.1571
 4076SOL    HW112844   6.869   4.197   2.778  0.2749 -0.0339  0.7301
 4076SOL    HW212845   6.943   4.313   2.715  0.3592 -0.1796  0.5625
 4077SOL     OW12846   5.869   4.111   0.132  0.2735 -0.0619  0.2775
 4077SOL    HW112847   5.888   4.092   0.224 -1.5075 -1.3027  0.4426
 4077SOL    HW212848   5.954   4.104   0.088  0.8875 -1.2595  1.5593
 4078SOL     OW12849   6.368   2.161   5.603 -0.0501 -0.0699 -0.2050
 4078SOL    HW112850   6.326   2.136   5.684 -0.5114  0.6673 -0.2028
 4078SOL    HW212851   6.462   2.153   5.620 -0.1240  0.7121  0.6162
 4079SOL     OW12852   2.545   4.183   3.259  0.4127  0.2056 -0.2639
 4079SOL    HW112853   2.471   4.128   3.285  1.3214 -0.4121  1.1340
 4079SOL    HW212854   2.619   4.123   3.253  1.0241  0.9782 -0.6077
 4080SOL     OW12855   1.034   1.256   2.897  0.2859  0.5256  0.2133
 4080SOL    HW112856   1.024   1.320   2.967 -1.6655 -0.2998  0.7713
 4080SOL    HW212857   1.072   1.179   2.940 -1.2585 -0.1131  0.4983
 4081SOL     OW12858   3.286   4.063   1.037 -0.0837  0.2733 -0.7302
 4081SOL    HW112859   3.327   3.980   1.060  2.8349  1.8644  0.2752
 4081SOL    HW212860   3.263   4.102   1.122 -0.5613  0.8965 -1.1393
 4082SOL     OW12861   0.856   0.360   4.668  0.0130 -0.6128  0.1373
 4082SOL    HW112862   0.767   0.374   4.701  0.0988 -0.8958  0.5050
 4082SOL    HW212863   0.897   0.304   4.734  0.0045 -1.7082 -0.7487
 4083SOL     OW12864   1.739   3.482   6.413  0.2132  0.5731  0.1909
 4083SOL    HW112865   1.744   3.528   6.329  1.5087  1.5216  0.7644
 4083SOL    HW212866   1.645   3.475   6.431 -0.0336  1.8885 -0.5146
 4084SOL     OW12867   5.742   2.541   5.590  0.2992  0.1487  0.8878
 4084SOL    HW112868   5.792   2.468   5.554  0.7251  1.1466 -0.6103
 4084SOL    HW212869   5.804   2.614   5.593 -0.5692  0.9131  0.7379
 4085SOL     OW12870   3.947   0.626   5.388  0.6426 -0.3286 -0.2075
 4085SOL    HW112871   3.860   0.621   5.428  0.7705 -0.8159  0.0163
 4085SOL    HW212872   3.933   0.606   5.296  0.6543 -1.4213  0.0185
 4086SOL     OW12873   3.152   4.631   7.002 -0.1526 -0.4368 -0.1947
 4086SOL    HW112874   3.160   4.720   6.969  1.8186  0.0461  1.3395
 4086SOL    HW212875   3.228   4.586   6.966 -0.1196 -0.9592  0.4999
 4087SOL     OW12876   3.191   1.364   0.508  0.1686  0.4669  0.0123
 4087SOL    HW112877   3.249   1.288   0.507  1.3939  1.3615  0.2681
 4087SOL    HW212878   3.174   1.382   0.415 -1.0702 -0.7795 -0.0277
 4088SOL     OW12879   5.775   0.983   6.215 -0.3470 -0.3661 -0.0848
 4088SOL    HW112880   5.780   0.887   6.217  1.7353 -0.2878  0.8732
 4088SOL    HW212881   5.823   1.008   6.137 -0.5877 -0.0816 -0.1424
 4089SOL     OW12882   0.584   3.714   2.380  0.3030  0.1297  0.5194
 4089SOL    HW112883   0.560   3.729   2.472 -1.6917  0.6341 -0.0328
 4089SOL    HW212884   0.523   3.647   2.350 -1.0651  1.9885 -1.1746
 4090SOL     OW12885   1.185   5.379   5.638 -0.7083 -0.1654  0.3526
 4090SOL    HW112886   1.259   5.329   5.603 -0.8605 -1.0220  1.2287
 4090SOL    HW212887   1.172   5.450   5.574 -0.1127 -0.8938 -0.6053
 4091SOL     OW12888   4.667   2.102   0.828 -0.3268 -0.1949 -0.3388
 4091SOL    HW112889   4.727   2.166   0.789 -1.4538  0.0975 -1.6826
 4091SOL    HW212890   4.583   2.118   0.785 -1.7170  0.1628  2.2661
 4092SOL     OW12891   2.909   0.813   7.203 -0.4756 -0.4121 -0.0395
 4092SOL    HW112892   2.878   0.898   7.174 -2.3364 -0.7110  0.9114
 4092SOL    HW212893   2.913   0.760   7.124 -2.2273 -0.2828 -0.2431
 4093SOL     OW12894   3.390   4.068   2.557 -0.9819  0.0877  0.1469
 4093SOL    HW112895   3.429   4.121   2.626 -1.3769  0.4503  0.0952
 4093SOL    HW212896   3.387   4.126   2.481  2.5514 -1.2620 -1.2409
 4094SOL     OW12897   0.773   6.713   1.872  0.2128 -0.3619  0.4851
 4094SOL    HW112898   0.692   6.757   1.847  0.7414  0.3328 -0.0641
 4094SOL    HW212899   0.841   6.756   1.819  1.3180  0.7960  2.7163
 4095SOL     OW12900   5.090   4.934   6.265  0.5596  0.0234  0.2306
 4095SOL    HW112901   5.104   5.029   6.258  2.7864 -0.2233  0.5935
 4095SOL    HW212902   5.177   4.898   6.282 -0.3472 -2.0342  0.8737
 4096SOL     OW12903   0.343   2.991   4.473 -0.6472  0.0968 -0.2250
 4096SOL    HW112904   0.291   2.916   4.445  0.8135  0.1084 -3.3102
 4096SOL    HW212905   0.434   2.963   4.463 -0.0458  2.4328 -2.2020
 4097SOL     OW12906   2.518   4.459   2.629  0.0879  0.4035 -0.1708
 4097SOL    HW112907   2.605   4.457   2.589  0.4367 -0.5621  0.5947
 4097SOL    HW212908   2.459   4.425   2.561  0.2326  1.4559 -0.8403
 4098SOL     OW12909   2.224   1.736   6.731 -0.5021 -0.2941 -0.3223
 4098SOL    HW112910   2.299   1.679   6.747 -0.4235 -0.1550 -0.1906
 4098SOL    HW212911   2.160   1.710   6.797 -0.0449  0.5162  0.4651
 4099SOL     OW12912   0.713   4.174   2.232  0.4006  0.4431 -0.2442
 4099SOL    HW112913   0.783   4.135   2.284  0.9224 -0.3222 -1.4765
 4099SOL    HW212914   0.637   4.117   2.247  0.1942  0.9115  0.5892
 4100SOL     OW12915   3.689   6.364   2.437  0.3580 -0.0671  0.2333
 4100SOL    HW112916   3.761   6.381   2.497  0.7469  0.2784 -0.3249
 4100SOL    HW212917   3.610   6.371   2.491  0.5892  1.9007  0.3768
 4101SOL     OW12918   1.872   4.369   3.752  0.0539 -0.1068 -0.1751
 4101SOL    HW112919   1.895   4.438   3.689  0.2041  0.6215  0.6610
 4101SOL    HW212920   1.927   4.387   3.828  0.6658 -1.6273 -0.2235
 4102SOL     OW12921   6.614   1.925   6.153 -0.7332  0.1019  0.2956
 4102SOL    HW112922   6.614   1.888   6.065 -0.5041  0.9515 -0.0698
 4102SOL    HW212923   6.682   1.993   6.151 -0.1465 -0.4201  1.3630
 4103SOL     OW12924   4.510   0.041   2.233 -0.2784  0.1106  0.0376
 4103SOL    HW112925   4.502   0.015   2.141  1.6093  2.2236 -0.8002
 4103SOL    HW212926   4.602   0.025   2.255 -0.7716 -0.6804  1.7102
 4104SOL     OW12927   7.062   0.121   3.854  0.1285  1.0020 -0.1017
 4104SOL    HW112928   7.110   0.145   3.934 -1.5865 -0.3601  1.4268
 4104SOL    HW212929   6.976   0.094   3.885 -0.2260 -0.6853 -2.2999
 4105SOL     OW12930   5.904   7.079   5.059  0.1612 -0.4686 -0.4961
 4105SOL    HW112931   5.927   7.003   5.006  1.4448 -1.2246  1.0514
 4105SOL    HW212932   5.950   7.065   5.142  0.8039  2.2301 -0.3108
 4106SOL     OW12933   3.588   2.059   5.646  0.8109 -0.0104 -0.2870
 4106SOL    HW112934   3.635   2.131   5.605  0.7647 -0.6346 -1.4651
 4106SOL    HW212935   3.527   2.102   5.707  0.7418  0.9472 -1.0103
 4107SOL     OW12936   3.001   1.787   0.873 -0.6075 -0.2909 -0.3926
 4107SOL    HW112937   3.011   1.765   0.965 -0.5286  0.9563 -0.0837
 4107SOL    HW212938   3.003   1.883   0.871  1.0453 -0.3082 -1.8702
 4108SOL     OW12939   0.390   0.400   1.492  0.1980 -0.4736  0.0972
 4108SOL    HW112940   0.470   0.399   1.439 -0.5012  0.4432 -1.0469
 4108SOL    HW212941   0.411   0.346   1.568  1.8287 -0.4330 -0.2712
 4109SOL     OW12942   2.765   3.121   3.850 -0.4027  0.1962 -0.0940
 4109SOL    HW112943   2.845   3.120   3.797 -0.3995  1.7876 -0.1683
 4109SOL    HW212944   2.793   3.088   3.936  0.1660  0.0541 -0.3260
 4110SOL     OW12945   2.283   6.362   5.576  0.8036 -0.6406 -0.8065
 4110SOL    HW112946   2.364   6.414   5.570 -1.3522  2.8535 -3.4119
 4110SOL    HW212947   2.286   6.305   5.499  1.7932 -2.3332  0.4271
 4111SOL     OW12948   4.459   3.650   1.059 -0.4631  0.9078 -0.1921
 4111SOL    HW112949   4.375   3.607   1.075  0.3737 -0.4651  0.9083
 4111SOL    HW212950   4.522   3.577   1.059  0.9102  2.0518  0.7142
 4112SOL     OW12951   3.529   1.851   1.923 -0.5304 -0.6988  0.5037
 4112SOL    HW112952   3.581   1.784   1.968  0.2877 -0.1685  0.3772
 4112SOL    HW212953   3.528   1.925   1.985 -1.1731 -0.7225  0.5207
 4113SOL     OW12954   2.417   5.138   5.125 -0.3599  0.1434  0.5762
 4113SOL    HW112955   2.380   5.158   5.039 -0.4952  0.2838  0.6672
 4113SOL    HW212956   2.377   5.201   5.184  1.3534  1.4877  0.3903
 4114SOL     OW12957   5.107   7.066   0.187  0.4043  0.0603  0.0258
 4114SOL    HW112958   5.164   7.035   0.257  0.2355 -2.6097 -0.9111
 4114SOL    HW212959   5.023   7.024   0.203 -0.0631  0.5689 -0.9749
 4115SOL     OW12960   3.485   2.221   6.296  0.4862 -0.1969 -0.1639
 4115SOL    HW112961   3.498   2.189   6.207  0.7979  0.2816 -0.2951
 4115SOL    HW212962   3.401   2.267   6.293  1.5496  1.8641 -0.8318
 4116SOL     OW12963   6.601   2.048   3.025  0.1423  0.0677  0.5332
 4116SOL    HW112964   6.634   2.129   2.985  0.2560 -1.8082 -3.7435
 4116SOL    HW212965   6.680   1.997   3.046  0.0650  0.8301  2.9759
 4117SOL     OW12966   3.221   3.510   1.690  0.2969 -0.2196 -0.0086
 4117SOL    HW112967   3.160   3.454   1.642  2.3611 -1.7668 -0.9558
 4117SOL    HW212968   3.299   3.514   1.635  1.3116  1.1977  1.4409
 4118SOL     OW12969   0.279   1.437   2.198 -0.4530 -0.0619  0.1701
 4118SOL    HW112970   0.289   1.501   2.268  2.8505  0.3281 -0.4883
 4118SOL    HW212971   0.299   1.485   2.118  1.8072 -1.6912 -0.3694
 4119SOL     OW12972   1.673   4.903   5.935 -0.4344 -0.1047 -0.1556
 4119SOL    HW112973   1.724   4.980   5.959 -1.0554  0.2080  0.1714
 4119SOL    HW212974   1.610   4.934   5.870 -0.3854 -0.4302 -0.3606
 4120SOL     OW12975   4.805   4.795   3.397 -0.5418 -0.1585  0.1503
 4120SOL    HW112976   4.841   4.709   3.417 -0.5341  0.1279  1.4734
 4120SOL    HW212977   4.803   4.799   3.302  0.3517 -1.2452  0.0698
 4121SOL     OW12978   0.448   1.232   0.652  0.3306 -0.0496 -0.5115
 4121SOL    HW112979   0.392   1.308   0.641  0.4600  0.1948  0.4355
 4121SOL    HW212980   0.533   1.259   0.616  0.4686  0.3797  0.1143
 4122SOL     OW12981   5.070   1.225   2.125 -0.2536 -0.3614 -0.1090
 4122SOL    HW112982   5.062   1.166   2.051 -2.9942 -0.0331 -0.1771
 4122SOL    HW212983   5.067   1.169   2.202 -0.7234 -0.4636 -0.2021
 4123SOL     OW12984   6.568   5.032   0.152 -0.1917  0.3104  0.7052
 4123SOL    HW112985   6.616   5.001   0.229  2.0460  0.8826 -0.3773
 4123SOL    HW212986   6.560   5.126   0.164  2.8859  0.9247 -1.0365
 4124SOL     OW12987   5.794   1.005   2.302 -0.3281 -0.2737 -0.6901
 4124SOL    HW112988   5.708   0.980   2.269  0.0253 -1.7160 -0.5913
 4124SOL    HW212989   5.820   0.932   2.358  0.5189  0.6119  0.1127
 4125SOL     OW12990   5.720   1.250   6.352  0.0334 -0.2268 -0.2978
 4125SOL    HW112991   5.754   1.317   6.292 -0.5086  0.1443 -0.1981
 4125SOL    HW212992   5.706   1.297   6.434 -1.6896 -0.1082 -0.6233
 4126SOL     OW12993   6.553   3.745   2.497  0.1303  0.0814 -0.1652
 4126SOL    HW112994   6.517   3.762   2.585 -1.7457 -1.1748 -0.6201
 4126SOL    HW212995   6.515   3.813   2.442 -1.0167 -0.8016 -0.5041
 4127SOL     OW12996   3.971   6.958   4.667 -0.2857  0.2498 -0.0914
 4127SOL    HW112997   3.903   6.949   4.734 -0.0431  1.3841  0.3188
 4127SOL    HW212998   4.035   7.017   4.706  0.6099 -0.2646 -0.7451
 4128SOL     OW12999   3.347   4.178   4.585  0.5697 -0.2443 -0.2278
 4128SOL    HW113000   3.269   4.131   4.616  0.4980  0.6290  0.9680
 4128SOL    HW213001   3.317   4.224   4.507 -0.0545 -0.0946  0.0947
 4129SOL     OW13002   2.445   2.490   2.935 -0.0482  0.5241  0.4604
 4129SOL    HW113003   2.389   2.450   2.869 -0.2154  1.3251  0.1099
 4129SOL    HW213004   2.523   2.434   2.937  0.2708  0.8811 -0.9157
 4130SOL     OW13005   5.468   6.006   2.415  0.2697  0.2792  0.7782
 4130SOL    HW113006   5.524   5.952   2.471  0.2027 -1.4663 -0.7623
 4130SOL    HW213007   5.479   5.970   2.327 -1.0615  1.7459 -0.0428
 4131SOL     OW13008   5.759   5.923   3.238  0.0631 -0.0527  0.0333
 4131SOL    HW113009   5.664   5.918   3.249 -0.6774  3.4330 -2.7800
 4131SOL    HW213010   5.779   5.858   3.170 -0.9526  1.2952 -1.6341
 4132SOL     OW13011   5.519   2.265   3.429 -0.2194  0.6193 -0.2448
 4132SOL    HW113012   5.425   2.284   3.433 -0.1090  0.9425  1.2338
 4132SOL    HW213013   5.532   2.195   3.492  0.0317 -1.8546 -2.8648
 4133SOL     OW13014   2.155   2.118   1.603 -0.0588 -0.2317 -0.1754
 4133SOL    HW113015   2.243   2.115   1.565 -0.0532 -0.3885 -0.1494
 4133SOL    HW213016   2.146   2.036   1.650 -0.5383 -0.6001 -0.8931
 4134SOL     OW13017   0.506   0.649   1.618 -0.6135  0.1802 -0.5438
 4134SOL    HW113018   0.483   0.632   1.527  2.9409 -0.8802 -1.4298
 4134SOL    HW213019   0.537   0.739   1.619 -3.8881  1.4311  0.5195
 4135SOL     OW13020   5.310   3.987   4.460  0.0692 -0.2371 -0.0020
 4135SOL    HW113021   5.227   3.942   4.443 -0.4664  0.4375  0.7465
 4135SOL    HW213022   5.376   3.918   4.452 -0.2170 -0.2891 -3.3747
 4136SOL     OW13023   3.332   0.944   2.830 -0.1641 -0.2146  0.3706
 4136SOL    HW113024   3.317   0.872   2.769  0.0208  1.5106 -1.8612
 4136SOL    HW213025   3.395   0.910   2.893  1.0018 -1.5694 -1.4338
 4137SOL     OW13026   0.814   0.129   0.201  0.1944  0.6236  0.5798
 4137SOL    HW113027   0.889   0.073   0.222 -0.6860 -1.5449 -1.5692
 4137SOL    HW213028   0.829   0.155   0.110  0.1509  3.3564  1.2514
 4138SOL     OW13029   3.139   5.378   5.087  0.0738 -0.6133  0.2955
 4138SOL    HW113030   3.105   5.330   5.163 -0.5266 -0.4275  0.1494
 4138SOL    HW213031   3.217   5.423   5.120 -1.0828  0.7610  1.2407
 4139SOL     OW13032   1.946   6.789   3.631  0.4002 -0.3575 -0.0119
 4139SOL    HW113033   1.908   6.701   3.628  2.9203 -1.5648  0.1159
 4139SOL    HW213034   1.912   6.833   3.554 -0.0779 -1.8526 -0.6884
 4140SOL     OW13035   5.721   3.595   4.569 -0.0430  0.3394  0.6021
 4140SOL    HW113036   5.683   3.551   4.493 -1.4968  2.0910  0.2460
 4140SOL    HW213037   5.722   3.528   4.637  0.5316 -1.0367 -0.6955
 4141SOL     OW13038   2.484   2.960   4.184  0.6548 -0.0867  0.3543
 4141SOL    HW113039   2.433   2.978   4.104 -0.5834  1.3481  1.4036
 4141SOL    HW213040   2.469   2.868   4.202 -0.7727  0.0497  0.0414
 4142SOL     OW13041   1.697   3.356   1.517 -0.1249  0.7203  0.3132
 4142SOL    HW113042   1.758   3.421   1.482  1.0834 -1.0814 -1.1030
 4142SOL    HW213043   1.631   3.346   1.448  0.2895 -0.2958  0.0514
 4143SOL     OW13044   1.275   1.030   3.268 -0.0842 -0.6429 -0.3476
 4143SOL    HW113045   1.212   0.970   3.308 -0.5902 -0.2556 -0.5533
 4143SOL    HW213046   1.358   0.982   3.268 -0.3796 -1.1540 -0.0680
 4144SOL     OW13047   1.670   2.476   3.223  0.2506  0.2110  0.1861
 4144SOL    HW113048   1.762   2.483   3.249  0.5732 -0.3673 -0.7461
 4144SOL    HW213049   1.643   2.390   3.254 -0.4895  1.0046  1.9158
 4145SOL     OW13050   7.018   5.043   4.077 -0.0804  0.0355 -0.0503
 4145SOL    HW113051   6.991   5.130   4.105  2.0175  0.9302 -0.5657
 4145SOL    HW213052   6.980   5.033   3.989  0.7701  1.0327 -0.5499
 4146SOL     OW13053   6.318   3.554   1.570  0.1481  0.1650  0.0342
 4146SOL    HW113054   6.313   3.487   1.639  1.3969  1.1939  1.1873
 4146SOL    HW213055   6.268   3.628   1.604 -0.7445  0.0465 -0.9792
 4147SOL     OW13056   0.808   6.645   4.032 -0.2455  0.4647 -0.0565
 4147SOL    HW113057   0.776   6.735   4.026 -1.8561 -0.1705 -2.2246
 4147SOL    HW213058   0.731   6.595   4.061  0.2970 -0.3883 -0.0645
 4148SOL     OW13059   0.965   0.266   1.453  0.0807 -0.3887 -0.1299
 4148SOL    HW113060   1.021   0.317   1.395  0.1357 -0.2514  0.0444
 4148SOL    HW213061   0.985   0.298   1.541 -0.2668 -0.3383 -0.0662
 4149SOL     OW13062   6.084   3.477   5.214  0.4902 -0.4237  0.0897
 4149SOL    HW113063   6.007   3.484   5.271 -0.9864  0.3867 -1.8863
 4149SOL    HW213064   6.155   3.513   5.266 -1.1456  1.9730  0.8391
 4150SOL     OW13065   2.372   0.579   7.110  0.3504  0.0799  0.8514
 4150SOL    HW113066   2.386   0.594   7.017  1.0939  0.4584  1.0199
 4150SOL    HW213067   2.363   0.666   7.148  3.6007  0.1929  1.6652
 4151SOL     OW13068   4.096   3.416   2.759  0.3109 -0.0761 -0.0873
 4151SOL    HW113069   4.004   3.442   2.768 -0.0229 -1.1704 -0.1626
 4151SOL    HW213070   4.095   3.321   2.771  1.3197 -0.2090 -0.9322
 4152SOL     OW13071   4.846   5.194   1.322 -0.0231 -0.3105 -0.2213
 4152SOL    HW113072   4.903   5.261   1.359  1.2071 -1.0839 -0.6779
 4152SOL    HW213073   4.819   5.141   1.397 -1.9035  1.2907  0.3242
 4153SOL     OW13074   6.626   6.538   6.522 -0.2315 -1.0899  0.8666
 4153SOL    HW113075   6.676   6.458   6.538  0.6830 -0.4626  1.2428
 4153SOL    HW213076   6.693   6.605   6.507 -0.9881 -0.4261  0.3958
 4154SOL     OW13077   1.360   6.610   6.078  0.2237 -0.1714  0.1162
 4154SOL    HW113078   1.400   6.613   6.165 -2.9944  1.1061  1.7323
 4154SOL    HW213079   1.359   6.702   6.050  0.4269 -0.4707 -0.8929
 4155SOL     OW13080   4.016   0.311   5.846  0.4329 -0.3665 -0.4389
 4155SOL    HW113081   3.996   0.346   5.759  0.4573 -0.9282 -0.6725
 4155SOL    HW213082   3.937   0.327   5.897  0.9835  1.4474 -0.0819
 4156SOL     OW13083   3.663   0.425   6.003 -0.5790  0.2148  0.3305
 4156SOL    HW113084   3.660   0.332   5.983 -0.7078  0.0167  1.2308
 4156SOL    HW213085   3.620   0.433   6.088 -3.2823  1.5027 -1.0517
 4157SOL     OW13086   6.915   0.218   2.944  0.6335 -0.0076 -0.0176
 4157SOL    HW113087   6.955   0.141   2.905  0.6279  0.2383 -0.5212
 4157SOL    HW213088   6.903   0.279   2.870 -0.1477  0.1407  0.2231
 4158SOL     OW13089   0.237   0.703   1.724  0.2182  0.5551  0.4262
 4158SOL    HW113090   0.303   0.673   1.661 -1.1869 -1.3667 -0.2278
 4158SOL    HW213091   0.172   0.748   1.670  0.0953  0.8650  0.8288
 4159SOL     OW13092   5.762   5.649   0.215  0.4421  0.6157 -0.0591
 4159SOL    HW113093   5.709   5.588   0.164 -1.6587 -0.1717  2.8322
 4159SOL    HW213094   5.711   5.729   0.218  1.6088  1.4326 -0.9876
 4160SOL     OW13095   0.210   5.762   3.506  0.4662 -0.1364 -0.2927
 4160SOL    HW113096   0.220   5.840   3.560  1.1582 -0.5565  0.2067
 4160SOL    HW213097   0.132   5.718   3.540  0.5501 -0.0851 -0.0357
 4161SOL     OW13098   6.516   1.834   4.234 -0.4259  0.4669  0.2954
 4161SOL    HW113099   6.503   1.850   4.141  1.3950  0.3816  0.0004
 4161SOL    HW213100   6.529   1.922   4.271  0.4483  0.3870  0.1920
 4162SOL     OW13101   3.440   1.752   0.362 -0.7369  0.1203 -0.8132
 4162SOL    HW113102   3.507   1.728   0.297  0.4187  0.2272  0.2819
 4162SOL    HW213103   3.444   1.680   0.426 -1.3032  0.3991 -0.4659
 4163SOL     OW13104   0.631   2.683   7.238  0.1546 -0.1063 -0.0843
 4163SOL    HW113105   0.578   2.677   7.318  3.0653 -2.8431  1.9400
 4163SOL    HW213106   0.661   2.773   7.235 -0.0167  0.0676  2.0028
 4164SOL     OW13107   5.738   5.273   0.025 -0.2983 -0.1707 -0.4760
 4164SOL    HW113108   5.748   5.220  -0.054 -2.4165  0.4150 -1.2288
 4164SOL    HW213109   5.684   5.347  -0.003 -0.7445  0.2787  1.4192
 4165SOL     OW13110   4.766   1.562   0.639 -0.4491 -0.0805 -0.0095
 4165SOL    HW113111   4.764   1.501   0.712 -1.4955 -0.8625 -0.6603
 4165SOL    HW213112   4.843   1.537   0.588 -1.5559 -1.7391 -0.9618
 4166SOL     OW13113   5.481   0.838   2.763  0.1910  0.3774 -0.8808
 4166SOL    HW113114   5.400   0.801   2.798 -0.3727  1.4262 -1.0365
 4166SOL    HW213115   5.472   0.932   2.775  1.8233  0.4592 -0.0120
 4167SOL     OW13116   3.326   0.338   0.789 -0.0531  0.1973 -0.0600
 4167SOL    HW113117   3.277   0.404   0.739 -1.6448  0.0367  1.2057
 4167SOL    HW213118   3.311   0.362   0.881  1.8471 -0.1896  0.3836
 4168SOL     OW13119   6.131   6.169   4.742  0.0578  0.0995 -0.2964
 4168SOL    HW113120   6.112   6.245   4.687  0.4867 -0.7156 -1.6095
 4168SOL    HW213121   6.078   6.098   4.705 -0.4726 -0.2094  1.0220
 4169SOL     OW13122   6.375   1.572   2.509 -0.1901 -0.3146  0.3233
 4169SOL    HW113123   6.354   1.666   2.508 -0.4548 -0.3627 -1.8715
 4169SOL    HW213124   6.356   1.542   2.420 -2.2722 -2.9524  1.5245
 4170SOL     OW13125   7.064   4.501   3.745  0.7456 -1.0098  0.0973
 4170SOL    HW113126   7.106   4.527   3.664  1.0182 -0.8543  0.2872
 4170SOL    HW213127   7.107   4.419   3.770  0.7425 -0.9978  0.1433
 4171SOL     OW13128   1.094   6.283   0.504 -0.0973 -0.3474  0.2616
 4171SOL    HW113129   1.134   6.232   0.575  1.9170 -0.2171 -0.6957
 4171SOL    HW213130   1.149   6.265   0.428 -1.3713  0.6187 -0.9327
 4172SOL     OW13131   3.363   7.079   0.631 -0.0097 -0.3439 -0.6203
 4172SOL    HW113132   3.398   7.080   0.543 -2.4856  0.9362 -1.6985
 4172SOL    HW213133   3.368   7.170   0.660  1.1887 -0.8139  0.7974
 4173SOL     OW13134   1.133   6.075   4.883  0.7130  0.0826 -0.2901
 4173SOL    HW113135   1.193   6.031   4.824  0.4955  1.4969 -1.6530
 4173SOL    HW213136   1.163   6.166   4.884  0.0358  0.3142  0.9242
 4174SOL     OW13137   3.418   4.558   6.033 -0.1644  0.0493 -0.2725
 4174SOL    HW113138   3.496   4.609   6.055 -0.5853  0.8687 -0.6600
 4174SOL    HW213139   3.380   4.603   5.958 -0.0871 -1.3140 -1.1695
 4175SOL     OW13140   5.244   2.184   1.710  0.3754 -0.0434 -0.1174
 4175SOL    HW113141   5.302   2.140   1.772 -0.5473  1.5292  1.9313
 4175SOL    HW213142   5.286   2.268   1.692 -0.5104  0.4722  0.1851
 4176SOL     OW13143   4.411   0.041   6.730  0.0722  0.0136 -0.4528
 4176SOL    HW113144   4.391   0.129   6.698  0.4165 -0.3829 -1.8289
 4176SOL    HW213145   4.373   0.038   6.818 -2.3596  0.6426 -1.3858
 4177SOL     OW13146   2.045   2.705   4.703 -0.0352 -0.3102 -0.5173
 4177SOL    HW113147   2.136   2.676   4.703  0.3319  0.6861  1.0457
 4177SOL    HW213148   2.051   2.800   4.692 -0.6285  0.1925  2.5836
 4178SOL     OW13149   0.653   0.161   3.652 -1.1846 -0.6663  0.1137
 4178SOL    HW113150   0.558   0.148   3.653 -0.9317 -2.8732 -0.8322
 4178SOL    HW213151   0.685   0.103   3.584  1.1801 -2.4870  2.5681
 4179SOL     OW13152   3.796   2.337   3.973 -0.0238 -0.4457  0.3045
 4179SOL    HW113153   3.791   2.241   3.981 -0.7198 -0.5240 -0.7816
 4179SOL    HW213154   3.758   2.355   3.887 -4.5149  1.1576  2.3180
 4180SOL     OW13155   6.809   0.648   3.461  0.0793 -0.1556  0.4151
 4180SOL    HW113156   6.881   0.663   3.521  0.2994 -0.1919  0.1611
 4180SOL    HW213157   6.810   0.554   3.444  0.5409 -0.0335 -0.2924
 4181SOL     OW13158   1.862   2.266   2.263  0.0769  0.3924  0.0430
 4181SOL    HW113159   1.889   2.292   2.175 -1.6578  1.1788 -0.2998
 4181SOL    HW213160   1.770   2.239   2.253  0.0083 -0.0090  1.5213
 4182SOL     OW13161   5.738   5.485   6.643  0.5791  0.6572  0.4589
 4182SOL    HW113162   5.785   5.552   6.594 -1.9593  1.0489 -1.6668
 4182SOL    HW213163   5.787   5.476   6.725  3.1239  2.3756 -0.7523
 4183SOL     OW13164   1.308   5.506   1.100 -0.5350  0.4519 -0.2626
 4183SOL    HW113165   1.359   5.425   1.102  1.5598  1.6911  1.7184
 4183SOL    HW213166   1.357   5.564   1.042 -0.5882  1.1216  0.3483
 4184SOL     OW13167   1.038   5.188   1.565 -0.0131 -0.2166  0.3990
 4184SOL    HW113168   0.949   5.156   1.581 -0.4249  0.6650 -0.0113
 4184SOL    HW213169   1.049   5.260   1.627 -0.1546  0.6450 -0.5410
 4185SOL     OW13170   4.634   2.417   0.187 -0.1242 -0.3671  0.3561
 4185SOL    HW113171   4.580   2.345   0.218 -0.9908 -0.1931 -0.6800
 4185SOL    HW213172   4.663   2.389   0.100 -0.9860  0.7853 -0.3240
 4186SOL     OW13173   1.099   1.653   6.372 -0.0379  0.0944 -0.0008
 4186SOL    HW113174   1.149   1.732   6.353 -0.3741 -0.0031 -1.3787
 4186SOL    HW213175   1.109   1.599   6.294 -1.1488 -0.5299  0.2740
 4187SOL     OW13176   0.391   5.684   2.595  0.0137  0.1561  0.3937
 4187SOL    HW113177   0.425   5.739   2.666  0.7733 -0.4191  0.4865
 4187SOL    HW213178   0.440   5.603   2.602  0.9739  0.5130 -1.5408
 4188SOL     OW13179   6.757   2.107   7.234 -0.4375 -0.1396 -0.1759
 4188SOL    HW113180   6.674   2.072   7.202  0.0245 -0.9929 -0.4708
 4188SOL    HW213181   6.822   2.077   7.171  0.1492  0.2038  0.2528
 4189SOL     OW13182   6.717   1.103   6.552 -0.1761  0.1288 -0.1226
 4189SOL    HW113183   6.705   1.013   6.583 -0.8886  0.2882  0.0735
 4189SOL    HW213184   6.769   1.145   6.620  1.9360 -0.6535 -1.1283
 4190SOL     OW13185   4.034   2.251   5.184 -0.2206  0.3680 -0.5563
 4190SOL    HW113186   4.061   2.268   5.094 -0.6502 -0.4431 -0.8437
 4190SOL    HW213187   3.939   2.251   5.181 -0.2346 -0.4696 -0.2577
 4191SOL     OW13188   6.793   2.024   5.092  0.1734 -0.0867 -0.0980
 4191SOL    HW113189   6.849   2.018   5.169  0.2599  0.7626 -0.0894
 4191SOL    HW213190   6.728   2.090   5.115  0.6972  0.7879 -1.0582
 4192SOL     OW13191   3.630   4.087   2.862  0.5777  0.0730 -0.3231
 4192SOL    HW113192   3.548   4.038   2.873  1.1219 -0.6517  0.6733
 4192SOL    HW213193   3.603   4.173   2.832 -0.6054  0.0948  0.7439
 4193SOL     OW13194   4.440   6.109   3.832 -0.8895 -0.5324  0.1205
 4193SOL    HW113195   4.404   6.160   3.905 -0.5516 -1.6251  1.0892
 4193SOL    HW213196   4.416   6.019   3.852 -1.7333 -0.7485 -1.7101
 4194SOL     OW13197   2.969   6.890   6.916 -0.3459 -0.4001 -0.7626
 4194SOL    HW113198   2.911   6.936   6.976  0.0276 -0.5542 -0.2770
 4194SOL    HW213199   3.021   6.960   6.876  0.6799 -0.4280  0.4634
 4195SOL     OW13200   0.675   5.872   2.112 -0.1420 -0.8899 -0.1970
 4195SOL    HW113201   0.737   5.893   2.042 -0.3655 -0.8842 -0.3957
 4195SOL    HW213202   0.668   5.953   2.162 -0.9956 -0.4673 -0.9600
 4196SOL     OW13203   6.859   0.232   5.825  0.6358  0.1070 -0.5349
 4196SOL    HW113204   6.770   0.267   5.819  0.3716 -0.4104  0.1888
 4196SOL    HW213205   6.847   0.137   5.830  0.9455  0.1289  3.3201
 4197SOL     OW13206   0.983   6.989   2.040  1.0262 -0.0383  0.3822
 4197SOL    HW113207   0.980   6.926   1.968  0.6690  0.0553  0.3099
 4197SOL    HW213208   1.074   6.987   2.070  0.6242 -1.9424  1.6070
 4198SOL     OW13209   0.403   2.614   4.720  0.3492 -0.0176 -0.2453
 4198SOL    HW113210   0.392   2.707   4.700  1.9991  0.9890  2.7407
 4198SOL    HW213211   0.349   2.569   4.656 -1.0568  3.0146 -1.4211
 4199SOL     OW13212   4.244   3.484   1.090  0.6042 -0.3614  0.0694
 4199SOL    HW113213   4.151   3.471   1.108  0.4079 -0.1016 -0.6973
 4199SOL    HW213214   4.284   3.399   1.106  0.0064 -0.8486 -0.8941
 4200SOL     OW13215   2.621   2.367   4.675 -0.0851  0.4476 -0.0961
 4200SOL    HW113216   2.620   2.271   4.678  2.4727  0.2736 -1.8495
 4200SOL    HW213217   2.680   2.393   4.747  0.9128  0.5400 -0.9227
 4201SOL     OW13218   5.864   5.221   5.325 -0.1250 -0.0705  0.7015
 4201SOL    HW113219   5.797   5.175   5.375  1.3530 -0.9035  1.9726
 4201SOL    HW213220   5.905   5.280   5.388  0.8001 -0.0746  0.1219
 4202SOL     OW13221   1.938   0.042   3.894 -0.3034  0.0526  0.0971
 4202SOL    HW113222   1.920   0.071   3.983 -1.6722 -0.3599 -0.0137
 4202SOL    HW213223   1.914  -0.051   3.893  0.2957 -0.1013 -0.5326
 4203SOL     OW13224   3.524   5.947   3.251 -0.3478  0.6464  0.1974
 4203SOL    HW113225   3.440   5.993   3.239 -2.2573 -1.5200  3.4044
 4203SOL    HW213226   3.533   5.894   3.173 -1.4380  1.6587 -0.6697
 4204SOL     OW13227   1.151   0.789   2.950  0.1440 -0.2226  0.1056
 4204SOL    HW113228   1.155   0.730   3.026  0.4350 -0.6134 -0.2093
 4204SOL    HW213229   1.178   0.735   2.876 -1.4764 -0.2102 -0.5202
 4205SOL     OW13230   6.392   4.943   6.175  0.1001 -0.6318  0.6984
 4205SOL    HW113231   6.444   4.877   6.129  1.0407  0.5146  0.0606
 4205SOL    HW213232   6.379   4.907   6.263  1.2475 -1.3172  0.5999
 4206SOL     OW13233   4.796   2.112   1.540 -0.4075 -0.6724  0.1713
 4206SOL    HW113234   4.793   2.070   1.626  1.5567 -2.1695 -0.4142
 4206SOL    HW213235   4.735   2.186   1.547 -1.3358 -1.5552  2.3838
 4207SOL     OW13236   1.055   3.821   0.822 -0.1291  0.2253 -1.0307
 4207SOL    HW113237   1.088   3.900   0.865 -2.3147  1.1967 -1.0035
 4207SOL    HW213238   1.105   3.815   0.741  1.4753  0.4613 -0.0981
 4208SOL     OW13239   2.877   5.163   0.020 -0.0632 -0.3400  0.2468
 4208SOL    HW113240   2.823   5.087   0.043  0.8072 -0.6191  1.5256
 4208SOL    HW213241   2.852   5.185  -0.069 -1.6604 -0.9821  0.5108
 4209SOL     OW13242   5.582   5.783   2.545 -0.0486 -0.2037  0.4593
 4209SOL    HW113243   5.603   5.692   2.522  1.5729  0.3407 -0.3653
 4209SOL    HW213244   5.634   5.799   2.624 -0.3492  0.0167  0.6137
 4210SOL     OW13245   4.154   3.041   5.178  0.0522 -0.6191 -0.6081
 4210SOL    HW113246   4.144   2.973   5.111  2.6185 -0.6516 -1.0574
 4210SOL    HW213247   4.188   2.994   5.254 -0.9079 -0.2525  0.0676
 4211SOL     OW13248   0.217   4.824   5.352 -0.0206 -0.6326 -0.2412
 4211SOL    HW113249   0.207   4.729   5.351  0.6080 -0.7074 -0.7369
 4211SOL    HW213250   0.174   4.853   5.271 -0.6031 -0.4473  0.1335
 4212SOL     OW13251   6.450   0.326   2.241  0.1293 -0.2393 -0.0598
 4212SOL    HW113252   6.485   0.237   2.250 -0.6762 -0.4368  1.4919
 4212SOL    HW213253   6.425   0.333   2.149  1.2040 -1.2223 -0.4533
 4213SOL     OW13254   4.501   5.754   0.068 -0.2798  0.1346 -0.4442
 4213SOL    HW113255   4.427   5.694   0.081  0.5895 -0.5094  2.3402
 4213SOL    HW213256   4.465   5.841   0.084 -0.5910 -0.1261  0.3379
 4214SOL     OW13257   2.200   4.037   4.392 -0.2690 -0.0855 -0.4240
 4214SOL    HW113258   2.146   4.076   4.461 -0.8192  0.8646 -1.3461
 4214SOL    HW213259   2.137   3.991   4.336  0.0291 -0.0456 -0.7992
 4215SOL     OW13260   0.515   0.082   0.269 -0.0323  0.3597  0.2185
 4215SOL    HW113261   0.443   0.125   0.223 -1.1771 -3.9039 -2.6067
 4215SOL    HW213262   0.594   0.114   0.227 -0.6718  1.2151 -0.3613
 4216SOL     OW13263   0.103   5.335   3.103  0.4672 -0.1840 -0.7208
 4216SOL    HW113264   0.058   5.259   3.138  0.9211 -0.4134 -0.6217
 4216SOL    HW213265   0.055   5.410   3.138 -1.5002 -0.3874 -2.7779
 4217SOL     OW13266   2.080   2.347   1.730 -0.1078  0.1442  0.3850
 4217SOL    HW113267   1.985   2.342   1.737 -0.0239 -0.1701  1.4947
 4217SOL    HW213268   2.104   2.273   1.675 -0.5949  0.9883 -1.0095
 4218SOL     OW13269   6.365   6.218   1.251  0.6148 -0.3990  0.0865
 4218SOL    HW113270   6.317   6.289   1.207 -1.0061 -0.8543  1.0277
 4218SOL    HW213271   6.457   6.239   1.236  0.1729  1.4864 -0.3142
 4219SOL     OW13272   2.906   0.882   1.126 -0.2450 -0.3311 -0.2893
 4219SOL    HW113273   2.867   0.967   1.104 -0.5298 -0.3221  0.2229
 4219SOL    HW213274   2.920   0.887   1.221  0.1834 -0.6722 -0.3357
 4220SOL     OW13275   3.837   0.825   2.827 -0.1251 -0.2808 -0.0632
 4220SOL    HW113276   3.915   0.875   2.804 -0.4564 -0.0173 -0.6413
 4220SOL    HW213277   3.791   0.879   2.890 -0.0610 -0.2428 -0.0487
 4221SOL     OW13278   6.167   3.377   4.438  0.5603  0.2693 -0.3005
 4221SOL    HW113279   6.117   3.401   4.516 -0.2182  1.5274 -1.1442
 4221SOL    HW213280   6.238   3.441   4.435  2.8841 -2.0160  1.3685
 4222SOL     OW13281   5.549   5.624   4.910 -0.1282  0.7134 -0.5601
 4222SOL    HW113282   5.582   5.620   5.000 -0.0321 -0.0408 -0.6204
 4222SOL    HW213283   5.579   5.542   4.870 -1.2564  0.4465 -0.9039
 4223SOL     OW13284   3.807   6.901   0.681 -0.3629 -0.4956 -0.0025
 4223SOL    HW113285   3.814   6.920   0.774  0.4129  0.1049 -0.1597
 4223SOL    HW213286   3.864   6.826   0.667  1.2153  0.6841 -0.2989
 4224SOL     OW13287   1.920   1.688   5.584 -0.3007  0.6307 -0.4411
 4224SOL    HW113288   1.870   1.768   5.568  0.1389  1.2359  1.0658
 4224SOL    HW213289   1.970   1.674   5.503 -1.1828  1.2768 -1.1111
 4225SOL     OW13290   2.203   1.147   3.462  0.4078 -0.2181 -0.3982
 4225SOL    HW113291   2.194   1.056   3.489  0.6527 -0.9963 -2.7243
 4225SOL    HW213292   2.277   1.180   3.513 -0.8312 -0.6760  1.8684
 4226SOL     OW13293   5.315   6.567   1.840  0.2101  0.3568  0.1381
 4226SOL    HW113294   5.383   6.615   1.795  0.0397 -0.0038 -0.5153
 4226SOL    HW213295   5.278   6.508   1.774 -2.3116  2.1411 -0.2057
 4227SOL     OW13296   2.302   5.536   1.043 -0.2357 -0.3353  0.1143
 4227SOL    HW113297   2.302   5.628   1.070 -0.2869 -0.1914 -0.3707
 4227SOL    HW213298   2.370   5.496   1.097 -0.1890 -0.0061  0.3061
 4228SOL     OW13299   6.606   7.022   6.502  0.3509 -0.6183  0.0624
 4228SOL    HW113300   6.688   7.070   6.511 -0.0788  0.5927 -1.8756
 4228SOL    HW213301   6.601   7.001   6.408 -1.2456 -1.2540  0.2582
 4229SOL     OW13302   0.111   4.531   5.936  0.4894  0.5263  0.0240
 4229SOL    HW113303   0.149   4.578   5.861 -0.0367 -1.2315 -1.4353
 4229SOL    HW213304   0.018   4.524   5.915  0.7209 -2.1887 -0.5019
 4230SOL     OW13305   4.661   6.386   6.356  1.0858  0.4031 -0.2840
 4230SOL    HW113306   4.673   6.296   6.324 -1.8929 -1.4043  3.0037
 4230SOL    HW213307   4.589   6.420   6.303 -0.3651 -0.6600  0.9290
 4231SOL     OW13308   2.534   2.975   5.783  0.4106  0.2817  0.3459
 4231SOL    HW113309   2.489   2.975   5.698  0.4947 -1.4734  0.2686
 4231SOL    HW213310   2.467   3.002   5.845  0.5715  2.4701 -0.3325
 4232SOL     OW13311   4.141   7.243   1.106  0.3455 -0.5953  0.3719
 4232SOL    HW113312   4.065   7.296   1.081  0.7855  0.1034  0.4809
 4232SOL    HW213313   4.138   7.240   1.201 -0.7035 -2.3230  0.3193
 4233SOL     OW13314   6.885   1.659   3.840  0.0906 -1.0220 -1.0133
 4233SOL    HW113315   6.865   1.716   3.766 -0.4040 -0.6789 -0.6175
 4233SOL    HW213316   6.799   1.635   3.875  0.3256 -1.1861 -0.5510
 4234SOL     OW13317   5.741   1.937   1.966 -0.1909  0.0244 -0.2593
 4234SOL    HW113318   5.715   1.868   1.904 -2.7518  0.6444  0.0134
 4234SOL    HW213319   5.725   2.019   1.919  0.3205  0.4713  0.3346
 4235SOL     OW13320   3.474   1.767   1.434 -0.6451  0.2058 -0.1760
 4235SOL    HW113321   3.452   1.682   1.395  2.3765 -0.0104 -1.7278
 4235SOL    HW213322   3.458   1.830   1.364  0.2783  0.4531 -0.1743
 4236SOL     OW13323   3.961   4.394   3.754 -0.1913  0.5413  0.3063
 4236SOL    HW113324   3.992   4.414   3.842 -1.6388  1.2730  0.6841
 4236SOL    HW213325   3.943   4.479   3.714 -0.5054  0.1883 -0.3291
 4237SOL     OW13326   0.629   3.987   6.150  0.0348 -0.5951 -0.6436
 4237SOL    HW113327   0.651   4.034   6.069  0.7977 -0.8421 -0.5863
 4237SOL    HW213328   0.592   3.904   6.119 -1.9061  0.2644 -0.7532
 4238SOL     OW13329   1.683   6.866   5.601 -0.4171  0.3531 -0.0437
 4238SOL    HW113330   1.708   6.913   5.680  1.2413  1.4503 -1.1677
 4238SOL    HW213331   1.656   6.779   5.632  2.9905 -0.3031  1.5143
 4239SOL     OW13332   4.698   6.674   5.401 -0.2424  0.7091  0.0958
 4239SOL    HW113333   4.656   6.676   5.315  1.7316  0.3737 -0.9347
 4239SOL    HW213334   4.756   6.751   5.401  2.9252 -1.4604 -0.6596
 4240SOL     OW13335   2.203   5.740   4.650 -0.2864  0.7864 -0.3753
 4240SOL    HW113336   2.272   5.763   4.588 -0.2528  0.8249 -0.3234
 4240SOL    HW213337   2.250   5.712   4.729 -0.3303  0.8153 -0.3393
 4241SOL     OW13338   6.502   0.433   3.596  0.0900  0.6144 -0.9830
 4241SOL    HW113339   6.527   0.458   3.507 -0.0102 -0.3166 -1.2899
 4241SOL    HW213340   6.444   0.502   3.626  1.2980  1.7024 -1.0752
 4242SOL     OW13341   5.713   5.745   4.731 -0.1098  0.0862 -0.0758
 4242SOL    HW113342   5.672   5.703   4.806  0.2966  0.5711  0.4262
 4242SOL    HW213343   5.646   5.803   4.696 -0.2861 -0.1107 -0.0670
 4243SOL     OW13344   2.377   1.147   7.083  0.0869  0.2015  0.5647
 4243SOL    HW113345   2.316   1.143   7.157  1.0514  0.7128  1.4220
 4243SOL    HW213346   2.404   1.057   7.069 -1.3746 -0.1328 -0.2899
 4244SOL     OW13347   6.042   6.620   3.457  0.5264 -0.3197  0.5392
 4244SOL    HW113348   6.079   6.699   3.418  0.5082 -0.3581  0.4440
 4244SOL    HW213349   5.973   6.593   3.397  0.8275 -0.6591  0.3353
 4245SOL     OW13350   0.826   6.304   2.493  0.7905  0.1374  0.0416
 4245SOL    HW113351   0.918   6.329   2.484  1.2288 -1.6948 -1.3265
 4245SOL    HW213352   0.825   6.242   2.565  0.4801  0.7059  0.5356
 4246SOL     OW13353   4.796   1.327   3.666  0.5469 -0.0998  0.3721
 4246SOL    HW113354   4.773   1.403   3.719 -0.7314 -0.1977 -0.0200
 4246SOL    HW213355   4.882   1.299   3.699  0.5996  0.9401  1.1402
 4247SOL     OW13356   7.077   6.324   5.766  0.1464 -0.0380  0.5835
 4247SOL    HW113357   7.117   6.237   5.759  0.6280  0.2872 -1.3129
 4247SOL    HW213358   7.151   6.383   5.779  0.1831  0.3648 -1.1132
 4248SOL     OW13359   3.641   2.718   0.538 -0.0158  0.0092 -0.2393
 4248SOL    HW113360   3.719   2.693   0.587 -0.3344 -1.7046 -0.5564
 4248SOL    HW213361   3.585   2.641   0.539 -2.0019  1.3756  0.4761
 4249SOL     OW13362   6.963   2.364   4.766  0.3494 -0.6551  0.3200
 4249SOL    HW113363   7.023   2.386   4.695  1.6184 -0.4752  1.3986
 4249SOL    HW213364   6.955   2.269   4.763  0.7120 -0.6814  0.1805
 4250SOL     OW13365   6.157   3.938   2.649  0.4347  0.6274  0.8564
 4250SOL    HW113366   6.145   3.942   2.744  1.4081  0.6926  0.9861
 4250SOL    HW213367   6.217   4.010   2.629 -2.3897  2.9046 -0.2821
 4251SOL     OW13368   4.239   1.815   2.989  0.1087 -0.4884 -0.0204
 4251SOL    HW113369   4.215   1.784   3.076  1.4816 -1.2584  0.1157
 4251SOL    HW213370   4.182   1.766   2.929 -0.6603 -0.1390  0.4163
 4252SOL     OW13371   7.164   4.758   7.178  0.1464  0.0821 -0.5907
 4252SOL    HW113372   7.197   4.779   7.266  0.5496  0.5629 -0.8583
 4252SOL    HW213373   7.233   4.786   7.119 -0.2213 -0.0448 -1.0818
 4253SOL     OW13374   5.864   7.067   2.964  1.0492 -0.6338  0.5336
 4253SOL    HW113375   5.901   7.090   3.049  0.2080 -2.0107  1.3047
 4253SOL    HW213376   5.933   7.017   2.920  1.7750  0.7246  0.0443
 4254SOL     OW13377   6.909   3.640   3.379  0.2711 -0.5215  0.2132
 4254SOL    HW113378   6.935   3.549   3.363  0.5610 -0.4172  0.0873
 4254SOL    HW213379   6.819   3.634   3.410  1.0475 -1.0364  2.5470
 4255SOL     OW13380   0.427   3.797   3.268 -0.2398 -0.0241  0.2929
 4255SOL    HW113381   0.491   3.815   3.337 -0.8900 -0.2573  0.9716
 4255SOL    HW213382   0.449   3.708   3.238 -1.9251 -1.2793  2.4736
 4256SOL     OW13383   2.763   1.014   6.680  0.0923  0.3832  0.0888
 4256SOL    HW113384   2.699   1.058   6.736  0.3881 -1.0407  1.6210
 4256SOL    HW213385   2.735   0.923   6.678  2.1403 -0.3157  0.9369
 4257SOL     OW13386   1.156   1.309   6.935 -0.2852 -0.3207  0.0160
 4257SOL    HW113387   1.086   1.312   6.869 -0.3227 -0.8598  0.0256
 4257SOL    HW213388   1.144   1.225   6.979  0.8606 -0.8005 -0.5306
 4258SOL     OW13389   3.447   1.544   2.562  0.1547 -0.6503 -0.6218
 4258SOL    HW113390   3.464   1.537   2.469 -0.8825  2.1334 -1.1224
 4258SOL    HW213391   3.369   1.598   2.568 -0.9694 -2.3329  1.8591
 4259SOL     OW13392   1.893   1.881   0.356  0.0431 -0.1860 -0.3890
 4259SOL    HW113393   1.900   1.798   0.308  0.6430  0.6582 -1.8174
 4259SOL    HW213394   1.980   1.920   0.349 -0.1662  0.4628  0.4785
 4260SOL     OW13395   5.294   1.761   6.774 -0.0871 -0.2361  0.1837
 4260SOL    HW113396   5.297   1.857   6.768 -1.9355 -0.0839  0.8563
 4260SOL    HW213397   5.241   1.734   6.699 -0.8610 -0.5782  0.8366
 4261SOL     OW13398   0.957   5.501   0.048 -0.6873 -0.4766  0.3775
 4261SOL    HW113399   0.912   5.417   0.040 -1.3384 -0.1358  0.3618
 4261SOL    HW213400   0.906   5.560  -0.008 -1.6128  0.4794  2.1362
 4262SOL     OW13401   7.164   6.472   0.889 -0.0850 -0.3219  0.6582
 4262SOL    HW113402   7.210   6.494   0.970 -1.4687 -0.2321  1.4577
 4262SOL    HW213403   7.233   6.467   0.822  1.4542 -2.8234  2.2639
 4263SOL     OW13404   6.581   1.684   2.253  0.0983 -0.3463  0.8834
 4263SOL    HW113405   6.533   1.602   2.243  2.0858 -1.5099  0.2620
 4263SOL    HW213406   6.603   1.688   2.346 -0.8016 -0.0322  1.0873
 4264SOL     OW13407   5.441   2.466   1.981  0.1459  0.2302 -0.6679
 4264SOL    HW113408   5.437   2.396   2.046  1.8724  0.8965  0.2035
 4264SOL    HW213409   5.453   2.546   2.032 -2.1958  1.2757 -1.6151
 4265SOL     OW13410   5.832   1.029   2.834  0.1389  0.7738  0.3415
 4265SOL    HW113411   5.913   0.994   2.799 -0.5452 -1.0598  0.4643
 4265SOL    HW213412   5.859   1.102   2.890  1.7187  0.0042  0.6266
 4266SOL     OW13413   7.041   6.513   6.167 -0.1397 -0.8067  0.1432
 4266SOL    HW113414   7.046   6.475   6.255 -1.4551 -0.6309  0.3124
 4266SOL    HW213415   6.959   6.478   6.131  0.6640 -1.3332 -1.2442
 4267SOL     OW13416   0.724   0.572   5.117  0.1114 -0.0640  0.5739
 4267SOL    HW113417   0.744   0.497   5.062 -0.1367  0.2773  0.0064
 4267SOL    HW213418   0.631   0.589   5.102 -0.0113 -0.1108  1.2778
 4268SOL     OW13419   4.370   7.161   3.621 -0.4958  0.6898 -0.3625
 4268SOL    HW113420   4.427   7.124   3.688  1.8209  0.3348 -2.4374
 4268SOL    HW213421   4.387   7.255   3.626 -0.7685  0.7283 -0.0948
 4269SOL     OW13422   0.423   5.462   5.567 -0.5582  0.1042 -0.0392
 4269SOL    HW113423   0.491   5.396   5.552  0.2461  0.9915 -0.3777
 4269SOL    HW213424   0.353   5.439   5.506  0.1688  0.1782 -0.9289
 4270SOL     OW13425   6.630   4.288   5.346  0.0677  0.0069 -0.6346
 4270SOL    HW113426   6.629   4.195   5.323 -0.5099  0.4359 -2.4949
 4270SOL    HW213427   6.647   4.289   5.441  1.3296 -1.9339 -0.7759
 4271SOL     OW13428   4.412   2.441   0.433 -0.0181  0.0881  0.5011
 4271SOL    HW113429   4.348   2.371   0.416 -0.4602  0.6547 -0.2690
 4271SOL    HW213430   4.389   2.510   0.370  1.8245  0.0180 -0.3157
 4272SOL     OW13431   6.492   7.178   3.690 -0.2167 -0.1198  0.4813
 4272SOL    HW113432   6.409   7.142   3.720 -0.1650 -1.1690 -0.5694
 4272SOL    HW213433   6.472   7.270   3.669 -1.6771 -0.8697 -1.7743
 4273SOL     OW13434   4.964   5.959   6.263 -0.1489  0.0370  0.0205
 4273SOL    HW113435   4.895   5.978   6.327 -0.4040  1.5758 -0.6640
 4273SOL    HW213436   5.028   6.030   6.276  0.1819 -0.0828 -0.9042
 4274SOL     OW13437   4.436   2.483   5.828 -0.1449 -0.1990  0.2516
 4274SOL    HW113438   4.377   2.511   5.758 -1.5579  0.0347  1.4877
 4274SOL    HW213439   4.378   2.460   5.900  1.3034  1.6167  2.1132
 4275SOL     OW13440   2.875   1.790   3.422  0.1162  0.9431 -0.0632
 4275SOL    HW113441   2.794   1.808   3.470 -0.5737 -1.9427  0.0323
 4275SOL    HW213442   2.943   1.833   3.473 -0.8733 -0.1819  2.3790
 4276SOL     OW13443   3.861   1.918   1.831  0.4643 -0.3263  0.1427
 4276SOL    HW113444   3.781   1.869   1.846  1.1102 -2.0690 -1.7004
 4276SOL    HW213445   3.910   1.909   1.912 -0.6420 -0.3020  0.8340
 4277SOL     OW13446   3.879   0.210   4.486  0.0104  0.5052  0.1336
 4277SOL    HW113447   3.833   0.126   4.494 -0.2309  0.7623  1.8491
 4277SOL    HW213448   3.851   0.244   4.401  0.8220 -1.5368 -1.0275
 4278SOL     OW13449   2.410   7.036   4.512 -0.5660 -0.1985 -0.6207
 4278SOL    HW113450   2.389   7.129   4.523 -1.5552 -0.5414  0.5104
 4278SOL    HW213451   2.422   7.003   4.601 -0.7688 -1.2821 -0.9785
 4279SOL     OW13452   4.976   0.541   1.321  0.4133  0.5458 -0.4096
 4279SOL    HW113453   4.880   0.540   1.313  0.4239 -1.9248 -0.9070
 4279SOL    HW213454   5.006   0.482   1.253  2.2070  0.1164  0.6967
 4280SOL     OW13455   0.724   5.885   2.546  0.3377 -0.2010 -0.6323
 4280SOL    HW113456   0.791   5.933   2.593  0.8958 -1.4844 -0.0562
 4280SOL    HW213457   0.670   5.845   2.614 -1.8012  1.7623 -1.0520
 4281SOL     OW13458   2.329   0.060   4.470  0.6309  0.0783  0.3317
 4281SOL    HW113459   2.270   0.044   4.396 -0.0271  1.1468  0.5893
 4281SOL    HW213460   2.290   0.135   4.515  1.6087  0.1198  1.1459
 4282SOL     OW13461   1.139   3.737   3.381  0.1929  0.8745 -0.3149
 4282SOL    HW113462   1.125   3.644   3.364  1.9761  0.6595 -0.8411
 4282SOL    HW213463   1.052   3.772   3.397 -0.3772 -1.2713  1.9742
 4283SOL     OW13464   2.500   2.123   4.830 -0.3086  0.3805  0.1665
 4283SOL    HW113465   2.427   2.068   4.858  1.1772 -1.0504  1.3905
 4283SOL    HW213466   2.556   2.130   4.907  2.0445 -0.5426 -1.3654
 4284SOL     OW13467   6.432   3.053   3.993  0.0192  0.2674  0.2869
 4284SOL    HW113468   6.474   2.967   4.008 -0.6505  0.0792  1.1639
 4284SOL    HW213469   6.503   3.116   4.005  1.0849 -0.2189 -2.6390
 4285SOL     OW13470   5.741   6.301   6.238 -0.4068  0.5678  0.5507
 4285SOL    HW113471   5.782   6.387   6.242 -1.9627  1.4357 -0.6339
 4285SOL    HW213472   5.649   6.317   6.256 -0.8653 -0.7229 -0.4309
 4286SOL     OW13473   0.621   0.187   6.548 -0.4157  0.0771 -0.1919
 4286SOL    HW113474   0.574   0.214   6.626 -0.9194 -0.5493 -0.2718
 4286SOL    HW213475   0.637   0.268   6.500 -0.0149  0.4726  0.6040
 4287SOL     OW13476   0.747   1.124   3.075  0.5524  0.4125  0.4946
 4287SOL    HW113477   0.812   1.178   3.119 -0.5673  2.8264 -0.6114
 4287SOL    HW213478   0.798   1.064   3.020  1.8397  0.5702  1.4746
 4288SOL     OW13479   2.585   5.182   2.136 -0.4624 -0.2926 -1.1633
 4288SOL    HW113480   2.512   5.215   2.083  0.4822  0.4105 -2.0677
 4288SOL    HW213481   2.629   5.261   2.168 -0.7571 -0.7062  0.3509
 4289SOL     OW13482   6.039   0.600   5.675  0.4394  0.1710  0.1618
 4289SOL    HW113483   5.995   0.603   5.590  0.5250  0.1330  0.1156
 4289SOL    HW213484   5.981   0.547   5.730  1.2495 -1.3755 -0.3888
 4290SOL     OW13485   3.781   0.352   1.356 -0.4294 -1.0120  0.2778
 4290SOL    HW113486   3.827   0.269   1.373  0.3757 -0.4673  0.8653
 4290SOL    HW213487   3.821   0.414   1.418  0.2769  0.2702 -1.3904
 4291SOL     OW13488   1.949   4.726   0.450  0.2024  0.7228 -0.4299
 4291SOL    HW113489   1.975   4.669   0.522  0.7987  0.7108 -0.6441
 4291SOL    HW213490   2.029   4.735   0.397  0.3288  2.3205 -0.0374
 4292SOL     OW13491   3.150   4.858   7.183 -0.0134  0.4632  0.0656
 4292SOL    HW113492   3.147   4.904   7.099 -0.1626  1.0166  0.3676
 4292SOL    HW213493   3.146   4.765   7.160  0.8017  0.5833 -0.5805
 4293SOL     OW13494   0.093   1.632   3.518 -0.1724  0.0591  0.3458
 4293SOL    HW113495   0.017   1.682   3.549 -0.5268  0.8340 -1.6201
 4293SOL    HW213496   0.165   1.696   3.518 -0.0132 -0.1218  0.2441
 4294SOL     OW13497   4.184   4.732   5.153 -0.1860  0.3063 -0.4615
 4294SOL    HW113498   4.175   4.707   5.061  0.4108 -2.0438  0.0445
 4294SOL    HW213499   4.094   4.737   5.186 -0.3635 -1.2090 -0.6420
 4295SOL     OW13500   4.086   4.827   6.080  0.3847 -0.3020  0.0288
 4295SOL    HW113501   4.027   4.847   6.153 -0.4587  0.5135 -0.8381
 4295SOL    HW213502   4.173   4.847   6.114  0.3151 -2.2978  1.6050
 4296SOL     OW13503   2.342   4.671   0.992  0.4192  0.3124  0.8644
 4296SOL    HW113504   2.421   4.619   0.978  0.6798  0.7813  0.5344
 4296SOL    HW213505   2.373   4.762   0.986 -0.0253  0.5059  1.4057
 4297SOL     OW13506   6.317   3.472   6.662  0.6589  0.4167 -0.3544
 4297SOL    HW113507   6.336   3.513   6.578  1.9026 -1.4136 -1.0436
 4297SOL    HW213508   6.251   3.405   6.641  1.3038 -0.3533  0.0166
 4298SOL     OW13509   1.141   6.911   3.106  0.6077  0.0229 -0.2045
 4298SOL    HW113510   1.222   6.896   3.154 -0.1643 -0.7291  0.9403
 4298SOL    HW213511   1.119   6.826   3.068 -0.8556 -0.4366  1.5237
 4299SOL     OW13512   0.025   1.611   0.807  0.3256  1.0250  0.7744
 4299SOL    HW113513   0.072   1.673   0.751 -0.2209  1.5087  0.8458
 4299SOL    HW213514  -0.011   1.547   0.746  0.0781  1.3205  0.6060
 4300SOL     OW13515   4.703   1.576   4.463  0.2817  0.1031  0.1824
 4300SOL    HW113516   4.636   1.609   4.524 -1.4114  0.1992 -1.6374
 4300SOL    HW213517   4.703   1.481   4.476 -0.0168  0.1309  0.3848
 4301SOL     OW13518   0.003   0.043   1.488 -0.4395 -0.3515 -0.3019
 4301SOL    HW113519   0.047  -0.039   1.467 -0.0863 -0.0438 -0.8282
 4301SOL    HW213520   0.024   0.100   1.413  1.2942  0.9841  1.0959
 4302SOL     OW13521   3.725   5.019   6.059 -0.3213  0.3145 -0.0576
 4302SOL    HW113522   3.673   4.943   6.032  0.6412 -0.3492 -0.1080
 4302SOL    HW213523   3.748   5.062   5.976  0.1460 -0.0394 -0.1191
 4303SOL     OW13524   0.539   3.370   1.659  0.4824  0.2715 -0.1122
 4303SOL    HW113525   0.595   3.296   1.637 -1.2542 -0.3425 -2.9862
 4303SOL    HW213526   0.450   3.333   1.661 -0.2262  1.9026  0.4573
 4304SOL     OW13527   6.310   2.999   7.125  0.6344  0.5246  0.0340
 4304SOL    HW113528   6.367   2.972   7.197  1.0594 -1.2344 -0.9312
 4304SOL    HW213529   6.224   2.963   7.148  0.2525  1.7572  0.6578
 4305SOL     OW13530   1.408   2.153   4.349 -0.2401  0.4099  0.5837
 4305SOL    HW113531   1.474   2.155   4.418  0.7574 -1.2986 -0.2532
 4305SOL    HW213532   1.325   2.146   4.396  0.4579 -1.4256  1.6327
 4306SOL     OW13533   6.873   1.241   5.301 -0.6954 -0.1036  0.2941
 4306SOL    HW113534   6.876   1.190   5.220 -2.5897  0.9363 -0.5010
 4306SOL    HW213535   6.846   1.328   5.273 -0.8326  0.4346  1.9999
 4307SOL     OW13536   6.067   6.297   4.488  0.6506 -0.7083 -0.0929
 4307SOL    HW113537   6.071   6.310   4.393 -0.4201  0.3786 -0.0219
 4307SOL    HW213538   6.002   6.228   4.499  0.4362 -0.5172 -0.1418
 4308SOL     OW13539   0.356   5.505   6.530 -0.1838 -0.4798 -0.1230
 4308SOL    HW113540   0.332   5.596   6.545  1.5134  0.1256 -0.7799
 4308SOL    HW213541   0.330   5.488   6.439  1.2865  0.0181 -0.6676
 4309SOL     OW13542   3.493   0.623   3.181 -0.4204 -0.4441  0.2854
 4309SOL    HW113543   3.411   0.634   3.230  0.1625  0.5293  1.0684
 4309SOL    HW213544   3.553   0.583   3.243  0.6456  1.7469  0.7667
 4310SOL     OW13545   1.917   6.734   1.570  0.0776  0.3537 -0.4146
 4310SOL    HW113546   1.841   6.760   1.518 -2.1627 -0.8425  2.0164
 4310SOL    HW213547   1.921   6.798   1.641  0.2068 -0.6205  0.4760
 4311SOL     OW13548   6.129   4.534   5.261 -0.2672  0.0271 -0.0958
 4311SOL    HW113549   6.150   4.626   5.276  1.7894 -0.6260  1.4203
 4311SOL    HW213550   6.063   4.513   5.327  0.9984 -0.1346  1.1707
 4312SOL     OW13551   6.294   4.869   0.134 -0.5137 -0.0740 -0.0319
 4312SOL    HW113552   6.212   4.833   0.169 -0.7889  0.5158 -0.0632
 4312SOL    HW213553   6.294   4.960   0.162 -0.7586  0.4345 -1.5958
 4313SOL     OW13554   0.552   6.353   3.864 -0.3862 -0.2234 -0.1199
 4313SOL    HW113555   0.568   6.323   3.953  0.8213  1.0016  0.1013
 4313SOL    HW213556   0.584   6.281   3.809  2.8918  0.6945  0.3902
 4314SOL     OW13557   2.001   7.069   0.190 -0.3285 -0.3504  0.0532
 4314SOL    HW113558   2.048   7.150   0.172  1.0284 -1.1216 -0.0222
 4314SOL    HW213559   1.919   7.097   0.231  1.0368  0.9670  2.0403
 4315SOL     OW13560   3.110   4.841   3.376 -0.3682 -0.1150 -0.1926
 4315SOL    HW113561   3.130   4.750   3.353 -1.3268 -0.4834  0.3703
 4315SOL    HW213562   3.051   4.871   3.306 -0.2420 -0.0022 -0.2510
 4316SOL     OW13563   2.459   4.942   2.499 -0.3418  0.1839 -0.3382
 4316SOL    HW113564   2.433   4.869   2.442  0.2612 -0.5841  0.3591
 4316SOL    HW213565   2.553   4.932   2.510 -0.6406 -0.5981  2.0182
 4317SOL     OW13566   0.447   1.180   3.834  0.1014 -0.5037 -0.3598
 4317SOL    HW113567   0.500   1.254   3.861  0.9091 -1.1571 -0.1217
 4317SOL    HW213568   0.378   1.218   3.780  0.3210  0.4488  0.0239
 4318SOL     OW13569   2.554   1.573   3.527  0.0781 -0.2072  0.0888
 4318SOL    HW113570   2.602   1.510   3.474 -1.1687 -0.0941 -1.2368
 4318SOL    HW213571   2.463   1.543   3.523 -0.2540  0.5961  1.0477
 4319SOL     OW13572   5.947   4.279   1.435 -0.4723  0.4033 -0.2063
 4319SOL    HW113573   5.938   4.189   1.404  0.4629  0.3806 -0.4290
 4319SOL    HW213574   6.021   4.315   1.386 -0.0275  0.8893  0.7919
 4320SOL     OW13575   0.427   3.270   4.357 -0.1836  0.0222  0.8031
 4320SOL    HW113576   0.521   3.276   4.372 -0.2018 -1.2576  1.5569
 4320SOL    HW213577   0.390   3.255   4.444 -0.9993 -0.3034  0.4073
 4321SOL     OW13578   6.537   5.887   4.163 -0.2631  0.6707 -0.0975
 4321SOL    HW113579   6.501   5.798   4.167  0.1342  0.5215  0.2092
 4321SOL    HW213580   6.620   5.878   4.116 -1.5484  1.3281 -2.6714
 4322SOL     OW13581   5.371   1.154   2.291  0.2186 -0.3098 -0.0636
 4322SOL    HW113582   5.394   1.152   2.384 -0.5724 -0.1821  0.1438
 4322SOL    HW213583   5.300   1.090   2.283 -0.2518  0.2599 -0.4345
 4323SOL     OW13584   3.417   0.665   6.809  0.1121 -0.1876 -0.4015
 4323SOL    HW113585   3.358   0.695   6.878  0.0644  0.7040 -0.8172
 4323SOL    HW213586   3.447   0.579   6.839  0.9059  0.6266  1.2160
 4324SOL     OW13587   6.043   0.930   3.119  0.5831 -0.6115  0.6262
 4324SOL    HW113588   6.036   0.977   3.037  1.5776 -3.1880 -1.0723
 4324SOL    HW213589   5.972   0.964   3.173 -0.1079  1.1567 -1.2870
 4325SOL     OW13590   0.937   2.510   4.118 -0.5757  0.2440  0.1285
 4325SOL    HW113591   1.011   2.562   4.086  0.2865  0.2018  1.9555
 4325SOL    HW213592   0.963   2.419   4.103 -0.9674  0.2535 -0.6794
 4326SOL     OW13593   5.202   4.287   5.559 -0.2213 -0.1247  0.2290
 4326SOL    HW113594   5.191   4.209   5.613  1.8540 -0.7703 -0.1727
 4326SOL    HW213595   5.161   4.357   5.609 -1.1260 -1.2569  1.1376
 4327SOL     OW13596   4.595   7.075   0.311 -0.2619  0.3684  0.1171
 4327SOL    HW113597   4.577   7.160   0.352 -2.1179 -0.6919  1.6535
 4327SOL    HW213598   4.635   7.023   0.379 -0.6441 -0.5051 -0.3136
 4328SOL     OW13599   0.780   1.685   3.446  0.3423  0.2615  0.0206
 4328SOL    HW113600   0.869   1.708   3.420  0.5792 -0.5268  0.1055
 4328SOL    HW213601   0.783   1.591   3.462 -0.2273  0.4061  1.1320
 4329SOL     OW13602   5.224   6.066   2.342 -0.0555  0.3006 -0.3867
 4329SOL    HW113603   5.308   6.078   2.387 -1.8233  1.4881  2.8779
 4329SOL    HW213604   5.192   5.982   2.372 -1.0110  0.8552  0.1956
 4330SOL     OW13605   7.183   5.019   3.336 -0.0216  0.0691 -0.1881
 4330SOL    HW113606   7.265   5.058   3.366  0.0808  0.6940 -1.2338
 4330SOL    HW213607   7.167   5.059   3.251 -2.5014  1.5428  0.8569
 4331SOL     OW13608   5.515   1.848   5.951  0.6092  0.2793 -0.4469
 4331SOL    HW113609   5.597   1.800   5.941  1.6629  2.0390 -0.7637
 4331SOL    HW213610   5.496   1.882   5.863  1.2518  2.4500  0.1867
 4332SOL     OW13611   6.045   3.180   0.019 -0.0387  0.5949 -0.1047
 4332SOL    HW113612   6.135   3.205   0.043 -0.2155  2.1418 -0.9014
 4332SOL    HW213613   6.011   3.256  -0.028 -1.5593 -0.2197 -0.3912
 4333SOL     OW13614   4.098   2.292   5.521  0.4486  0.6952  0.3995
 4333SOL    HW113615   4.061   2.229   5.583  2.4912 -1.5935 -0.5390
 4333SOL    HW213616   4.187   2.260   5.505 -0.1197  0.7887 -4.1598
 4334SOL     OW13617   6.230   5.066   1.920  0.2156  0.7874  0.2406
 4334SOL    HW113618   6.169   4.998   1.947 -0.3699  0.8979 -0.8036
 4334SOL    HW213619   6.182   5.148   1.932  1.1719  1.1385  2.2471
 4335SOL     OW13620   3.934   0.495   1.556  0.0689  0.0811  0.3442
 4335SOL    HW113621   3.979   0.411   1.563 -0.2492 -0.0463  0.8993
 4335SOL    HW213622   3.880   0.500   1.635 -2.5551 -0.7288 -1.2820
 4336SOL     OW13623   6.034   5.122   3.448 -0.1856  0.4568 -0.2506
 4336SOL    HW113624   6.027   5.030   3.474 -1.3319  1.3205  3.0664
 4336SOL    HW213625   6.113   5.126   3.394  0.5578 -2.2780  0.4660
 4337SOL     OW13626   4.629   1.599   7.230 -0.4906  0.4662 -0.0244
 4337SOL    HW113627   4.659   1.530   7.172 -1.4528  2.0042 -2.5282
 4337SOL    HW213628   4.708   1.632   7.272  0.3192 -0.3933 -0.8549
 4338SOL     OW13629   4.237   3.501   2.084 -0.0640  0.3642 -0.0200
 4338SOL    HW113630   4.293   3.423   2.084  0.0442  0.4418 -0.1404
 4338SOL    HW213631   4.292   3.570   2.120 -0.2039  0.3547  0.2164
 4339SOL     OW13632   6.363   5.756   1.763 -0.4255  0.0663  0.3124
 4339SOL    HW113633   6.419   5.814   1.816 -0.4507  1.1582 -0.8092
 4339SOL    HW213634   6.424   5.692   1.726 -0.1972  0.1445  0.5481
 4340SOL     OW13635   6.413   6.133   5.567  0.0307  0.1080 -0.3253
 4340SOL    HW113636   6.448   6.220   5.548 -0.4162  0.0072 -1.7748
 4340SOL    HW213637   6.488   6.075   5.556  0.6131  0.3969  1.8137
 4341SOL     OW13638   0.379   2.258   6.426  0.0335 -0.4817 -0.5555
 4341SOL    HW113639   0.361   2.164   6.432  1.4484 -0.8365 -1.4527
 4341SOL    HW213640   0.302   2.295   6.384 -0.8961 -1.0935  0.5503
 4342SOL     OW13641   3.053   6.868   2.849 -0.0936  0.1561 -0.0108
 4342SOL    HW113642   3.005   6.803   2.899  1.2210 -0.2241  0.8145
 4342SOL    HW213643   3.100   6.919   2.915  1.0709  0.1441 -0.8010
 4343SOL     OW13644   1.666   2.105   2.997  0.2771  0.1964 -0.2671
 4343SOL    HW113645   1.617   2.124   2.917  0.1213  0.3933 -0.1251
 4343SOL    HW213646   1.753   2.080   2.966  0.2220  0.2842 -0.4960
 4344SOL     OW13647   1.180   3.173   0.778  0.8204 -0.0741  0.2111
 4344SOL    HW113648   1.161   3.173   0.684 -1.1974 -1.7185  0.5356
 4344SOL    HW213649   1.128   3.247   0.812 -1.0369 -1.3719  0.3778
 4345SOL     OW13650   2.960   1.512   6.994 -0.3527 -0.3892 -0.0775
 4345SOL    HW113651   2.875   1.521   7.037 -0.0148 -2.2353  1.0985
 4345SOL    HW213652   2.947   1.441   6.931  0.2145 -0.4143 -0.1686
 4346SOL     OW13653   1.174   5.696   4.604  0.1445  0.4361 -0.2454
 4346SOL    HW113654   1.173   5.753   4.527 -0.3913  0.9756  0.1541
 4346SOL    HW213655   1.122   5.743   4.669 -0.3342 -0.5212  0.0831
 4347SOL     OW13656   0.041   3.236   1.417  0.2802  0.6453 -0.0381
 4347SOL    HW113657   0.037   3.210   1.509  1.5876 -2.7622 -0.8011
 4347SOL    HW213658   0.074   3.326   1.419 -0.9552  1.1630  2.7936
 4348SOL     OW13659   0.375   5.174   5.829 -0.5949  0.2924  0.7654
 4348SOL    HW113660   0.317   5.167   5.753 -0.2581  1.8168  0.3412
 4348SOL    HW213661   0.369   5.266   5.856  1.4215  0.4498  0.8585
 4349SOL     OW13662   1.743   6.116   0.865  0.0476 -0.3018  0.1681
 4349SOL    HW113663   1.730   6.166   0.946  1.8315  0.4621  0.0362
 4349SOL    HW213664   1.769   6.181   0.800 -0.4739 -1.0312 -0.7947
 4350SOL     OW13665   4.777   4.547   2.978 -0.5411  0.7311  0.3365
 4350SOL    HW113666   4.796   4.587   3.063  0.6944  0.0039  0.4356
 4350SOL    HW213667   4.684   4.526   2.982 -0.5244  0.7897  1.4863
 4351SOL     OW13668   6.770   4.351   5.953  0.4778  0.1169  0.5178
 4351SOL    HW113669   6.830   4.375   6.024 -1.2879  0.2785  2.0460
 4351SOL    HW213670   6.792   4.260   5.934  0.8499 -0.0105  1.4649
 4352SOL     OW13671   3.883   1.773   0.520 -0.4743  0.8006  0.5760
 4352SOL    HW113672   3.830   1.702   0.554 -1.3393  1.4323  0.5680
 4352SOL    HW213673   3.846   1.852   0.558 -1.9730  1.6349 -2.3238
 4353SOL     OW13674   4.412   6.862   4.839  0.2795 -0.2657 -0.2507
 4353SOL    HW113675   4.367   6.785   4.875 -0.7524 -1.5652 -3.9058
 4353SOL    HW213676   4.503   6.835   4.831  0.1599 -0.6433 -0.3461
 4354SOL     OW13677   5.491   6.431   5.931 -0.5371 -0.0173 -0.4112
 4354SOL    HW113678   5.577   6.465   5.907  0.6881 -2.0890  0.7166
 4354SOL    HW213679   5.437   6.445   5.854  0.9506  0.8443 -1.3507
 4355SOL     OW13680   4.398   2.923   5.731 -0.4117  0.0723  0.6451
 4355SOL    HW113681   4.306   2.947   5.726 -0.9877 -1.7782  1.4877
 4355SOL    HW213682   4.413   2.906   5.824  0.7838  0.2943  0.5087
 4356SOL     OW13683   7.068   6.194   4.016  0.3155 -0.4398  0.3959
 4356SOL    HW113684   7.019   6.205   3.935 -0.0974 -1.0791  0.5551
 4356SOL    HW213685   7.160   6.191   3.988  0.2968  0.9314  0.1139
 4357SOL     OW13686   6.938   1.434   3.451  0.3265  0.2694  0.4969
 4357SOL    HW113687   6.933   1.415   3.545 -0.7775 -0.1998  0.3506
 4357SOL    HW213688   6.851   1.466   3.428  0.0560 -1.2185 -0.7052
 4358SOL     OW13689   5.304   3.553   5.611 -0.0695  0.5712  0.4273
 4358SOL    HW113690   5.238   3.488   5.634  2.8806 -2.5865  0.8171
 4358SOL    HW213691   5.316   3.605   5.690 -2.4805  1.6940  0.1190
 4359SOL     OW13692   4.812   1.971   3.793 -0.4850 -0.4309 -0.5749
 4359SOL    HW113693   4.757   1.894   3.781  0.6482 -1.2814 -0.4388
 4359SOL    HW213694   4.891   1.938   3.835  0.6274  0.5636 -1.7859
 4360SOL     OW13695   0.474   7.095   4.764 -0.0063  0.0915 -0.2007
 4360SOL    HW113696   0.500   7.169   4.708  1.5165  1.5186  2.1802
 4360SOL    HW213697   0.543   7.030   4.752  0.2894  0.3731 -0.0375
 4361SOL     OW13698   7.105   0.547   2.983  0.5756  0.1216 -0.1890
 4361SOL    HW113699   7.061   0.597   2.914 -1.2319 -1.2710 -0.1004
 4361SOL    HW213700   7.182   0.600   3.005 -0.4608  2.1346 -1.1123
 4362SOL     OW13701   1.109   5.812   3.787 -0.4387  0.0287 -0.1034
 4362SOL    HW113702   1.092   5.768   3.704  0.3177 -2.6243  1.0170
 4362SOL    HW213703   1.061   5.894   3.781  0.1118  0.2595 -3.3726
 4363SOL     OW13704   2.500   3.511   0.724 -0.1394 -0.4469  0.2198
 4363SOL    HW113705   2.499   3.448   0.796 -0.5124 -0.3124  0.3334
 4363SOL    HW213706   2.588   3.547   0.725 -0.3957  0.1720  1.1556
 4364SOL     OW13707   5.832   4.376   6.214 -0.4173  0.4220  0.6040
 4364SOL    HW113708   5.785   4.458   6.230 -0.0174  0.5681  1.0407
 4364SOL    HW213709   5.818   4.358   6.121 -1.5802  0.3118  0.7737
 4365SOL     OW13710   3.642   2.120   0.093  0.0354 -0.0697  0.3307
 4365SOL    HW113711   3.693   2.201   0.088 -0.1754  0.0078 -0.7310
 4365SOL    HW213712   3.583   2.124   0.018 -1.4383 -0.2422  1.4365
 4366SOL     OW13713   6.974   4.485   6.404 -0.2438  0.3107 -0.4531
 4366SOL    HW113714   6.898   4.535   6.430  0.0044 -0.8059  2.8894
 4366SOL    HW213715   6.994   4.429   6.480  3.8434  0.4957 -1.1299
 4367SOL     OW13716   0.549   3.458   5.330  0.3875  0.0439  0.5162
 4367SOL    HW113717   0.614   3.514   5.373  1.7113 -0.6429 -0.5219
 4367SOL    HW213718   0.601   3.401   5.272 -1.1711 -0.3412 -0.5517
 4368SOL     OW13719   0.404   1.925   3.705  0.5809 -0.0135  0.7287
 4368SOL    HW113720   0.362   2.001   3.665 -0.2103 -1.8224 -2.1853
 4368SOL    HW213721   0.491   1.956   3.729  0.4622  1.7041 -0.8165
 4369SOL     OW13722   2.379   2.223   2.384  0.8455  0.3040  0.1431
 4369SOL    HW113723   2.443   2.279   2.341 -0.7115  0.0209 -2.8268
 4369SOL    HW213724   2.295   2.252   2.350 -0.2473 -2.0840  0.5834
 4370SOL     OW13725   0.093   7.199   4.691  0.8560  0.3379  0.1413
 4370SOL    HW113726   0.036   7.155   4.627  2.3383 -2.1132  0.3754
 4370SOL    HW213727   0.163   7.136   4.707  1.2107  1.3908  3.2775
 4371SOL     OW13728   0.996   5.838   4.812 -0.0459 -0.4518 -0.6814
 4371SOL    HW113729   1.049   5.913   4.839 -1.1341 -0.1430  0.6920
 4371SOL    HW213730   0.980   5.790   4.892 -1.1372 -0.9981 -1.2080
 4372SOL     OW13731   1.793   3.119   3.115  0.5340  0.3356 -0.8970
 4372SOL    HW113732   1.772   3.093   3.205  0.0527 -0.0712 -1.1212
 4372SOL    HW213733   1.832   3.041   3.076  0.4085  0.3940 -1.1452
 4373SOL     OW13734   0.455   1.047   6.201  0.1254 -0.6755 -0.2022
 4373SOL    HW113735   0.369   1.061   6.162 -0.0138 -1.3871 -0.1536
 4373SOL    HW213736   0.437   1.031   6.294  0.3636 -0.1723 -0.0652
 4374SOL     OW13737   7.120   1.002   6.709 -0.0933 -0.1364  0.0937
 4374SOL    HW113738   7.075   1.086   6.718  0.4435 -0.0185  2.1440
 4374SOL    HW213739   7.062   0.939   6.752  0.5456 -0.4054  0.5786
 4375SOL     OW13740   4.251   1.078   1.402 -0.5407 -0.0001  0.5778
 4375SOL    HW113741   4.184   1.101   1.467  1.1393  0.4732  2.2292
 4375SOL    HW213742   4.282   1.163   1.369 -2.5796 -0.2185 -2.2792
 4376SOL     OW13743   4.130   6.502   3.067 -0.3464 -0.0732  0.2064
 4376SOL    HW113744   4.206   6.462   3.024  0.4376 -0.1323  1.5851
 4376SOL    HW213745   4.144   6.484   3.160 -1.7631  0.4323  0.5300
 4377SOL     OW13746   2.793   4.247   1.967  0.4452 -0.8243  0.2052
 4377SOL    HW113747   2.708   4.241   2.010 -0.0060 -0.1276 -0.5595
 4377SOL    HW213748   2.784   4.320   1.906  1.4266 -1.0689 -0.2534
 4378SOL     OW13749   5.845   2.899   3.250  0.8030 -0.2338  0.2708
 4378SOL    HW113750   5.754   2.903   3.279  0.9442 -1.1825  0.8735
 4378SOL    HW213751   5.859   2.982   3.205 -0.2965  0.0118  0.3563
 4379SOL     OW13752   2.800   5.584   3.856  0.2379  0.0871 -0.2582
 4379SOL    HW113753   2.787   5.669   3.813 -0.3130 -0.2028 -0.6814
 4379SOL    HW213754   2.723   5.574   3.913  0.6356  0.1716  0.3055
 4380SOL     OW13755   2.094   7.133   0.723 -0.2598 -0.3744  0.4292
 4380SOL    HW113756   2.175   7.123   0.674 -1.5746 -1.5494 -1.6905
 4380SOL    HW213757   2.114   7.102   0.811  1.8806  0.5650  0.3153
 4381SOL     OW13758   1.758   4.229   0.440  0.2614 -0.1730  0.8152
 4381SOL    HW113759   1.671   4.254   0.409 -0.5387 -2.7062  0.7697
 4381SOL    HW213760   1.780   4.295   0.506 -1.3614  0.9453  0.2951
 4382SOL     OW13761   1.516   4.091   0.604 -0.1054  0.0194  0.3364
 4382SOL    HW113762   1.569   4.012   0.610  1.4505  1.0130  0.1011
 4382SOL    HW213763   1.547   4.134   0.524 -0.6403  1.0820  0.6877
 4383SOL     OW13764   1.447   1.539   5.466  0.4117 -0.2549  0.5922
 4383SOL    HW113765   1.438   1.587   5.384  2.2664 -0.0929  0.4525
 4383SOL    HW213766   1.361   1.500   5.480 -0.0291 -0.0459 -1.2783
 4384SOL     OW13767   4.296   2.475   7.170 -0.2054 -0.3584  0.6351
 4384SOL    HW113768   4.364   2.536   7.143 -0.2530  0.4341  2.1942
 4384SOL    HW213769   4.294   2.409   7.101  1.5102  0.0977  0.1069
 4385SOL     OW13770   1.867   5.157   6.850  0.1806  0.7990 -0.3208
 4385SOL    HW113771   1.876   5.160   6.754 -1.2774  2.2353 -0.4694
 4385SOL    HW213772   1.922   5.229   6.882 -0.2914  1.1114 -0.1976
 4386SOL     OW13773   5.049   5.756   0.903 -0.0770  0.4065  0.4853
 4386SOL    HW113774   5.028   5.813   0.977 -0.1566 -0.4087  1.1175
 4386SOL    HW213775   4.965   5.717   0.880 -0.2787  1.5749 -0.8570
 4387SOL     OW13776   5.158   6.836   3.147  0.3900  0.4275 -0.0133
 4387SOL    HW113777   5.213   6.854   3.071 -1.1598  1.0669 -1.0615
 4387SOL    HW213778   5.109   6.757   3.123  0.5933  0.0720  0.7346
 4388SOL     OW13779   0.476   4.507   1.971 -0.1216 -0.4459  0.1277
 4388SOL    HW113780   0.413   4.532   2.038 -0.9045 -1.4475 -0.2123
 4388SOL    HW213781   0.449   4.555   1.893  1.1838  1.2409  0.6496
 4389SOL     OW13782   1.921   1.296   1.699 -0.0696  0.4161 -0.2008
 4389SOL    HW113783   1.839   1.334   1.732  0.1954  0.1127  0.8451
 4389SOL    HW213784   1.989   1.352   1.736  0.2276  0.2950 -0.5628
 4390SOL     OW13785   4.476   0.673   0.005 -0.6789 -0.1074 -0.6870
 4390SOL    HW113786   4.542   0.642   0.067 -1.6142 -2.7048 -0.8601
 4390SOL    HW213787   4.469   0.767   0.022  0.1188 -0.4783  2.1714
 4391SOL     OW13788   6.778   6.848   2.191  0.5563 -0.0100  0.7924
 4391SOL    HW113789   6.837   6.816   2.261  1.6891 -0.4584 -0.3251
 4391SOL    HW213790   6.735   6.924   2.230 -0.4046 -1.4349  2.7077
 4392SOL     OW13791   1.451   3.467   5.786 -0.3747  0.3005  0.4208
 4392SOL    HW113792   1.464   3.542   5.844 -2.5562  0.7351  0.4301
 4392SOL    HW213793   1.480   3.392   5.838 -1.5337  0.7688  1.8110
 4393SOL     OW13794   3.677   4.593   2.432  0.4149  0.1162  0.2474
 4393SOL    HW113795   3.656   4.663   2.494  0.6016  0.3456  0.0520
 4393SOL    HW213796   3.763   4.617   2.397  0.8524 -0.6195  0.7749
 4394SOL     OW13797   3.319   6.094   2.944 -0.7764  0.4427 -0.0108
 4394SOL    HW113798   3.409   6.097   2.975  0.0495  0.8854 -2.2831
 4394SOL    HW213799   3.292   6.003   2.959  1.1830 -0.5928 -2.1917
 4395SOL     OW13800   3.767   2.257   5.205 -0.0703 -0.4308  0.2508
 4395SOL    HW113801   3.714   2.190   5.247  0.2243 -1.0550 -0.3577
 4395SOL    HW213802   3.712   2.335   5.205 -1.1996 -1.1922 -0.8087
 4396SOL     OW13803   2.050   5.075   5.927 -0.3746 -0.3259  0.1762
 4396SOL    HW113804   2.007   5.141   5.873 -1.0458 -1.1158 -0.2706
 4396SOL    HW213805   2.116   5.036   5.868  1.5384  1.3980  1.0728
 4397SOL     OW13806   5.027   4.137   6.895 -0.5348  0.4352  0.0730
 4397SOL    HW113807   5.077   4.181   6.964 -0.5087 -0.4988  0.6697
 4397SOL    HW213808   4.943   4.184   6.893 -0.0848  1.2495 -0.1169
 4398SOL     OW13809   1.846   2.022   4.891 -0.3466  0.0822 -0.6332
 4398SOL    HW113810   1.806   2.105   4.866  2.9647  2.5957  1.4188
 4398SOL    HW213811   1.903   1.999   4.818  3.3647  3.1750  0.9320
 4399SOL     OW13812   3.209   7.196   1.797  0.0690 -0.1106  0.6507
 4399SOL    HW113813   3.194   7.281   1.840  0.2628  0.6204 -0.6773
 4399SOL    HW213814   3.301   7.176   1.816  0.1824  0.2577  0.4960
 4400SOL     OW13815   1.811   6.439   5.553 -0.3087 -0.4059  0.0298
 4400SOL    HW113816   1.745   6.502   5.527  0.7769  0.3751 -0.8981
 4400SOL    HW213817   1.887   6.492   5.577  0.6645 -1.3389 -0.8850
 4401SOL     OW13818   1.508   3.592   5.358  0.4823  0.4157  0.2511
 4401SOL    HW113819   1.500   3.510   5.407 -2.4881 -0.0015 -0.7406
 4401SOL    HW213820   1.485   3.660   5.421  2.0809  0.4785  0.8291
 4402SOL     OW13821   2.299   6.908   4.072 -0.6886 -0.2099 -0.0611
 4402SOL    HW113822   2.278   6.852   4.146 -0.3729 -0.7442 -0.3739
 4402SOL    HW213823   2.217   6.954   4.052 -0.0798  2.3497  2.6035
 4403SOL     OW13824   3.979   5.131   1.384 -0.7075  0.3343  0.1353
 4403SOL    HW113825   4.044   5.088   1.440 -0.5472  1.0780  0.5288
 4403SOL    HW213826   3.990   5.090   1.298 -0.1987 -0.0395  0.3756
 4404SOL     OW13827   6.016   4.096   5.946 -0.0954  0.3392 -0.5870
 4404SOL    HW113828   6.089   4.159   5.945  0.9490 -0.8101  0.3329
 4404SOL    HW213829   5.965   4.120   6.023  0.6847 -0.3338  0.1563
 4405SOL     OW13830   0.597   2.225   3.957 -0.4311 -0.0243  0.1715
 4405SOL    HW113831   0.672   2.183   3.998 -1.0864 -0.8222  0.5863
 4405SOL    HW213832   0.521   2.177   3.992 -1.0600 -0.0394 -1.1730
 4406SOL     OW13833   4.318   2.875   5.345 -0.1365 -0.2879 -0.1971
 4406SOL    HW113834   4.397   2.882   5.400  0.6115 -0.1593 -1.2466
 4406SOL    HW213835   4.277   2.794   5.372 -0.8543  0.7190  1.9017
 4407SOL     OW13836   4.970   6.151   1.899  0.8685  0.2679 -0.4049
 4407SOL    HW113837   4.965   6.101   1.980 -2.5719  0.5806 -0.2939
 4407SOL    HW213838   5.018   6.231   1.922  2.5098 -0.9088  0.4985
 4408SOL     OW13839   5.508   6.662   2.069  0.0862 -0.0418  0.1955
 4408SOL    HW113840   5.554   6.589   2.028 -0.3589  0.2505 -0.8572
 4408SOL    HW213841   5.418   6.653   2.040  0.1612  1.3236 -0.5330
 4409SOL     OW13842   2.336   2.707   1.525  0.0694  0.1620 -0.1299
 4409SOL    HW113843   2.246   2.682   1.544  0.0459  0.1213 -0.3013
 4409SOL    HW213844   2.335   2.803   1.530 -0.1011  0.1912 -0.6647
 4410SOL     OW13845   6.490   3.804   1.176  0.5540  0.0434  0.3886
 4410SOL    HW113846   6.493   3.737   1.245  1.7094  0.3021  0.6042
 4410SOL    HW213847   6.489   3.887   1.223 -3.1423  0.2686  0.2138
 4411SOL     OW13848   1.492   4.712   4.879 -0.1928  0.0783  0.0190
 4411SOL    HW113849   1.585   4.696   4.892 -0.1203 -0.9235 -1.5242
 4411SOL    HW213850   1.485   4.806   4.866  0.7353  0.0665 -0.6737
 4412SOL     OW13851   5.257   2.671   2.036  0.1250 -0.0611  0.4452
 4412SOL    HW113852   5.271   2.661   2.130  0.0341  0.1869  0.4845
 4412SOL    HW213853   5.304   2.751   2.012 -1.4300  0.9516  0.6344
 4413SOL     OW13854   5.361   3.595   1.307 -0.3025  0.6163  0.6774
 4413SOL    HW113855   5.389   3.505   1.293 -1.0582  0.3610  0.7550
 4413SOL    HW213856   5.378   3.639   1.223 -2.5189 -0.3000 -0.3219
 4414SOL     OW13857   5.140   4.941   2.229  0.5735 -0.4110  0.2594
 4414SOL    HW113858   5.091   4.862   2.206 -0.5430  0.5736 -0.8080
 4414SOL    HW213859   5.178   4.921   2.315  0.3553 -2.1198 -0.0081
 4415SOL     OW13860   6.476   6.395   5.540 -0.0678  0.3492  0.2939
 4415SOL    HW113861   6.567   6.377   5.519 -0.0291  0.5369  0.2955
 4415SOL    HW213862   6.479   6.478   5.589  0.0669 -1.1487  2.9896
 4416SOL     OW13863   3.289   1.401   5.180 -0.2054 -0.1669 -0.2076
 4416SOL    HW113864   3.368   1.370   5.224  0.8332  1.8816 -0.4734
 4416SOL    HW213865   3.321   1.446   5.102 -1.6715  0.3649 -0.5425
 4417SOL     OW13866   3.478   6.190   3.488 -0.2619 -0.3029  0.0332
 4417SOL    HW113867   3.511   6.201   3.399  0.2509 -2.0743 -0.0343
 4417SOL    HW213868   3.553   6.210   3.544 -1.3089  3.6532  0.2861
 4418SOL     OW13869   5.150   6.279   4.020 -0.4282  0.2056 -0.1738
 4418SOL    HW113870   5.184   6.288   3.931 -1.1994 -0.4621 -0.5508
 4418SOL    HW213871   5.107   6.363   4.038 -1.8952 -0.2832 -1.1668
 4419SOL     OW13872   0.405   6.045   7.152  0.3222 -0.3633  0.1409
 4419SOL    HW113873   0.358   5.967   7.125  0.8789 -0.6559 -0.0081
 4419SOL    HW213874   0.494   6.015   7.171  0.5691  0.2432 -0.0045
 4420SOL     OW13875   0.090   2.209   5.786 -0.6283  0.0331  0.9757
 4420SOL    HW113876   0.075   2.115   5.776  0.9009 -0.1122 -0.5746
 4420SOL    HW213877   0.034   2.249   5.720  1.2660 -0.1191 -0.8641
 4421SOL     OW13878   6.067   4.034   5.626  0.1733 -0.1273 -0.0507
 4421SOL    HW113879   6.141   4.071   5.675 -0.0944 -0.1785  0.4011
 4421SOL    HW213880   6.107   3.996   5.547  0.4555  1.0517 -0.4875
 4422SOL     OW13881   0.340   3.114   1.101 -0.0453  0.0486 -0.3461
 4422SOL    HW113882   0.391   3.192   1.078 -0.1416  0.2004 -0.0555
 4422SOL    HW213883   0.393   3.069   1.167 -0.8422  0.8592  0.8786
 4423SOL     OW13884   4.313   5.118   4.071 -0.1442  0.0314 -0.1964
 4423SOL    HW113885   4.357   5.157   3.996 -0.9582  3.3089  0.8508
 4423SOL    HW213886   4.367   5.141   4.146 -1.9986  1.5102  0.7659
 4424SOL     OW13887   3.595   7.173   6.014 -0.0821  0.4254  0.2819
 4424SOL    HW113888   3.580   7.266   6.030 -3.1686  0.3417 -1.2359
 4424SOL    HW213889   3.628   7.170   5.924 -0.8734  0.0520 -0.0050
 4425SOL     OW13890   4.461   1.839   2.842  0.1360 -0.2503 -0.2070
 4425SOL    HW113891   4.430   1.886   2.764  0.6729  1.4914  0.5821
 4425SOL    HW213892   4.386   1.842   2.902  0.9601  1.9009  0.8056
 4426SOL     OW13893   5.193   5.638   5.690 -0.0725 -0.0543 -0.5212
 4426SOL    HW113894   5.235   5.702   5.632  0.8708  0.5848  0.8029
 4426SOL    HW213895   5.100   5.643   5.668 -0.3080  3.0685  0.6695
 4427SOL     OW13896   0.121   7.238   2.280 -0.8476  0.0163  0.5444
 4427SOL    HW113897   0.144   7.308   2.219  1.2579 -1.4180 -0.4572
 4427SOL    HW213898   0.169   7.259   2.360 -1.7489  0.6876  0.9194
 4428SOL     OW13899   4.870   2.381   4.697 -0.0663  0.1744  0.4581
 4428SOL    HW113900   4.791   2.414   4.742  0.8477  1.4489  1.2120
 4428SOL    HW213901   4.917   2.460   4.672  0.7167 -0.5710 -0.4856
 4429SOL     OW13902   5.467   1.562   4.866 -0.3081  0.5000  0.0540
 4429SOL    HW113903   5.492   1.551   4.958  0.7856  0.7423 -0.1987
 4429SOL    HW213904   5.543   1.603   4.825 -0.1013 -1.1450 -1.3235
 4430SOL     OW13905   5.652   5.007   5.343  0.4450 -0.1027 -0.2368
 4430SOL    HW113906   5.556   5.001   5.339  0.4344  0.0358 -0.1900
 4430SOL    HW213907   5.676   4.955   5.420  0.3630  0.3242  0.0845
 4431SOL     OW13908   5.250   3.330   5.833 -0.2400  0.8066  0.3969
 4431SOL    HW113909   5.267   3.398   5.898  0.0075  2.0018 -0.8841
 4431SOL    HW213910   5.180   3.365   5.778  1.2073  0.9135 -1.4784
 4432SOL     OW13911   2.458   4.043   4.363 -0.1763 -0.0392  0.0974
 4432SOL    HW113912   2.487   4.081   4.280  0.0874  0.1349  0.2683
 4432SOL    HW213913   2.363   4.054   4.362 -0.4794 -2.0905 -1.2102
 4433SOL     OW13914   6.734   6.721   6.241 -0.5841 -0.0304  0.0973
 4433SOL    HW113915   6.811   6.770   6.268 -0.3250 -0.0405 -0.6190
 4433SOL    HW213916   6.740   6.638   6.289 -1.0991  0.6767  1.4165
 4434SOL     OW13917   4.340   0.474   5.568  0.2472 -0.2871  0.0956
 4434SOL    HW113918   4.281   0.450   5.496 -0.2185 -0.8834  0.6665
 4434SOL    HW213919   4.337   0.569   5.570 -0.6633 -0.3036  0.0820
 4435SOL     OW13920   6.283   6.419   4.916 -0.2397 -0.0928  0.2455
 4435SOL    HW113921   6.328   6.394   4.996 -0.0123 -1.6871 -0.3498
 4435SOL    HW213922   6.194   6.387   4.927  0.0826 -1.3457 -0.5654
 4436SOL     OW13923   7.060   6.423   3.723 -0.0153  0.4594  0.6197
 4436SOL    HW113924   7.130   6.474   3.682 -0.2945 -0.6172 -1.3230
 4436SOL    HW213925   7.064   6.446   3.816  0.5728  3.1332  0.0007
 4437SOL     OW13926   6.652   3.709   3.549 -0.1697  0.5368  0.0723
 4437SOL    HW113927   6.573   3.665   3.581 -0.3383  0.5288 -0.3417
 4437SOL    HW213928   6.631   3.732   3.458  0.9133 -0.9862 -0.6006
 4438SOL     OW13929   6.505   0.972   4.880 -0.0808  0.2527  0.0551
 4438SOL    HW113930   6.539   0.968   4.790  0.2110  1.6839  0.0860
 4438SOL    HW213931   6.535   0.890   4.920 -1.4115 -1.0910 -1.5336
 4439SOL     OW13932   2.058   6.215   1.699  0.3202 -0.3206 -0.3155
 4439SOL    HW113933   2.009   6.241   1.777 -0.4463  1.4335 -1.3404
 4439SOL    HW213934   2.034   6.279   1.632  2.1408 -0.8599 -1.5679
 4440SOL     OW13935   1.457   1.541   4.660 -0.4946 -0.2320 -0.0766
 4440SOL    HW113936   1.501   1.492   4.729 -0.4208  1.5921  1.2449
 4440SOL    HW213937   1.407   1.608   4.706  1.2073  2.4126 -1.7990
 4441SOL     OW13938   5.387   5.211   4.718  0.1730 -0.1699  0.5476
 4441SOL    HW113939   5.304   5.185   4.679  0.2254 -1.6414  1.3803
 4441SOL    HW213940   5.434   5.253   4.646 -0.4397 -1.2453 -0.5154
 4442SOL     OW13941   3.399   6.284   5.100  0.0361 -0.0414 -0.5107
 4442SOL    HW113942   3.376   6.322   5.185 -0.8432 -3.2012  0.8417
 4442SOL    HW213943   3.388   6.356   5.038  0.7570  2.4380  2.0067
 4443SOL     OW13944   1.484   3.337   1.310  0.5753 -0.1584 -0.4968
 4443SOL    HW113945   1.529   3.405   1.260  0.7314 -0.8465 -1.3115
 4443SOL    HW213946   1.446   3.280   1.244  1.5041 -1.5786  0.1503
 4444SOL     OW13947   1.510   4.506   2.573 -0.3021 -0.0085  0.1788
 4444SOL    HW113948   1.474   4.524   2.660 -3.0444 -1.4386 -0.5333
 4444SOL    HW213949   1.548   4.419   2.580 -2.0000 -0.8424 -0.3715
 4445SOL     OW13950   6.558   6.431   1.052 -0.4284 -0.4851 -0.2346
 4445SOL    HW113951   6.518   6.436   0.965  1.0469 -0.7414 -0.9661
 4445SOL    HW213952   6.503   6.486   1.108 -1.1913 -0.0226 -1.4168
 4446SOL     OW13953   0.665   1.648   2.381  0.4542 -0.4424 -0.0260
 4446SOL    HW113954   0.621   1.722   2.341 -0.0994 -0.7348  0.0372
 4446SOL    HW213955   0.710   1.605   2.309  0.9976  0.0971 -0.0219
 4447SOL     OW13956   2.186   0.350   3.930  0.4905 -0.0313 -0.7314
 4447SOL    HW113957   2.195   0.260   3.963  1.6184  0.7249  1.1529
 4447SOL    HW213958   2.115   0.344   3.865  0.1467 -2.1591 -0.2467
 4448SOL     OW13959   6.426   6.415   0.814  0.1843 -0.7780 -0.3866
 4448SOL    HW113960   6.353   6.469   0.783 -1.1743 -2.7093 -0.7575
 4448SOL    HW213961   6.499   6.437   0.756 -0.9079 -0.7514 -1.8232
 4449SOL     OW13962   1.336   4.893   3.812 -0.1605 -0.3371 -0.5082
 4449SOL    HW113963   1.243   4.915   3.809  0.0474  0.5697 -0.6021
 4449SOL    HW213964   1.367   4.931   3.895  0.0785 -0.8594 -0.3500
 4450SOL     OW13965   6.923   3.499   6.291 -0.5079 -0.5171  0.0300
 4450SOL    HW113966   6.892   3.574   6.342 -2.6281 -1.6803  0.5995
 4450SOL    HW213967   6.990   3.535   6.233  1.6349  1.0162  3.1689
 4451SOL     OW13968   1.693   0.475   6.783  0.1506  0.7044 -0.3878
 4451SOL    HW113969   1.670   0.431   6.701 -1.3050 -0.4272  0.5639
 4451SOL    HW213970   1.673   0.410   6.851 -2.2164  2.8368  1.1067
 4452SOL     OW13971   1.046   0.966   5.903  0.1921  0.1212 -0.1831
 4452SOL    HW113972   1.125   0.952   5.955  0.7702  0.9863 -0.7976
 4452SOL    HW213973   1.030   1.061   5.907 -0.6551 -0.0035 -0.2946
 4453SOL     OW13974   6.351   3.141   0.333  0.0867  0.4273 -0.2907
 4453SOL    HW113975   6.280   3.078   0.329  0.1904  0.2146  0.9079
 4453SOL    HW213976   6.360   3.173   0.243 -3.1687  2.3257 -0.0931
 4454SOL     OW13977   0.549   4.125   0.139  0.2386 -0.3648  0.1135
 4454SOL    HW113978   0.599   4.043   0.137 -1.0076 -1.1511  0.3045
 4454SOL    HW213979   0.496   4.119   0.219  0.4503  0.8312  0.3604
 4455SOL     OW13980   1.481   0.588   3.767 -0.1932 -0.3343  0.5784
 4455SOL    HW113981   1.391   0.570   3.792 -0.1345 -1.0403  0.3090
 4455SOL    HW213982   1.475   0.620   3.677 -0.4407  2.5759  1.5298
 4456SOL     OW13983   4.748   0.065   3.839 -0.7054  0.2044 -0.4019
 4456SOL    HW113984   4.799   0.142   3.862  1.2049 -1.0116 -0.3845
 4456SOL    HW213985   4.787  -0.006   3.889 -2.9189 -0.6837  0.1765
 4457SOL     OW13986   3.060   5.179   6.663 -0.0938  0.3962 -0.3367
 4457SOL    HW113987   2.990   5.146   6.607 -1.5119  1.8995  0.4278
 4457SOL    HW213988   3.091   5.102   6.710 -1.3213 -0.3171 -0.6318
 4458SOL     OW13989   1.707   6.731   1.374 -0.1514 -0.0393 -0.1937
 4458SOL    HW113990   1.631   6.781   1.403  0.4909 -0.7859  3.1329
 4458SOL    HW213991   1.678   6.640   1.376  0.0974 -0.1614 -1.4920
 4459SOL     OW13992   2.414   0.910   1.434  0.7675  0.3430 -0.2348
 4459SOL    HW113993   2.381   0.927   1.522 -0.0720 -1.6103 -0.1250
 4459SOL    HW213994   2.337   0.919   1.377  0.6439 -1.2084 -0.3663
 4460SOL     OW13995   0.908   2.708   1.990 -0.3674 -0.0815 -0.6027
 4460SOL    HW113996   0.961   2.634   2.020  0.1496 -0.0912 -1.4936
 4460SOL    HW213997   0.971   2.765   1.945 -0.9340  0.4344 -0.7530
 4461SOL     OW13998   5.709   2.449   6.904 -0.3675 -0.3072  0.1831
 4461SOL    HW113999   5.791   2.499   6.910 -0.6961  0.3144 -0.4664
 4461SOL    HW214000   5.679   2.463   6.814 -0.2544 -2.0182 -0.1571
 4462SOL     OW14001   4.418   6.917   5.523 -0.2870 -0.0956 -0.1121
 4462SOL    HW114002   4.365   6.840   5.503  2.7364 -3.0240  1.9771
 4462SOL    HW214003   4.459   6.941   5.440 -1.4881 -0.5239 -0.8487
 4463SOL     OW14004   1.611   0.398   3.942 -0.4595 -0.2853 -0.3029
 4463SOL    HW114005   1.580   0.450   3.868  0.9953  2.1837  0.6959
 4463SOL    HW214006   1.551   0.419   4.013  0.1831  0.1358  0.1290
 4464SOL     OW14007   5.731   5.152   1.853  0.0578  0.3041  0.2485
 4464SOL    HW114008   5.801   5.206   1.817 -0.3825  0.6067 -0.1673
 4464SOL    HW214009   5.694   5.107   1.777 -0.0763 -0.0006  0.4916
 4465SOL     OW14010   2.569   6.493   1.975  0.3665  0.5469  0.1127
 4465SOL    HW114011   2.494   6.461   2.025 -0.1685  1.5508 -0.0320
 4465SOL    HW214012   2.638   6.428   1.992  0.0976  0.6644  1.8778
 4466SOL     OW14013   3.407   2.179   4.877  0.2773  0.3902 -0.0363
 4466SOL    HW114014   3.369   2.109   4.930  0.5417  0.4693  0.2622
 4466SOL    HW214015   3.436   2.244   4.941  1.9884 -0.1980 -0.1669
 4467SOL     OW14016   6.868   5.087   3.528 -0.3841 -0.4242 -0.0453
 4467SOL    HW114017   6.814   5.027   3.477 -2.8718  1.3438  0.3565
 4467SOL    HW214018   6.898   5.152   3.465 -2.5659  1.1504  0.4558
 4468SOL     OW14019   0.088   1.939   4.371  0.3852 -0.3458  0.0701
 4468SOL    HW114020   0.031   1.896   4.307 -0.4883  1.0297 -0.1139
 4468SOL    HW214021   0.031   1.999   4.418  1.3912 -0.0169  0.9097
 4469SOL     OW14022   7.253   4.286   5.263 -0.3280  0.6555 -0.0123
 4469SOL    HW114023   7.171   4.255   5.225  0.8509 -1.2065 -1.2200
 4469SOL    HW214024   7.321   4.237   5.216  1.4043  0.8385  2.1630
 4470SOL     OW14025   1.007   4.638   3.204  0.0774 -0.7502 -0.3023
 4470SOL    HW114026   1.014   4.729   3.175  0.9446 -1.3134 -1.9757
 4470SOL    HW214027   1.069   4.631   3.277 -1.7645  0.5695  1.4871
 4471SOL     OW14028   1.615   1.597   5.683  0.2982  0.2063 -0.2729
 4471SOL    HW114029   1.698   1.620   5.642 -0.5327  2.4709 -0.8225
 4471SOL    HW214030   1.557   1.577   5.610 -0.1679  0.5516 -0.0022
 4472SOL     OW14031   3.570   1.385   4.363  0.0709  0.4559 -0.4112
 4472SOL    HW114032   3.659   1.353   4.373 -0.5027 -0.9584  0.5296
 4472SOL    HW214033   3.515   1.317   4.402 -1.4738  0.9614 -1.5757
 4473SOL     OW14034   0.690   4.807   6.209 -0.0475 -0.2679 -0.4903
 4473SOL    HW114035   0.710   4.846   6.294  0.9106 -0.8296 -0.4401
 4473SOL    HW214036   0.620   4.744   6.227  0.1311 -0.3643 -0.1104
 4474SOL     OW14037   2.341   5.169   4.843  0.0577  0.7481  0.3631
 4474SOL    HW114038   2.379   5.248   4.805 -1.4403  0.2202 -2.5579
 4474SOL    HW214039   2.388   5.097   4.801 -0.5007  0.1012  0.8214
 4475SOL     OW14040   7.177   2.369   5.632 -0.3322  0.3163  0.1539
 4475SOL    HW114041   7.211   2.425   5.562 -0.6927 -0.7997 -0.9473
 4475SOL    HW214042   7.093   2.337   5.599  0.0770 -1.2387  0.5208
 4476SOL     OW14043   2.748   6.022   1.165  0.0388 -0.7561 -0.0032
 4476SOL    HW114044   2.791   5.940   1.139  1.1380 -0.1843 -0.0386
 4476SOL    HW214045   2.756   6.079   1.088  0.9217  0.0143  0.6419
 4477SOL     OW14046   1.952   4.894   7.152 -0.2372 -0.0141  0.0517
 4477SOL    HW114047   1.931   4.982   7.120 -1.3151 -0.0091  0.7358
 4477SOL    HW214048   1.917   4.891   7.241 -0.1847 -1.1252  0.0541
 4478SOL     OW14049   5.801   6.716   0.056  0.4174  0.0127 -0.3268
 4478SOL    HW114050   5.753   6.702   0.138  0.1352 -1.0270 -0.6562
 4478SOL    HW214051   5.840   6.631   0.037  2.5659  0.8817  0.0096
 4479SOL     OW14052   0.224   5.774   4.462  0.0133  0.6374 -0.1852
 4479SOL    HW114053   0.176   5.761   4.380  1.2223  0.9610 -0.9680
 4479SOL    HW214054   0.246   5.685   4.490 -2.2733  0.3703  0.9883
 4480SOL     OW14055   3.279   4.090   5.825 -0.6081 -0.5019 -0.2042
 4480SOL    HW114056   3.311   4.154   5.888 -1.0457 -2.1300  1.7992
 4480SOL    HW214057   3.346   4.088   5.756 -1.2202  2.9769 -1.0880
 4481SOL     OW14058   4.741   3.788   5.557 -0.0042  0.2498  0.6364
 4481SOL    HW114059   4.680   3.717   5.578  1.0571 -1.1929 -0.9013
 4481SOL    HW214060   4.818   3.770   5.611  0.1259  0.4404  0.5167
 4482SOL     OW14061   3.149   5.188   6.259  0.0798 -0.5631  0.9186
 4482SOL    HW114062   3.157   5.252   6.330  1.0994 -0.7278  0.9647
 4482SOL    HW214063   3.206   5.222   6.190 -0.6809 -0.5564  0.2801
 4483SOL     OW14064   3.486   6.598   3.604  0.3210 -0.2442  0.0596
 4483SOL    HW114065   3.407   6.548   3.622 -0.1318  0.8473  1.2841
 4483SOL    HW214066   3.495   6.596   3.509 -2.1003  0.9023 -0.2786
 4484SOL     OW14067   3.180   4.510   0.867 -0.0316  0.0262  0.1573
 4484SOL    HW114068   3.216   4.422   0.862  0.7669  0.3260  0.5511
 4484SOL    HW214069   3.092   4.498   0.903 -0.2504 -0.6862 -0.5930
 4485SOL     OW14070   3.781   6.941   7.196  0.2154  0.1774  0.5289
 4485SOL    HW114071   3.778   6.882   7.121 -0.3043  2.0320 -0.9803
 4485SOL    HW214072   3.851   6.906   7.252  1.4173 -0.5965 -1.3719
 4486SOL     OW14073   7.067   3.356   6.453 -0.5135 -0.4196 -0.7261
 4486SOL    HW114074   7.013   3.346   6.531 -0.0534  2.7702  0.1557
 4486SOL    HW214075   7.014   3.410   6.394  0.6396  0.5204 -0.9461
 4487SOL     OW14076   3.955   0.397   1.935 -0.2220  0.2503  0.6240
 4487SOL    HW114077   4.038   0.442   1.921  0.8520 -2.1472 -1.6378
 4487SOL    HW214078   3.900   0.425   1.861  0.0284 -1.0714 -0.1078
 4488SOL     OW14079   2.086   5.256   3.225  0.2549 -0.2450  0.4959
 4488SOL    HW114080   2.121   5.175   3.189  1.6949  1.3954 -2.1035
 4488SOL    HW214081   2.164   5.309   3.245 -0.6200  1.6994 -0.9331
 4489SOL     OW14082   2.730   3.379   3.948  0.5963  0.0701  0.0956
 4489SOL    HW114083   2.740   3.285   3.933 -0.9909 -0.2994  1.1377
 4489SOL    HW214084   2.713   3.416   3.861  2.0662 -0.4607 -0.4447
 4490SOL     OW14085   5.170   5.297   5.537  0.7199 -0.7770 -0.5847
 4490SOL    HW114086   5.169   5.216   5.589 -1.9151  0.1076  0.8989
 4490SOL    HW214087   5.237   5.351   5.578 -2.3603  0.5541  3.2059
 4491SOL     OW14088   0.072   7.034   3.494 -0.2940  0.8256 -0.5070
 4491SOL    HW114089   0.123   6.978   3.436 -1.2511  0.9702 -1.5430
 4491SOL    HW214090   0.137   7.087   3.540  0.5393  0.0036 -0.7055
 4492SOL     OW14091   5.066   5.641   3.199  0.5432 -0.0348  0.1464
 4492SOL    HW114092   4.972   5.654   3.189  0.5372 -1.6186 -3.1968
 4492SOL    HW214093   5.081   5.551   3.171  3.0859  0.2063  0.4673
 4493SOL     OW14094   1.039   4.227   3.731  0.4307 -0.3076  0.3705
 4493SOL    HW114095   1.091   4.302   3.702 -0.5930 -0.4214 -1.9964
 4493SOL    HW214096   1.008   4.186   3.650 -0.6273 -2.1685  1.6306
 4494SOL     OW14097   4.861   2.644   6.078  0.2039  0.2688 -0.1190
 4494SOL    HW114098   4.882   2.721   6.024  0.7204  0.7211  0.7131
 4494SOL    HW214099   4.784   2.671   6.128 -0.2487 -0.1382 -0.5779
 4495SOL     OW14100   3.183   4.615   3.758 -0.3848 -0.2101  0.3844
 4495SOL    HW114101   3.232   4.540   3.793  1.2796  0.8350  0.4093
 4495SOL    HW214102   3.213   4.625   3.668 -2.7348 -1.2760 -0.6155
 4496SOL     OW14103   2.673   6.725   1.891 -0.5109 -0.3606  0.4038
 4496SOL    HW114104   2.642   6.639   1.918 -3.7043  0.2540 -0.8905
 4496SOL    HW214105   2.670   6.778   1.971 -0.9402 -0.8289  0.7039
 4497SOL     OW14106   5.185   5.921   5.579  0.2874  0.0692  0.1913
 4497SOL    HW114107   5.252   5.939   5.514  0.4664  1.4417  0.7245
 4497SOL    HW214108   5.111   5.975   5.553 -0.0804 -0.3030  0.4499
 4498SOL     OW14109   0.393   4.245   2.186 -0.1398 -0.4362  0.6248
 4498SOL    HW114110   0.394   4.341   2.184  0.5753 -0.4497 -0.5896
 4498SOL    HW214111   0.385   4.223   2.279 -0.1900  0.7996  0.9297
 4499SOL     OW14112   2.471   3.400   4.500  0.0822 -0.0121 -0.1248
 4499SOL    HW114113   2.564   3.404   4.477 -0.3039 -1.9185 -2.3748
 4499SOL    HW214114   2.427   3.385   4.417 -2.1073 -0.7574  1.1132
 4500SOL     OW14115   0.579   7.239   1.658 -0.2833 -0.0899  0.4332
 4500SOL    HW114116   0.663   7.240   1.611 -0.8383 -1.1809 -0.6659
 4500SOL    HW214117   0.543   7.326   1.646  0.3021  0.1171  0.1600
 4501SOL     OW14118   0.899   6.977   5.100 -0.2940 -0.0614  0.0580
 4501SOL    HW114119   0.954   6.952   5.025  0.4324 -0.7832  0.8160
 4501SOL    HW214120   0.854   7.056   5.071  0.2858 -0.0974 -0.9988
 4502SOL     OW14121   2.478   4.959   3.638  0.1333  0.6775  0.0445
 4502SOL    HW114122   2.572   4.963   3.654 -0.0132  1.1755  0.8468
 4502SOL    HW214123   2.441   5.027   3.695 -0.8433 -0.4938  0.8569
 4503SOL     OW14124   6.498   0.322   6.430 -0.7559  0.0779 -0.4429
 4503SOL    HW114125   6.458   0.242   6.396 -0.9249  0.2805 -0.7256
 4503SOL    HW214126   6.540   0.295   6.512 -0.4020 -0.3979 -0.7787
 4504SOL     OW14127   6.804   1.540   1.060  0.5036 -0.0671 -0.1442
 4504SOL    HW114128   6.872   1.523   1.125  0.2120  0.6436  0.3584
 4504SOL    HW214129   6.837   1.616   1.011  0.7032 -0.5743 -0.8002
 4505SOL     OW14130   1.963   0.913   5.965 -0.1801  0.0279  0.1371
 4505SOL    HW114131   1.972   0.868   5.881  0.5224  0.6411 -0.1228
 4505SOL    HW214132   1.896   0.979   5.950 -1.6677 -1.2694  0.6878
 4506SOL     OW14133   5.521   4.202   1.853 -0.2466 -0.7394 -0.2035
 4506SOL    HW114134   5.616   4.186   1.847 -0.2136 -0.3390 -0.8933
 4506SOL    HW214135   5.514   4.283   1.903 -0.2817 -1.3339  0.7767
 4507SOL     OW14136   3.946   0.161   2.729 -0.3925  0.0491  0.0982
 4507SOL    HW114137   3.953   0.230   2.795 -0.1079 -1.0854  1.2931
 4507SOL    HW214138   3.861   0.176   2.688 -0.8537  0.3947  1.1563
 4508SOL     OW14139   1.937   6.806   5.998  0.1936 -0.0301 -0.0007
 4508SOL    HW114140   1.872   6.849   5.943  1.3837 -0.5747 -1.9426
 4508SOL    HW214141   1.920   6.712   5.986  0.1119 -0.1637  1.0528
 4509SOL     OW14142   6.979   3.268   4.490  0.2320  0.1383 -0.6426
 4509SOL    HW114143   6.887   3.254   4.515  0.7214 -1.0358  0.6321
 4509SOL    HW214144   7.023   3.186   4.513  1.6219  0.6902 -1.2150
 4510SOL     OW14145   5.746   7.149   6.752  0.1553  0.4851 -0.0256
 4510SOL    HW114146   5.681   7.183   6.691  0.9334  1.2382 -0.4727
 4510SOL    HW214147   5.826   7.197   6.730  1.0283 -0.8501  0.0791
 4511SOL     OW14148   1.577   7.212   5.383 -0.0862 -0.0405 -0.0921
 4511SOL    HW114149   1.487   7.222   5.414  0.8043  0.6504  2.5476
 4511SOL    HW214150   1.579   7.256   5.298 -1.8118  1.7402  0.7098
 4512SOL     OW14151   4.271   5.538   0.325 -0.0279  0.0552 -0.0181
 4512SOL    HW114152   4.291   5.568   0.237  0.4788 -0.4218 -0.0702
 4512SOL    HW214153   4.338   5.472   0.344  1.5624  2.0571  1.7608
 4513SOL     OW14154   7.000   4.349   6.630  0.2505  0.0448  0.0393
 4513SOL    HW114155   6.919   4.324   6.675  0.7111 -0.2656  0.6968
 4513SOL    HW214156   7.070   4.317   6.686  0.8442  1.0116 -0.1375
 4514SOL     OW14157   6.637   4.305   2.093 -0.1223 -0.0207 -0.6922
 4514SOL    HW114158   6.720   4.260   2.078 -0.1520 -0.5841  0.6396
 4514SOL    HW214159   6.598   4.315   2.007  0.2430 -1.8868 -1.0990
 4515SOL     OW14160   4.845   7.153   4.638 -0.0096 -0.1733  0.1066
 4515SOL    HW114161   4.902   7.220   4.601 -1.5323  1.4309  0.5104
 4515SOL    HW214162   4.785   7.130   4.567 -1.3655  1.1116  0.7749
 4516SOL     OW14163   2.972   7.084   4.542  0.0543  0.3691 -0.5074
 4516SOL    HW114164   2.892   7.135   4.554  0.0747  0.3195 -0.1547
 4516SOL    HW214165   2.976   7.068   4.448 -0.4672  0.1827 -0.5030
 4517SOL     OW14166   6.781   1.696   1.363 -0.7920 -0.6968 -0.3681
 4517SOL    HW114167   6.841   1.646   1.307  0.0060  0.5758 -0.7120
 4517SOL    HW214168   6.748   1.766   1.306 -1.3176 -0.4028  0.2804
 4518SOL     OW14169   5.674   4.968   5.896  0.2100  0.0641  0.5885
 4518SOL    HW114170   5.670   4.934   5.986  0.1245 -2.0220 -0.1383
 4518SOL    HW214171   5.672   5.063   5.906 -0.6500 -0.1193  2.7502
 4519SOL     OW14172   6.146   3.209   5.152  0.0748 -0.5802 -0.2044
 4519SOL    HW114173   6.054   3.197   5.131  0.0125 -2.8054  0.9488
 4519SOL    HW214174   6.162   3.303   5.142 -2.3507 -0.1162 -0.2548
 4520SOL     OW14175   5.130   2.777   2.982 -0.1378  0.2922  0.4045
 4520SOL    HW114176   5.120   2.781   2.887 -1.5550 -0.6557  0.4735
 4520SOL    HW214177   5.168   2.862   3.006  1.3846  0.0865 -1.0995
 4521SOL     OW14178   0.016   6.075   4.496  0.2843 -0.5159 -0.5081
 4521SOL    HW114179  -0.018   6.066   4.407 -0.0509 -0.6398 -0.3738
 4521SOL    HW214180  -0.057   6.046   4.552  1.0068 -1.9491 -0.2431
 4522SOL     OW14181   7.060   6.579   0.135 -0.4611 -0.3285 -0.0252
 4522SOL    HW114182   7.093   6.543   0.217 -0.6159 -0.1148  0.1328
 4522SOL    HW214183   7.014   6.659   0.161 -2.0193 -1.1479 -0.1031
 4523SOL     OW14184   4.901   0.735   2.343  0.2870 -0.2970  0.4407
 4523SOL    HW114185   4.908   0.708   2.435  0.1962  1.5162  1.0024
 4523SOL    HW214186   4.831   0.800   2.342  1.9254  1.5511 -0.4408
 4524SOL     OW14187   5.539   2.879   3.231 -0.5056 -0.0395  0.1577
 4524SOL    HW114188   5.510   2.896   3.141  2.4235 -1.6851 -1.2454
 4524SOL    HW214189   5.458   2.866   3.280 -2.2100  0.4594 -2.3191
 4525SOL     OW14190   7.185   0.873   3.105  0.0833  0.2882 -0.0027
 4525SOL    HW114191   7.191   0.856   3.199 -1.3776 -0.2932  0.0210
 4525SOL    HW214192   7.273   0.899   3.079  0.2852  1.5057  1.7252
 4526SOL     OW14193   2.463   4.263   6.331 -0.1235  0.0234  0.3598
 4526SOL    HW114194   2.526   4.201   6.367  1.3951  0.5020 -1.3263
 4526SOL    HW214195   2.512   4.345   6.321 -0.9429  0.3792 -1.0960
 4527SOL     OW14196   5.476   4.049   5.052 -0.4804  0.1657  0.1560
 4527SOL    HW114197   5.487   3.999   4.972  0.8967  0.2448  0.2729
 4527SOL    HW214198   5.410   4.115   5.030 -1.1158 -0.6563 -0.4805
 4528SOL     OW14199   1.310   4.715   5.158  0.3103  0.4136  0.2636
 4528SOL    HW114200   1.241   4.696   5.094  0.0405  0.8075  0.4284
 4528SOL    HW214201   1.385   4.743   5.106 -0.6767  3.1953  0.1622
 4529SOL     OW14202   6.029   7.126   1.950 -0.0589  0.1339 -0.1665
 4529SOL    HW114203   5.992   7.119   1.862 -0.3036 -0.4374 -0.0282
 4529SOL    HW214204   6.021   7.218   1.973 -1.0523  0.0938 -0.2994
 4530SOL     OW14205   0.246   6.649   6.229 -0.0516 -0.0945 -0.2527
 4530SOL    HW114206   0.279   6.570   6.272  1.5050  0.2490 -0.7632
 4530SOL    HW214207   0.260   6.719   6.292  0.6368  0.1284 -0.6488
 4531SOL     OW14208   3.576   3.191   5.888  0.0064 -0.1419 -0.1277
 4531SOL    HW114209   3.580   3.107   5.934 -1.2141  0.0897  0.4608
 4531SOL    HW214210   3.628   3.178   5.809  0.7512 -1.0916  0.5006
 4532SOL     OW14211   2.093   5.002   4.711  0.1295 -0.3578  0.0851
 4532SOL    HW114212   2.053   4.997   4.798  0.6646  0.1018  0.3669
 4532SOL    HW214213   2.174   5.051   4.725  0.0386  0.0453 -0.7431
 4533SOL     OW14214   3.382   3.799   1.099  0.1589 -0.9267  0.3320
 4533SOL    HW114215   3.469   3.779   1.064  0.4812 -1.9747  1.6262
 4533SOL    HW214216   3.384   3.766   1.189 -0.9521  0.7681  1.0372
 4534SOL     OW14217   3.729   4.983   3.937 -0.0586  0.0636  0.7353
 4534SOL    HW114218   3.818   4.954   3.919  0.4536  0.3935  2.5011
 4534SOL    HW214219   3.696   4.920   4.001 -2.0733 -1.5625 -1.7286
 4535SOL     OW14220   6.689   6.309   3.637 -0.4045 -0.2986  0.0082
 4535SOL    HW114221   6.728   6.392   3.610 -0.0353 -0.6454 -0.5534
 4535SOL    HW214222   6.764   6.255   3.664 -0.5109 -0.8583 -0.7744
 4536SOL     OW14223   6.376   5.822   5.397 -0.5076 -0.1867 -0.0064
 4536SOL    HW114224   6.466   5.846   5.375 -0.3007 -1.3450 -0.4707
 4536SOL    HW214225   6.352   5.755   5.333 -1.7457  0.1735  0.0445
 4537SOL     OW14226   4.071   6.967   3.005  0.9676 -0.4050  0.4090
 4537SOL    HW114227   4.061   7.061   3.022  0.3170 -0.2054 -0.9748
 4537SOL    HW214228   4.150   6.961   2.952  0.4793 -0.5301 -0.3135
 4538SOL     OW14229   1.639   6.236   1.860  0.1115  0.1407  0.6246
 4538SOL    HW114230   1.557   6.235   1.909 -1.3764 -0.8496 -1.6907
 4538SOL    HW214231   1.619   6.189   1.779  2.9998 -0.1464 -0.0294
 4539SOL     OW14232   1.689   2.915   0.871 -0.2174  0.1656  0.0162
 4539SOL    HW114233   1.691   2.855   0.796 -0.8280  2.2385 -1.7551
 4539SOL    HW214234   1.598   2.944   0.877  0.3331  2.0659 -0.1655
 4540SOL     OW14235   6.378   1.449   1.918 -0.3931  0.0880 -0.1238
 4540SOL    HW114236   6.441   1.378   1.924  1.7262  1.8621 -0.1705
 4540SOL    HW214237   6.309   1.415   1.862  1.2033 -1.4654 -1.2582
 4541SOL     OW14238   4.855   6.263   6.039  0.0526 -0.3026  0.3453
 4541SOL    HW114239   4.807   6.222   6.111 -0.9541 -1.6099 -1.0083
 4541SOL    HW214240   4.789   6.313   5.992  0.1204 -1.5273 -1.1171
 4542SOL     OW14241   4.428   1.004   5.622  0.7618  0.2316 -0.3822
 4542SOL    HW114242   4.508   1.056   5.620  0.4452  0.7328  0.0162
 4542SOL    HW214243   4.388   1.022   5.707  0.1270  0.1299 -0.6493
 4543SOL     OW14244   3.807   5.295   3.293 -0.7174  0.2302  0.8227
 4543SOL    HW114245   3.805   5.309   3.387  1.2953 -0.1145  0.9626
 4543SOL    HW214246   3.791   5.201   3.282  1.4590 -0.2305  1.0583
 4544SOL     OW14247   5.721   2.843   1.536 -1.0015 -0.4549 -0.5922
 4544SOL    HW114248   5.773   2.809   1.463 -0.7522 -0.3496 -0.4674
 4544SOL    HW214249   5.746   2.787   1.610  0.4365  0.8174 -0.0548
 4545SOL     OW14250   0.557   6.957   0.052  0.3197  0.4772 -0.2634
 4545SOL    HW114251   0.617   7.024   0.018  1.1933  0.1329  0.5404
 4545SOL    HW214252   0.542   6.899  -0.022  2.4602 -0.4521 -0.0462
 4546SOL     OW14253   2.738   1.785   2.586  0.3963  0.2968 -0.2638
 4546SOL    HW114254   2.821   1.800   2.631  0.5610  1.5422 -0.9474
 4546SOL    HW214255   2.757   1.715   2.523  1.4423  1.7479 -1.6507
 4547SOL     OW14256   2.612   3.017   0.933 -0.2039 -0.3713 -0.2765
 4547SOL    HW114257   2.688   3.075   0.939 -0.0899 -0.3850 -1.3785
 4547SOL    HW214258   2.551   3.050   0.999  1.3055 -1.2369  1.6299
 4548SOL     OW14259   4.728   0.979   2.904 -0.0432  0.0499  0.0368
 4548SOL    HW114260   4.739   1.000   2.812 -0.9363 -0.8275 -0.2880
 4548SOL    HW214261   4.638   1.003   2.924 -0.2717 -1.0075  0.3230
 4549SOL     OW14262   2.720   5.476   1.596 -0.1768 -0.8753 -0.0483
 4549SOL    HW114263   2.629   5.502   1.582 -0.4568 -0.1943  2.4247
 4549SOL    HW214264   2.723   5.384   1.571 -2.2185 -1.6010  1.9881
 4550SOL     OW14265   4.743   2.197   1.266  0.6859  0.1173  0.3800
 4550SOL    HW114266   4.817   2.138   1.280  0.2553 -0.1223  1.7079
 4550SOL    HW214267   4.676   2.143   1.224  1.6575  0.6279 -1.9996
 4551SOL     OW14268   5.959   1.551   5.023  0.2028  0.0079 -0.4879
 4551SOL    HW114269   5.926   1.570   4.935  0.2047  0.6365 -0.3556
 4551SOL    HW214270   6.048   1.584   5.023  0.2819 -0.2041 -0.3216
 4552SOL     OW14271   2.707   3.846   4.327 -0.7690  0.5759 -0.2351
 4552SOL    HW114272   2.782   3.883   4.374 -1.2028  1.8265 -0.4696
 4552SOL    HW214273   2.645   3.919   4.321 -0.3139  0.8549 -3.6122
 4553SOL     OW14274   5.977   5.383   0.132  0.7565  0.5056 -0.0187
 4553SOL    HW114275   5.992   5.469   0.091  1.4369  1.0940  1.3912
 4553SOL    HW214276   5.892   5.355   0.097 -0.7285  2.9256  1.3472
 4554SOL     OW14277   1.796   3.662   0.974 -0.1407 -0.8534 -0.0776
 4554SOL    HW114278   1.856   3.621   0.911  0.2475  0.5113 -0.6570
 4554SOL    HW214279   1.761   3.738   0.926 -0.1228  0.0050  1.2218
 4555SOL     OW14280   0.752   6.353   6.528 -0.0986 -0.2023  0.4916
 4555SOL    HW114281   0.789   6.378   6.444 -0.1423 -0.9071  0.2543
 4555SOL    HW214282   0.822   6.369   6.591  0.3220 -0.7331  0.1622
 4556SOL     OW14283   3.882   0.557   0.486  0.1050 -0.3092 -0.1233
 4556SOL    HW114284   3.947   0.539   0.553  1.1230  0.5664 -0.8365
 4556SOL    HW214285   3.803   0.581   0.534  0.2408 -1.5672  0.7555
 4557SOL     OW14286   6.699   5.744   3.372  0.1386 -0.0112 -0.8403
 4557SOL    HW114287   6.691   5.811   3.439 -0.8649  0.2110 -1.1614
 4557SOL    HW214288   6.673   5.788   3.291 -1.4152 -0.9880 -0.9179
 4558SOL     OW14289   3.381   3.512   1.126 -0.9691 -0.2302 -0.0595
 4558SOL    HW114290   3.328   3.560   1.189 -0.3039  2.0712 -1.1439
 4558SOL    HW214291   3.364   3.555   1.042  2.2559  0.4046 -0.5174
 4559SOL     OW14292   1.130   5.132   2.965 -0.3229  0.5454  0.0971
 4559SOL    HW114293   1.174   5.195   3.022  0.3638 -0.3321  0.5691
 4559SOL    HW214294   1.200   5.071   2.939 -1.1789 -0.6929  0.5888
 4560SOL     OW14295   5.346   6.684   7.212 -0.1042  0.6104  0.1994
 4560SOL    HW114296   5.267   6.644   7.176 -0.6444  0.6352  1.3193
 4560SOL    HW214297   5.408   6.685   7.139 -1.5323  1.7104 -1.0751
 4561SOL     OW14298   6.222   1.636   5.030  0.5301  0.0318  0.1559
 4561SOL    HW114299   6.229   1.701   5.099  0.6635 -0.8581  1.0116
 4561SOL    HW214300   6.292   1.573   5.049 -1.2950 -1.8434  1.0086
 4562SOL     OW14301   0.707   0.893   3.752 -0.1580 -0.1214 -0.6289
 4562SOL    HW114302   0.738   0.806   3.777 -1.9404 -0.2815  1.3694
 4562SOL    HW214303   0.616   0.895   3.781 -0.2041  2.3859 -0.7071
 4563SOL     OW14304   5.737   0.842   0.920 -0.2473 -0.2959  0.0957
 4563SOL    HW114305   5.808   0.901   0.946 -0.3522  0.4788 -1.2777
 4563SOL    HW214306   5.729   0.781   0.993  1.3800  0.0071  0.5718
 4564SOL     OW14307   0.545   1.811   1.972 -0.4241  0.5494  0.0066
 4564SOL    HW114308   0.606   1.787   1.902 -0.1153 -1.2634  0.8486
 4564SOL    HW214309   0.459   1.808   1.931 -0.3122 -1.2244 -0.1537
 4565SOL     OW14310   5.884   5.072   0.934 -0.0789  1.0282 -0.0960
 4565SOL    HW114311   5.877   4.977   0.931 -1.3478  1.1294 -1.7749
 4565SOL    HW214312   5.831   5.098   1.009  0.3815  0.4260  0.4505
 4566SOL     OW14313   2.592   6.466   1.422 -0.4883  0.1222 -0.2789
 4566SOL    HW114314   2.564   6.375   1.416 -0.1278  0.0711 -1.4083
 4566SOL    HW214315   2.531   6.506   1.484  0.1785 -1.1843  1.2934
 4567SOL     OW14316   4.765   3.140   5.500  0.2798  0.0556 -0.6037
 4567SOL    HW114317   4.721   3.145   5.585  0.2636  1.5158 -0.6802
 4567SOL    HW214318   4.811   3.056   5.502 -0.1448 -0.1686  0.6356
 4568SOL     OW14319   2.122   4.085   2.744  0.5841  0.2506 -0.2616
 4568SOL    HW114320   2.177   4.017   2.783  0.4200  1.0902  1.5675
 4568SOL    HW214321   2.182   4.158   2.729  0.6019  0.0104 -1.4711
 4569SOL     OW14322   4.289   1.633   1.734 -0.2754 -0.7087  0.6814
 4569SOL    HW114323   4.372   1.628   1.685 -1.4980 -1.3295 -1.4813
 4569SOL    HW214324   4.223   1.647   1.666 -2.3581 -3.7730  1.8791
 4570SOL     OW14325   4.456   3.835   6.939  0.0476  0.4936  0.1945
 4570SOL    HW114326   4.491   3.923   6.952 -0.4655  0.9087 -1.0826
 4570SOL    HW214327   4.366   3.848   6.910 -0.7577 -0.5298  2.0442
 4571SOL     OW14328   0.695   4.945   1.121 -0.5219  0.5023  0.1380
 4571SOL    HW114329   0.692   4.925   1.028  0.3948  0.8231  0.0376
 4571SOL    HW214330   0.603   4.956   1.146 -0.6933  2.7096 -1.2376
 4572SOL     OW14331   2.703   4.776   6.485 -0.0096 -0.1819 -0.0848
 4572SOL    HW114332   2.711   4.805   6.576 -2.3914  1.3423 -0.2670
 4572SOL    HW214333   2.720   4.682   6.488 -1.3914 -0.4351  2.2037
 4573SOL     OW14334   2.249   4.530   3.659 -0.1044 -0.1848 -0.2643
 4573SOL    HW114335   2.257   4.625   3.650 -2.2108  0.0004 -0.6505
 4573SOL    HW214336   2.291   4.510   3.743 -0.9729  1.2955  0.5646
 4574SOL     OW14337   6.404   0.108   1.092 -0.5652 -0.8836 -0.2880
 4574SOL    HW114338   6.470   0.040   1.106 -0.5816 -0.7276  0.6345
 4574SOL    HW214339   6.422   0.141   1.004  1.2192 -0.2115  0.2818
 4575SOL     OW14340   6.380   1.451   4.655 -0.2795  0.0055  0.2107
 4575SOL    HW114341   6.311   1.436   4.720  0.1513 -0.0514  0.6645
 4575SOL    HW214342   6.417   1.364   4.638  1.0317  0.2643  1.5125
 4576SOL     OW14343   4.683   3.062   2.684  0.3145 -0.6315 -0.0324
 4576SOL    HW114344   4.721   2.985   2.642  1.4052  0.1421 -0.4982
 4576SOL    HW214345   4.754   3.101   2.735 -0.0755  0.3318 -0.1886
 4577SOL     OW14346   2.747   5.098   2.646  0.1750  0.4597  0.3490
 4577SOL    HW114347   2.798   5.021   2.671 -0.1828 -1.4311 -3.8055
 4577SOL    HW214348   2.802   5.142   2.581 -0.9687  1.8999  0.3188
 4578SOL     OW14349   7.170   4.456   7.206  0.1771 -0.5004 -0.4590
 4578SOL    HW114350   7.174   4.450   7.110 -0.7708 -0.2101 -0.5268
 4578SOL    HW214351   7.162   4.550   7.224 -0.7271 -0.6217 -0.1564
 4579SOL     OW14352   3.190   1.727   4.993  0.2152 -0.0598 -0.1017
 4579SOL    HW114353   3.132   1.655   5.018 -0.0788  0.6924  1.5027
 4579SOL    HW214354   3.274   1.685   4.977 -0.0999 -0.8333  0.2180
 4580SOL     OW14355   0.778   1.586   2.921  0.3207 -0.4422  0.3985
 4580SOL    HW114356   0.773   1.597   2.826 -2.6444  0.3862  0.5601
 4580SOL    HW214357   0.730   1.505   2.938  1.1743 -0.7983  1.1882
 4581SOL     OW14358   1.839   2.234   2.783 -0.8251  0.3366  0.5622
 4581SOL    HW114359   1.810   2.269   2.699 -0.8013  1.8563  1.1707
 4581SOL    HW214360   1.904   2.167   2.759 -2.0733 -0.5145 -0.6722
 4582SOL     OW14361   0.998   1.107   6.657  0.5012 -0.2138 -0.5806
 4582SOL    HW114362   1.005   1.070   6.746  0.4755 -0.1184 -0.5390
 4582SOL    HW214363   0.945   1.043   6.609  0.6007 -0.3157 -0.5552
 4583SOL     OW14364   0.636   2.256   2.967 -0.3390  0.3056 -0.2861
 4583SOL    HW114365   0.603   2.325   3.024  1.7806  0.7360  0.5139
 4583SOL    HW214366   0.653   2.299   2.883  0.6560  0.7128  0.1095
 4584SOL     OW14367   6.033   7.188   6.145  0.6234 -0.4902 -0.4831
 4584SOL    HW114368   6.047   7.094   6.129  0.3893 -0.4701 -0.8380
 4584SOL    HW214369   6.004   7.193   6.236  3.0673 -0.5053  0.3514
 4585SOL     OW14370   4.621   3.140   3.131  0.2285  0.2721 -0.4419
 4585SOL    HW114371   4.709   3.111   3.155  0.2045 -0.1482 -0.8499
 4585SOL    HW214372   4.634   3.214   3.073  0.3444 -0.5664 -1.5113
 4586SOL     OW14373   2.555   0.410   6.200  0.4311  0.4013 -0.0467
 4586SOL    HW114374   2.556   0.356   6.122 -0.2751 -0.5598  0.5921
 4586SOL    HW214375   2.545   0.500   6.167  0.5822  0.0549 -1.0670
 4587SOL     OW14376   2.245   5.884   3.064 -0.1541  0.3113  0.3406
 4587SOL    HW114377   2.248   5.938   2.985 -1.3245  1.9041  1.3306
 4587SOL    HW214378   2.256   5.794   3.032  0.9122  1.0254 -1.4471
 4588SOL     OW14379   5.192   0.234   3.837 -0.3327 -0.0993  0.3126
 4588SOL    HW114380   5.210   0.143   3.861 -2.7724 -0.5313  0.7408
 4588SOL    HW214381   5.270   0.282   3.865  1.3155 -2.1108 -0.5289
 4589SOL     OW14382   1.553   5.136   5.465 -0.2752  0.5701  0.3550
 4589SOL    HW114383   1.495   5.067   5.497 -1.2055  0.0914 -2.1443
 4589SOL    HW214384   1.641   5.104   5.486 -0.4459 -2.9675 -3.1723
 4590SOL     OW14385   0.770   5.493   3.015 -0.1408 -0.1751 -0.0105
 4590SOL    HW114386   0.772   5.451   2.929 -0.1018  0.3702 -0.2824
 4590SOL    HW214387   0.678   5.489   3.041 -0.4556  1.1256 -0.8278
 4591SOL     OW14388   0.037   0.836   2.136  0.6559 -0.1626  0.3581
 4591SOL    HW114389  -0.041   0.890   2.148  1.0391  0.6193 -0.5460
 4591SOL    HW214390   0.032   0.770   2.206 -1.5488 -1.0274 -0.5175
 4592SOL     OW14391   1.922   1.671   0.733  0.5149  0.1740 -0.1885
 4592SOL    HW114392   1.864   1.653   0.659 -1.6273  1.8124  1.0065
 4592SOL    HW214393   1.914   1.593   0.789 -1.7337  0.9481  0.6549
 4593SOL     OW14394   2.963   5.553   1.494  0.9699  0.6022  0.0062
 4593SOL    HW114395   2.996   5.638   1.463  1.6574  0.3352  0.0052
 4593SOL    HW214396   2.868   5.560   1.483  1.0664  1.1402 -0.5882
 4594SOL     OW14397   3.924   0.965   5.288 -0.3326  0.5330  0.6807
 4594SOL    HW114398   3.859   0.976   5.357 -0.7120 -2.9581  1.0567
 4594SOL    HW214399   4.007   0.950   5.334 -0.3716 -0.6582  0.3975
 4595SOL     OW14400   0.904   5.526   2.304 -0.3135 -0.6838 -0.2790
 4595SOL    HW114401   0.945   5.543   2.389  1.3847 -1.3944 -0.9101
 4595SOL    HW214402   0.831   5.588   2.300  0.3034  0.1986  1.1758
 4596SOL     OW14403   4.806   5.063   4.862  0.0097 -0.1691 -0.0648
 4596SOL    HW114404   4.738   5.040   4.925 -0.4795 -2.8068 -1.4350
 4596SOL    HW214405   4.871   4.993   4.870  1.6210  1.2387 -0.1986
 4597SOL     OW14406   7.073   2.453   7.239 -0.5021 -0.1158 -0.2238
 4597SOL    HW114407   6.989   2.467   7.283 -1.0463 -2.0123 -0.5733
 4597SOL    HW214408   7.085   2.531   7.186 -1.1565  0.9924  1.1961
 4598SOL     OW14409   5.007   6.936   6.744  0.6101 -0.3233  0.4085
 4598SOL    HW114410   4.994   7.024   6.710 -0.1769  0.1471  1.8649
 4598SOL    HW214411   4.927   6.916   6.792  0.8197 -1.7932  0.1945
 4599SOL     OW14412   0.194   6.601   2.855 -0.8060  0.6637 -0.1900
 4599SOL    HW114413   0.249   6.646   2.919  0.0176  0.8385 -0.9937
 4599SOL    HW214414   0.239   6.614   2.771 -1.2325 -0.5462 -0.6363
 4600SOL     OW14415   3.908   4.538   3.139 -0.0280 -0.2245  0.2599
 4600SOL    HW114416   3.840   4.595   3.174  1.8035  1.2928  1.5433
 4600SOL    HW214417   3.965   4.596   3.089  1.9255 -0.8588  1.6476
 4601SOL     OW14418   1.695   4.578   0.406  0.2921 -0.0134  0.0971
 4601SOL    HW114419   1.712   4.499   0.458 -0.4219 -1.3467 -1.5688
 4601SOL    HW214420   1.779   4.623   0.402  0.7417 -0.7264  1.0216
 4602SOL     OW14421   7.224   0.595   5.297  0.1439  0.4742 -0.0265
 4602SOL    HW114422   7.138   0.560   5.321 -0.3861  2.3415  1.0011
 4602SOL    HW214423   7.262   0.626   5.380  0.5358  2.2980 -0.8306
 4603SOL     OW14424   1.010   1.298   2.184 -0.3749 -0.8419  0.4975
 4603SOL    HW114425   1.084   1.323   2.129 -0.5466 -0.5729  0.3832
 4603SOL    HW214426   1.034   1.327   2.272 -0.0507 -1.3750  0.5859
 4604SOL     OW14427   5.720   4.674   4.843 -0.1419 -0.2137 -0.1805
 4604SOL    HW114428   5.686   4.714   4.923 -2.5201 -3.3751  0.5937
 4604SOL    HW214429   5.802   4.632   4.871 -0.1908 -0.0497  0.2160
 4605SOL     OW14430   0.333   3.311   2.717 -0.0761 -0.1450  0.3135
 4605SOL    HW114431   0.386   3.381   2.680 -0.8184  0.7818  0.9339
 4605SOL    HW214432   0.324   3.247   2.647 -0.8424  1.2080 -0.8628
 4606SOL     OW14433   5.219   3.654   0.256  0.2050 -0.6376  0.1199
 4606SOL    HW114434   5.291   3.656   0.319 -0.0443 -2.2464  0.4837
 4606SOL    HW214435   5.226   3.569   0.213 -1.1449 -0.5907 -0.2482
 4607SOL     OW14436   5.800   4.107   6.628  0.0413  0.5312  0.1438
 4607SOL    HW114437   5.741   4.052   6.681  1.0713 -0.5376  0.2138
 4607SOL    HW214438   5.748   4.130   6.551 -0.8520  0.5651  0.7337
 4608SOL     OW14439   1.932   1.400   0.254  0.1973 -0.2787  0.5920
 4608SOL    HW114440   1.888   1.322   0.287  0.1085 -0.4029  0.1927
 4608SOL    HW214441   2.024   1.375   0.247  0.1387 -0.4121  0.2810
 4609SOL     OW14442   6.900   3.475   0.808 -0.0680 -0.1393  0.6217
 4609SOL    HW114443   6.839   3.469   0.735  0.1284  0.0916  0.4367
 4609SOL    HW214444   6.852   3.522   0.876 -0.1444 -0.0839  0.5297
 4610SOL     OW14445   0.506   2.418   4.880 -0.3341 -0.0417 -0.2074
 4610SOL    HW114446   0.468   2.488   4.827  1.6549  0.4760 -1.0212
 4610SOL    HW214447   0.600   2.433   4.877  0.1053 -2.2795  0.2848
 4611SOL     OW14448   4.627   6.750   6.424 -0.2499  0.4946  0.2721
 4611SOL    HW114449   4.708   6.725   6.468  0.6779  0.7183 -1.2530
 4611SOL    HW214450   4.589   6.817   6.481  1.1296  1.0735  0.5536
 4612SOL     OW14451   7.195   0.168   2.782  0.2579 -0.0542  0.4399
 4612SOL    HW114452   7.285   0.188   2.758  1.2289 -1.9697  2.1795
 4612SOL    HW214453   7.193   0.179   2.877 -1.7181  1.1291  0.3304
 4613SOL     OW14454   5.739   5.548   2.458 -0.0989  0.2775  0.3179
 4613SOL    HW114455   5.761   5.485   2.389  1.9492  0.7115  0.4905
 4613SOL    HW214456   5.785   5.628   2.432 -1.4088  1.2420  0.8909
 4614SOL     OW14457   4.655   4.493   6.257 -0.1272  0.0729 -0.4335
 4614SOL    HW114458   4.688   4.404   6.260  2.2217  0.9015  1.1478
 4614SOL    HW214459   4.626   4.511   6.347 -0.9457  0.7684 -0.8213
 4615SOL     OW14460   1.188   4.574   5.557  0.1303 -0.2310 -0.8089
 4615SOL    HW114461   1.188   4.642   5.489  1.3019  0.9722  0.3426
 4615SOL    HW214462   1.115   4.517   5.533 -1.0039  1.5168 -1.7383
 4616SOL     OW14463   4.706   5.139   6.578 -0.3859  0.2554 -0.0135
 4616SOL    HW114464   4.623   5.093   6.567 -1.3023  1.4240  1.5203
 4616SOL    HW214465   4.769   5.089   6.527 -1.9945 -0.7793 -1.0502
 4617SOL     OW14466   6.912   7.008   4.567 -0.0648  0.2697 -0.2874
 4617SOL    HW114467   6.864   6.948   4.624 -0.6418  0.5236 -0.4965
 4617SOL    HW214468   6.908   7.093   4.612 -0.6551  0.5052 -0.7698
 4618SOL     OW14469   2.702   0.630   1.268  0.2023 -0.0270  1.0738
 4618SOL    HW114470   2.690   0.537   1.250 -1.3297 -0.1079  2.2525
 4618SOL    HW214471   2.796   0.645   1.259  0.3799 -1.5249  0.1847
 4619SOL     OW14472   0.775   3.754   2.194  0.5487 -0.3592 -0.0277
 4619SOL    HW114473   0.850   3.740   2.252 -0.2124 -0.1071  1.0545
 4619SOL    HW214474   0.699   3.739   2.250 -0.2405 -1.7995 -1.3808
 4620SOL     OW14475   6.670   6.225   2.028 -0.3004  0.5649 -0.7656
 4620SOL    HW114476   6.717   6.308   2.039  0.7977  0.1652 -2.2094
 4620SOL    HW214477   6.672   6.209   1.934  0.0186 -1.3991 -0.4534
 4621SOL     OW14478   5.393   6.792   4.355 -0.4932  0.5028  0.1759
 4621SOL    HW114479   5.466   6.741   4.392 -0.3720 -0.7442 -1.6442
 4621SOL    HW214480   5.315   6.743   4.381 -0.4346 -0.1351 -0.8186
 4622SOL     OW14481   3.306   4.634   1.430 -0.9599 -0.5359  0.0734
 4622SOL    HW114482   3.217   4.606   1.450 -1.4205  1.2052  0.5759
 4622SOL    HW214483   3.362   4.575   1.480 -1.8577 -0.9760  0.5720
 4623SOL     OW14484   0.050   4.716   6.562 -0.0778  0.2724  0.0618
 4623SOL    HW114485   0.001   4.689   6.640 -0.1624 -2.2528 -0.7632
 4623SOL    HW214486   0.096   4.636   6.534  1.8107  1.6954 -1.1586
 4624SOL     OW14487   0.126   3.828   6.416  0.2108  0.3690  0.2024
 4624SOL    HW114488   0.180   3.797   6.489  0.2882  0.2620  0.1004
 4624SOL    HW214489   0.167   3.910   6.389 -1.3647  1.8417  2.0168
 4625SOL     OW14490   6.875   1.928   3.070  0.0237  0.2054  0.0732
 4625SOL    HW114491   6.942   1.996   3.077 -0.6770  0.8648  0.6422
 4625SOL    HW214492   6.923   1.846   3.072  0.7310  0.6244  1.9609
 4626SOL     OW14493   0.434   0.007   5.436 -0.5245 -0.4558  0.1001
 4626SOL    HW114494   0.400  -0.075   5.471 -1.9123  0.4349  0.9675
 4626SOL    HW214495   0.370   0.073   5.464  0.6328  0.9457 -0.4199
 4627SOL     OW14496   2.571   6.418   0.023  0.2928 -0.0711  0.2768
 4627SOL    HW114497   2.582   6.325   0.001  0.8079  0.2728 -1.0160
 4627SOL    HW214498   2.660   6.454   0.022  0.0540  0.5308  0.3056
 4628SOL     OW14499   3.132   3.521   3.271 -0.3075 -0.6734 -0.4976
 4628SOL    HW114500   3.051   3.475   3.250 -1.0992  0.5954 -0.3368
 4628SOL    HW214501   3.167   3.476   3.347 -0.4174 -1.7551 -1.0718
 4629SOL     OW14502   1.273   2.177   3.499 -0.1244  0.2802  0.3467
 4629SOL    HW114503   1.199   2.223   3.540 -0.8104 -1.3830  1.0504
 4629SOL    HW214504   1.279   2.214   3.411 -2.3518 -0.1393 -0.0261
 4630SOL     OW14505   5.382   2.327   6.694 -0.2601 -0.2964 -0.0119
 4630SOL    HW114506   5.448   2.377   6.645  0.2022 -1.6304 -0.7981
 4630SOL    HW214507   5.299   2.352   6.653  0.1493 -1.6909 -1.8300
 4631SOL     OW14508   6.752   3.671   0.538  0.4548  0.5720 -0.7192
 4631SOL    HW114509   6.745   3.762   0.568 -2.1203  0.5427 -1.0423
 4631SOL    HW214510   6.843   3.663   0.509  1.2579  2.4972  0.9537
 4632SOL     OW14511   3.170   1.216   4.417  0.3883  0.2454 -0.8001
 4632SOL    HW114512   3.251   1.169   4.435 -0.8380 -1.4164  0.7193
 4632SOL    HW214513   3.147   1.257   4.500 -0.2169  0.9040 -1.2778
 4633SOL     OW14514   1.104   0.634   0.519 -0.3156 -0.3011  0.3919
 4633SOL    HW114515   1.079   0.724   0.540 -0.1209 -0.1166 -0.1393
 4633SOL    HW214516   1.083   0.584   0.597 -2.3082 -0.1602 -0.0007
 4634SOL     OW14517   6.531   1.420   5.325 -0.0829 -0.2331 -0.1634
 4634SOL    HW114518   6.483   1.473   5.389  0.0782 -0.4011  0.0987
 4634SOL    HW214519   6.593   1.481   5.285 -0.5770  0.0080 -0.5727
 4635SOL     OW14520   3.055   1.223   1.445  0.4214 -0.2588  0.8164
 4635SOL    HW114521   3.021   1.264   1.366  1.8885 -2.3881 -1.0649
 4635SOL    HW214522   3.150   1.232   1.438  0.6281 -1.3253  1.8411
 4636SOL     OW14523   0.855   6.942   0.471 -0.2583  0.0327 -0.5091
 4636SOL    HW114524   0.794   7.010   0.444 -1.2869 -0.5625  0.2358
 4636SOL    HW214525   0.844   6.872   0.406 -0.2051  0.0247 -0.5093
 4637SOL     OW14526   3.371   3.867   6.861 -0.7450  0.3318  0.6115
 4637SOL    HW114527   3.393   3.958   6.879  0.4558 -0.2226  2.1177
 4637SOL    HW214528   3.374   3.861   6.765 -1.3758  1.9798  0.4563
 4638SOL     OW14529   4.569   1.861   7.089 -0.0535  0.3469 -0.4960
 4638SOL    HW114530   4.518   1.795   7.135 -0.2126  1.6702  1.3186
 4638SOL    HW214531   4.571   1.830   6.998 -2.5118 -0.6963 -0.2835
 4639SOL     OW14532   5.858   2.654   5.245 -0.7787 -0.2277 -0.6987
 4639SOL    HW114533   5.893   2.571   5.277  0.5044  0.7029  0.4524
 4639SOL    HW214534   5.900   2.667   5.160 -2.0786 -1.3932 -1.5617
 4640SOL     OW14535   2.374   3.337   3.828  0.6464  0.0650  0.7136
 4640SOL    HW114536   2.393   3.312   3.918  2.5186 -0.3648  0.2291
 4640SOL    HW214537   2.432   3.283   3.775 -1.6194 -0.9636 -0.9017
 4641SOL     OW14538   2.440   4.976   1.660  0.4186 -0.6449 -0.4099
 4641SOL    HW114539   2.513   5.003   1.715  0.0361  1.8516 -0.9899
 4641SOL    HW214540   2.463   4.889   1.630  2.5672 -0.4153  0.4241
 4642SOL     OW14541   0.593   1.572   4.324  0.0968 -0.1313  0.2942
 4642SOL    HW114542   0.660   1.526   4.274  0.6541  0.4408  0.4913
 4642SOL    HW214543   0.543   1.621   4.259 -0.4599 -0.9567  0.0914
 4643SOL     OW14544   1.624   3.751   2.339 -0.3551  0.2332 -0.2275
 4643SOL    HW114545   1.656   3.752   2.248  1.0726 -1.8088  0.1768
 4643SOL    HW214546   1.627   3.658   2.364  2.0136  0.9925  2.8234
 4644SOL     OW14547   4.312   3.072   3.700  0.3146  0.0902  0.2760
 4644SOL    HW114548   4.236   3.033   3.657  1.7968 -1.1007 -1.4530
 4644SOL    HW214549   4.315   3.162   3.666 -0.1763  0.0661  0.1606
 4645SOL     OW14550   6.424   5.317   2.734 -0.3459  0.3901 -0.1198
 4645SOL    HW114551   6.474   5.251   2.686 -0.4359  0.6028 -0.5095
 4645SOL    HW214552   6.350   5.269   2.770  0.8910 -0.2388  1.7042
 4646SOL     OW14553   5.662   5.433   6.977  0.1204 -0.3906 -0.0916
 4646SOL    HW114554   5.733   5.392   6.927 -1.3440 -2.6604 -0.4501
 4646SOL    HW214555   5.588   5.435   6.916 -0.4516  0.9581  0.6075
 4647SOL     OW14556   5.981   5.351   1.196 -0.7091  0.3506 -0.3995
 4647SOL    HW114557   5.897   5.378   1.158 -1.4327  2.4117  2.3436
 4647SOL    HW214558   5.967   5.259   1.222 -1.9432  0.5179 -0.4343
 4648SOL     OW14559   0.820   1.895   0.331  0.6176 -0.5055 -0.4254
 4648SOL    HW114560   0.729   1.885   0.306  0.5106 -1.4263  0.2790
 4648SOL    HW214561   0.861   1.938   0.256 -0.4521  0.2259 -0.6087
 4649SOL     OW14562   2.590   4.688   6.119 -0.1710 -0.1990 -0.0449
 4649SOL    HW114563   2.598   4.674   6.025  0.8710 -1.1722  0.1758
 4649SOL    HW214564   2.663   4.746   6.142  0.1750 -0.7590  0.3092
 4650SOL     OW14565   2.986   4.301   5.636  0.2075 -0.3840 -0.0379
 4650SOL    HW114566   2.900   4.312   5.677  0.0279 -0.4463 -0.3928
 4650SOL    HW214567   2.967   4.292   5.543  0.5314 -1.2845 -0.0222
 4651SOL     OW14568   2.634   0.090   5.243  0.1237 -0.1324 -0.2271
 4651SOL    HW114569   2.585   0.056   5.168 -0.6681 -0.4310  0.4202
 4651SOL    HW214570   2.570   0.094   5.314  1.2238 -1.4521  0.9056
 4652SOL     OW14571   0.357   2.496   2.700  0.0554 -0.0077 -0.2605
 4652SOL    HW114572   0.426   2.478   2.636  1.3356  0.1457  1.0291
 4652SOL    HW214573   0.337   2.411   2.738 -2.3043 -0.4936 -2.3363
 4653SOL     OW14574   5.967   6.015   3.809 -0.0254  0.4449  0.8097
 4653SOL    HW114575   5.977   6.101   3.848  0.0206 -0.1523  2.1634
 4653SOL    HW214576   5.872   6.003   3.800 -0.0238  0.7162  0.4327
 4654SOL     OW14577   2.352   6.466   4.125  0.2741 -0.2076  0.1271
 4654SOL    HW114578   2.415   6.533   4.098  0.2595  0.0159  0.6499
 4654SOL    HW214579   2.267   6.501   4.100  0.1410  0.5653  1.5661
 4655SOL     OW14580   2.497   1.840   2.184  0.1449  0.5035 -0.9927
 4655SOL    HW114581   2.460   1.902   2.246 -0.6647 -0.8620 -0.0548
 4655SOL    HW214582   2.590   1.837   2.206 -0.0652  0.3229 -0.0791
 4656SOL     OW14583   6.113   1.317   4.821 -0.2200  0.3714  0.0713
 4656SOL    HW114584   6.051   1.270   4.766 -0.4888 -1.5482  1.8737
 4656SOL    HW214585   6.084   1.408   4.817 -2.0733 -0.1964 -0.5289
 4657SOL     OW14586   3.017   4.146   3.476  0.1726 -0.1120  0.2747
 4657SOL    HW114587   3.084   4.102   3.528  0.0238  0.2638  0.7961
 4657SOL    HW214588   3.044   4.238   3.476 -0.0022 -0.0601 -0.0448
 4658SOL     OW14589   5.693   0.226   3.819 -0.1363  0.2274  0.0373
 4658SOL    HW114590   5.664   0.167   3.750 -1.7710  0.6138  0.3412
 4658SOL    HW214591   5.755   0.175   3.871 -2.9612 -2.0584  1.5025
 4659SOL     OW14592   6.741   6.806   0.479 -0.1294 -0.1710  0.2192
 4659SOL    HW114593   6.806   6.876   0.472 -1.0954  0.6488 -0.8917
 4659SOL    HW214594   6.757   6.750   0.403  0.6603 -1.2118  1.1203
 4660SOL     OW14595   6.516   3.778   2.776  0.2181 -0.6934  0.7356
 4660SOL    HW114596   6.529   3.861   2.821 -1.7994 -0.4485  0.9424
 4660SOL    HW214597   6.430   3.747   2.806 -0.0509 -1.7751 -1.0003
 4661SOL     OW14598   4.108   0.976   2.277  0.3052 -0.1377  0.4784
 4661SOL    HW114599   4.055   0.926   2.215 -0.4335  2.5930 -1.2390
 4661SOL    HW214600   4.095   0.931   2.361 -2.6801 -1.1043 -0.3795
 4662SOL     OW14601   5.273   1.453   5.795 -0.2734 -0.0684 -0.2147
 4662SOL    HW114602   5.345   1.487   5.742 -1.3376  0.0763 -1.5942
 4662SOL    HW214603   5.267   1.513   5.869  2.2564 -1.1435  1.0261
 4663SOL     OW14604   1.699   5.228   5.230 -0.1893  0.2106 -0.1247
 4663SOL    HW114605   1.745   5.306   5.262  1.4052 -1.2154  1.2506
 4663SOL    HW214606   1.667   5.185   5.309  0.9329 -1.6744 -0.6271
 4664SOL     OW14607   5.261   1.109   4.175  0.6048  0.3359 -0.0644
 4664SOL    HW114608   5.189   1.103   4.238  1.2176 -0.5170  0.5704
 4664SOL    HW214609   5.218   1.102   4.090 -0.4842  3.5486  0.0718
 4665SOL     OW14610   0.087   2.488   1.604 -0.3468 -0.0677 -0.0135
 4665SOL    HW114611   0.084   2.479   1.700  1.9451 -0.6276  0.0811
 4665SOL    HW214612   0.106   2.399   1.573  1.1334  0.4848 -0.7792
 4666SOL     OW14613   0.724   3.949   4.412  0.6474  0.1247 -0.6284
 4666SOL    HW114614   0.816   3.959   4.434  0.8776  0.0590 -1.5192
 4666SOL    HW214615   0.714   3.996   4.328 -0.5507  1.8658  0.4096
 4667SOL     OW14616   6.163   1.495   4.304 -0.0448  0.2012 -0.1195
 4667SOL    HW114617   6.227   1.564   4.324 -0.3500  0.1198  1.2553
 4667SOL    HW214618   6.140   1.510   4.213 -0.8032  2.5165  0.3866
 4668SOL     OW14619   2.078   2.523   3.571 -0.1241 -0.2831  0.4302
 4668SOL    HW114620   2.063   2.431   3.591  1.5356 -0.4370  1.0864
 4668SOL    HW214621   2.036   2.536   3.485 -0.9878 -1.4476  0.6494
 4669SOL     OW14622   5.931   1.229   1.247  0.6575  0.1070  0.0092
 4669SOL    HW114623   5.850   1.201   1.204  0.4664  2.4734 -1.3400
 4669SOL    HW214624   5.997   1.167   1.216 -0.5651 -1.8193  1.0788
 4670SOL     OW14625   3.246   0.378   6.297  0.4634  0.2249 -0.4718
 4670SOL    HW114626   3.236   0.394   6.391  0.0044  0.9856 -0.6382
 4670SOL    HW214627   3.207   0.455   6.256  0.7279 -0.0700 -1.2862
 4671SOL     OW14628   7.146   0.492   6.374  0.4054  0.0988 -0.4198
 4671SOL    HW114629   7.233   0.530   6.385  0.0173  1.6277 -1.9853
 4671SOL    HW214630   7.114   0.531   6.292 -2.0611  0.2332  0.5232
 4672SOL     OW14631   1.349   4.848   3.532 -0.3884  0.1007 -0.2227
 4672SOL    HW114632   1.330   4.864   3.625  0.6871  1.4644 -0.1996
 4672SOL    HW214633   1.440   4.818   3.531 -0.2458  0.5355 -0.8694
 4673SOL     OW14634   6.850   0.454   6.506  0.3160 -0.0513 -0.1516
 4673SOL    HW114635   6.945   0.463   6.498  0.4682 -0.9111  0.5032
 4673SOL    HW214636   6.828   0.385   6.443  0.1238  0.1656 -0.3196
 4674SOL     OW14637   0.995   2.568   6.571  0.3863 -0.4365 -0.0146
 4674SOL    HW114638   1.056   2.637   6.546  0.5901  0.0399  1.6537
 4674SOL    HW214639   0.919   2.615   6.605  0.7385 -0.9983  1.6243
 4675SOL     OW14640   2.306   5.240   2.372  0.3628  0.2389  0.0877
 4675SOL    HW114641   2.265   5.154   2.381 -0.4158  0.7627  2.1159
 4675SOL    HW214642   2.233   5.301   2.379  1.2151  1.1308  1.6075
 4676SOL     OW14643   5.381   0.160   3.281  0.1634 -0.3626 -0.8248
 4676SOL    HW114644   5.359   0.239   3.232  1.4490 -1.1751 -2.8481
 4676SOL    HW214645   5.329   0.091   3.239  0.0024 -0.8223  0.0987
 4677SOL     OW14646   5.476   5.242   5.900  0.3291 -0.9062 -0.0342
 4677SOL    HW114647   5.398   5.297   5.893  0.6131 -0.4425  0.3164
 4677SOL    HW214648   5.445   5.153   5.886 -0.0871 -0.6212 -0.9799
 4678SOL     OW14649   4.091   3.349   3.702  0.1479 -0.5245 -0.0904
 4678SOL    HW114650   4.166   3.323   3.648  1.2365 -0.1377  1.1966
 4678SOL    HW214651   4.027   3.384   3.639  1.9025  1.1784 -1.0209
 4679SOL     OW14652   6.694   0.838   0.637 -0.3628 -0.5215 -0.4901
 4679SOL    HW114653   6.621   0.784   0.666 -1.7562  1.0310 -0.9831
 4679SOL    HW214654   6.665   0.877   0.555  0.7747  0.6040 -0.3918
 4680SOL     OW14655   2.494   6.535   5.650  0.7573 -0.8217 -0.4696
 4680SOL    HW114656   2.549   6.547   5.572  1.6521 -0.7261  0.1613
 4680SOL    HW214657   2.550   6.563   5.723 -0.9600  1.8283 -0.0063
 4681SOL     OW14658   3.304   2.278   6.037 -0.0974  0.4462 -0.1485
 4681SOL    HW114659   3.379   2.316   5.991  1.1760 -2.1962 -0.4393
 4681SOL    HW214660   3.290   2.335   6.112  2.8582  0.5497  0.4556
 4682SOL     OW14661   3.837   5.723   2.481 -0.5112 -0.5050 -0.4056
 4682SOL    HW114662   3.882   5.685   2.556 -0.7806  1.4936  0.8304
 4682SOL    HW214663   3.744   5.711   2.500 -0.5864  0.2957 -0.2419
 4683SOL     OW14664   7.070   1.742   6.998  0.0418  0.3395  0.8231
 4683SOL    HW114665   7.148   1.738   6.944  0.4631  1.5720  1.3255
 4683SOL    HW214666   7.004   1.694   6.947  0.6805  0.6437 -0.3251
 4684SOL     OW14667   7.176   0.206   0.540 -0.0862 -0.1473  0.0026
 4684SOL    HW114668   7.259   0.220   0.495  0.0715  0.1871  0.4006
 4684SOL    HW214669   7.144   0.293   0.560 -0.2171 -0.2921  0.4317
 4685SOL     OW14670   3.472   3.784   6.043 -0.0568 -0.2258  0.6325
 4685SOL    HW114671   3.388   3.742   6.022 -0.3775 -0.5699  2.4861
 4685SOL    HW214672   3.492   3.755   6.132  1.2966  1.0576  0.7767
 4686SOL     OW14673   4.420   0.889   3.621 -0.3024 -0.5036 -0.0377
 4686SOL    HW114674   4.385   0.887   3.532 -0.0014  2.0327 -0.2688
 4686SOL    HW214675   4.390   0.972   3.657  0.6039 -0.9342  1.8128
 4687SOL     OW14676   5.240   0.505   7.105 -0.1521  0.0873 -0.0324
 4687SOL    HW114677   5.288   0.531   7.026 -0.1563 -0.6488 -0.2827
 4687SOL    HW214678   5.185   0.581   7.125 -0.3437  0.1934 -0.8912
 4688SOL     OW14679   4.524   2.188   2.904 -0.1061 -0.0135 -0.0517
 4688SOL    HW114680   4.618   2.203   2.909 -0.1653  0.7728 -1.1399
 4688SOL    HW214681   4.510   2.109   2.957  0.8944  0.8989  1.6812
 4689SOL     OW14682   2.632   6.767   5.458 -0.2803 -0.3069 -0.4115
 4689SOL    HW114683   2.615   6.681   5.420  0.9934 -0.1268 -1.4634
 4689SOL    HW214684   2.575   6.827   5.408 -0.1603 -0.3526 -0.6018
 4690SOL     OW14685   5.535   3.756   5.338  0.6498 -0.0250 -0.2813
 4690SOL    HW114686   5.470   3.810   5.293  1.1968  0.6474 -0.2875
 4690SOL    HW214687   5.603   3.818   5.365  1.2812 -0.7071 -0.2633
 4691SOL     OW14688   1.164   2.763   5.725  0.6482 -0.7357 -0.1658
 4691SOL    HW114689   1.158   2.676   5.685  0.3034  0.5122 -3.0359
 4691SOL    HW214690   1.112   2.820   5.669  1.6343  1.5321  1.0623
 4692SOL     OW14691   1.907   6.031   4.934 -0.3756  0.2111 -0.1815
 4692SOL    HW114692   1.925   6.057   4.844  0.7316  1.6811  0.4226
 4692SOL    HW214693   1.982   5.975   4.958 -0.8178 -0.4250 -0.2453
 4693SOL     OW14694   4.153   4.902   0.662 -0.1348  0.3121 -0.3784
 4693SOL    HW114695   4.121   4.840   0.728  0.4577  0.5902  0.1781
 4693SOL    HW214696   4.098   4.885   0.585  0.2989 -1.2301 -0.3949
 4694SOL     OW14697   2.649   4.515   0.687 -0.3512 -0.0721  0.5600
 4694SOL    HW114698   2.620   4.581   0.624 -0.8473 -2.8431 -2.3061
 4694SOL    HW214699   2.719   4.559   0.735 -0.4252  2.4402 -1.3819
 4695SOL     OW14700   4.874   0.706   5.316 -0.0351 -0.0214  0.2067
 4695SOL    HW114701   4.807   0.738   5.256  1.0525 -0.1657 -1.1200
 4695SOL    HW214702   4.935   0.779   5.326  0.8639 -0.6625 -0.4781
 4696SOL     OW14703   3.543   2.743   2.936  0.4613  0.0739 -0.3046
 4696SOL    HW114704   3.608   2.715   3.000  0.2148  1.3536  0.5303
 4696SOL    HW214705   3.561   2.689   2.859  1.2232 -0.9873  0.5791
 4697SOL     OW14706   6.875   4.019   3.156  0.1800  0.0611  0.7810
 4697SOL    HW114707   6.870   3.924   3.142  2.1986  0.1378 -1.0606
 4697SOL    HW214708   6.896   4.028   3.249  0.3235 -1.3409  0.9119
 4698SOL     OW14709   4.906   5.692   5.707 -0.4343  0.2367 -0.0290
 4698SOL    HW114710   4.893   5.786   5.716 -0.3118  0.2725 -0.2255
 4698SOL    HW214711   4.911   5.660   5.797 -1.1938  0.3169  0.0490
 4699SOL     OW14712   5.050   6.443   6.915  0.4044 -0.4375 -0.1231
 4699SOL    HW114713   4.978   6.380   6.921 -0.2025  0.2509  0.0229
 4699SOL    HW214714   5.045   6.492   6.998  1.8514 -1.2246  0.4653
 4700SOL     OW14715   4.896   6.247   3.099 -0.0769  0.1628 -0.5472
 4700SOL    HW114716   4.868   6.215   3.184 -1.1134 -1.0050 -1.3073
 4700SOL    HW214717   4.836   6.319   3.080 -0.5532 -0.2880 -0.7693
 4701SOL     OW14718   6.421   3.369   4.081 -0.7066 -0.9693  0.4762
 4701SOL    HW114719   6.474   3.382   4.159 -1.2726 -0.6375  0.8116
 4701SOL    HW214720   6.462   3.424   4.014 -0.0319 -1.5028  0.4398
 4702SOL     OW14721   3.428   5.935   2.684 -0.3335  0.1491 -0.1832
 4702SOL    HW114722   3.513   5.977   2.667 -0.3891  0.0540 -0.7245
 4702SOL    HW214723   3.418   5.938   2.779  1.1668 -1.5639  0.0939
 4703SOL     OW14724   6.788   1.858   3.381  0.0907 -0.4381 -0.0456
 4703SOL    HW114725   6.762   1.945   3.350 -1.6509 -0.7275  0.4817
 4703SOL    HW214726   6.878   1.847   3.350 -0.1145  1.0065 -1.2733
 4704SOL     OW14727   0.038   5.825   6.442  0.4227 -0.5974 -0.2584
 4704SOL    HW114728  -0.032   5.867   6.392  1.5949  2.2795  0.3154
 4704SOL    HW214729  -0.008   5.768   6.503 -1.2169 -1.2975 -2.0258
 4705SOL     OW14730   7.132   5.200   5.371 -0.8572 -0.0661 -0.5244
 4705SOL    HW114731   7.169   5.258   5.304 -1.0613  1.0304  0.2816
 4705SOL    HW214732   7.089   5.131   5.321 -1.1598  0.8170 -1.5364
 4706SOL     OW14733   4.472   6.901   7.207 -0.6296 -0.2726  0.9585
 4706SOL    HW114734   4.442   6.810   7.207  1.5633 -1.0962 -0.7939
 4706SOL    HW214735   4.462   6.930   7.116  0.4327  0.6022  1.0983
 4707SOL     OW14736   0.579   3.677   0.911 -0.2188 -0.4696 -0.3897
 4707SOL    HW114737   0.510   3.668   0.977  0.7219  1.2562  0.9146
 4707SOL    HW214738   0.568   3.601   0.854 -1.9329 -1.2855  0.9414
 4708SOL     OW14739   4.026   2.216   0.620 -0.0837 -0.0522 -0.1249
 4708SOL    HW114740   4.081   2.293   0.633 -1.3475  1.0084 -0.8634
 4708SOL    HW214741   3.995   2.224   0.530 -1.8099 -0.3575  0.4012
 4709SOL     OW14742   4.332   0.327   6.987  0.2331  0.0857 -0.0373
 4709SOL    HW114743   4.345   0.314   6.893  0.5972  0.7835 -0.0903
 4709SOL    HW214744   4.316   0.240   7.021 -0.6166 -0.0935 -0.8568
 4710SOL     OW14745   6.440   4.504   3.071  0.0314  0.4594 -0.3714
 4710SOL    HW114746   6.529   4.488   3.039 -0.2281  0.5787 -1.1738
 4710SOL    HW214747   6.410   4.419   3.102  0.4332  0.4224 -0.0773
 4711SOL     OW14748   0.478   1.690   7.177 -0.5334 -0.1772  0.0509
 4711SOL    HW114749   0.393   1.648   7.194 -0.5666 -0.4994 -0.8834
 4711SOL    HW214750   0.525   1.628   7.123 -0.4230  0.8155 -1.0236
 4712SOL     OW14751   0.540   7.086   2.343 -0.7069  0.6191 -0.2557
 4712SOL    HW114752   0.467   7.038   2.303 -0.1386  0.8075 -1.5924
 4712SOL    HW214753   0.574   7.141   2.272  1.0217  0.2107  0.1956
 4713SOL     OW14754   6.128   4.347   3.715 -0.3066  0.4745 -0.3918
 4713SOL    HW114755   6.154   4.419   3.772  0.3758  0.3387 -0.5178
 4713SOL    HW214756   6.075   4.388   3.647 -1.7490  0.5336  0.7201
 4714SOL     OW14757   4.900   6.778   4.971  0.8853 -0.5111  0.2518
 4714SOL    HW114758   4.945   6.799   4.889  0.5866 -1.0979 -0.0656
 4714SOL    HW214759   4.908   6.858   5.024  0.3373  0.1663 -0.6753
 4715SOL     OW14760   5.384   2.716   0.357 -0.3136  0.0658 -0.8091
 4715SOL    HW114761   5.380   2.811   0.361 -0.7240  0.0050  1.2440
 4715SOL    HW214762   5.464   2.693   0.405 -0.7605 -0.6452 -0.3900
 4716SOL     OW14763   7.037   1.417   6.620 -0.1811  0.3880  0.9200
 4716SOL    HW114764   7.087   1.362   6.559 -0.0090  0.2949  1.1420
 4716SOL    HW214765   7.087   1.498   6.627 -1.1079  1.1095 -0.4197
 4717SOL     OW14766   4.758   6.464   3.875 -0.5231 -0.0710 -0.4828
 4717SOL    HW114767   4.685   6.473   3.936  0.4391 -0.5429  0.7853
 4717SOL    HW214768   4.793   6.553   3.865  0.6194 -0.2805  1.3545
 4718SOL     OW14769   1.905   3.072   3.704  0.2763  0.7748 -0.2059
 4718SOL    HW114770   1.840   3.006   3.728  0.8193  0.8400  1.6279
 4718SOL    HW214771   1.977   3.021   3.666  0.1401  0.4307 -0.0131
 4719SOL     OW14772   2.430   6.687   0.864  0.0420 -0.3705  0.2017
 4719SOL    HW114773   2.342   6.707   0.897  0.5949  0.4579  1.2659
 4719SOL    HW214774   2.482   6.672   0.944  1.6644  2.6098 -0.1420
 4720SOL     OW14775   4.684   0.818   3.999  0.5672 -0.3984 -0.1729
 4720SOL    HW114776   4.668   0.828   3.905 -2.0755  0.8546  0.3394
 4720SOL    HW214777   4.714   0.727   4.008  3.5666  0.2108 -2.4578
 4721SOL     OW14778   4.273   0.675   3.369 -0.3201 -0.4938  0.0648
 4721SOL    HW114779   4.202   0.612   3.359 -0.3795 -0.5863  1.0259
 4721SOL    HW214780   4.341   0.646   3.308 -0.7177 -0.9520 -0.1599
 4722SOL     OW14781   2.595   3.904   2.952 -0.1481 -0.8073  0.2978
 4722SOL    HW114782   2.580   3.872   3.041  1.4728  0.7042  1.1879
 4722SOL    HW214783   2.521   3.961   2.934  0.7779  1.0005  1.8129
 4723SOL     OW14784   5.045   2.386   0.488  0.3024 -0.3138 -0.3663
 4723SOL    HW114785   4.978   2.415   0.550  0.1267 -0.1700 -0.6194
 4723SOL    HW214786   4.998   2.377   0.405  0.5955 -0.2217 -0.5429
 4724SOL     OW14787   6.932   7.197   2.534  0.4853 -0.6679 -0.2248
 4724SOL    HW114788   6.970   7.184   2.447 -0.3735 -0.6592 -0.6142
 4724SOL    HW214789   6.892   7.284   2.531  1.2383 -0.2877  0.4858
 4725SOL     OW14790   5.188   1.811   2.471  0.1287 -0.3150  0.1292
 4725SOL    HW114791   5.196   1.877   2.402  1.3447  0.4031  0.9290
 4725SOL    HW214792   5.251   1.743   2.447  1.9812  0.8419  1.4787
 4726SOL     OW14793   0.366   5.496   5.851  0.4207  0.3027  0.4627
 4726SOL    HW114794   0.364   5.481   5.757 -1.5632 -3.4939  0.9465
 4726SOL    HW214795   0.278   5.527   5.873  0.4444 -0.1305  1.2149
 4727SOL     OW14796   6.771   1.501   1.538 -0.2629  0.1589 -1.2465
 4727SOL    HW114797   6.757   1.585   1.495 -1.8874  2.0302  2.4923
 4727SOL    HW214798   6.861   1.504   1.570 -0.3998  0.6116 -0.8981
 4728SOL     OW14799   3.408   4.057   2.280 -0.4786 -0.0171  0.2466
 4728SOL    HW114800   3.393   3.970   2.317  1.3425 -0.5287 -0.1441
 4728SOL    HW214801   3.331   4.073   2.225 -2.1766 -0.1757  2.4015
 4729SOL     OW14802   2.972   3.645   1.799  0.8214 -0.4920  0.2294
 4729SOL    HW114803   3.061   3.635   1.764  0.2475  0.1005 -1.4635
 4729SOL    HW214804   2.915   3.607   1.732 -0.2080 -1.2573  1.4862
 4730SOL     OW14805   3.212   0.659   3.265 -0.1619  0.0904  0.1615
 4730SOL    HW114806   3.185   0.658   3.173  0.3117  1.3125 -0.0102
 4730SOL    HW214807   3.133   0.638   3.313 -0.3231 -0.9838 -0.5328
 4731SOL     OW14808   0.526   1.415   2.456  0.4948  0.2197 -0.0031
 4731SOL    HW114809   0.591   1.484   2.442  0.7293  0.0096  0.0487
 4731SOL    HW214810   0.442   1.462   2.460  0.6501  0.4997  0.0141
 4732SOL     OW14811   5.915   0.978   3.551  0.3704 -0.2148  0.4771
 4732SOL    HW114812   5.993   1.007   3.504 -0.9591 -0.4901 -2.1333
 4732SOL    HW214813   5.897   0.891   3.516 -1.8412  0.3923 -0.1061
 4733SOL     OW14814   4.878   6.139   2.457  0.1725  0.1314  0.4711
 4733SOL    HW114815   4.900   6.047   2.439  0.7871  0.1149  1.2940
 4733SOL    HW214816   4.868   6.178   2.370 -2.0783 -1.1633  0.0699
 4734SOL     OW14817   1.241   0.818   6.942 -0.0171 -0.1600 -0.0517
 4734SOL    HW114818   1.273   0.809   6.852 -0.8093  0.5814 -0.4279
 4734SOL    HW214819   1.306   0.872   6.986  0.6223 -0.9210 -0.0269
 4735SOL     OW14820   1.167   2.576   0.753 -0.2141 -0.1199 -0.5733
 4735SOL    HW114821   1.208   2.503   0.800 -1.5140  0.3828  1.4669
 4735SOL    HW214822   1.192   2.562   0.662  2.0429 -1.4347  0.1527
 4736SOL     OW14823   1.754   7.027   5.818 -0.4362 -0.2067  0.1532
 4736SOL    HW114824   1.755   7.120   5.795  0.2162 -0.2575 -0.0570
 4736SOL    HW214825   1.702   7.022   5.898 -0.5821  0.3231  0.0919
 4737SOL     OW14826   2.221   0.507   2.054 -0.3806  0.2038 -0.5025
 4737SOL    HW114827   2.180   0.554   2.127  0.9180 -1.2812  1.2756
 4737SOL    HW214828   2.207   0.414   2.074  1.2970 -0.2726 -1.3407
 4738SOL     OW14829   4.175   6.079   1.957  0.7015 -0.2158  0.0361
 4738SOL    HW114830   4.243   6.039   1.903  2.0708  1.0901  0.7159
 4738SOL    HW214831   4.200   6.059   2.047  0.5398  0.7671  0.3212
 4739SOL     OW14832   3.096   4.876   1.844 -0.0824  0.3304 -0.3994
 4739SOL    HW114833   3.147   4.804   1.807 -0.3056 -0.9065  1.5701
 4739SOL    HW214834   3.157   4.950   1.845  1.7782 -1.0920  1.8909
 4740SOL     OW14835   2.483   5.122   3.009  0.0677 -0.1883  0.1684
 4740SOL    HW114836   2.475   5.128   2.914 -0.1215  1.2057  0.2548
 4740SOL    HW214837   2.566   5.077   3.024  0.9479  1.0868 -0.6568
 4741SOL     OW14838   3.929   6.115   3.693 -0.0437  0.3226 -0.0216
 4741SOL    HW114839   4.022   6.092   3.691  0.4939  2.0427  1.9186
 4741SOL    HW214840   3.907   6.135   3.602  0.4863 -3.4365 -1.1663
 4742SOL     OW14841   6.988   2.424   1.443  0.9287  0.0750  0.1026
 4742SOL    HW114842   7.025   2.508   1.414  2.2288 -0.0315  1.3532
 4742SOL    HW214843   7.063   2.366   1.450  0.4039 -0.4654  1.7032
 4743SOL     OW14844   1.405   7.060   6.645  0.6721  0.1850 -0.1940
 4743SOL    HW114845   1.413   6.966   6.632  1.4497  0.3611 -1.1191
 4743SOL    HW214846   1.374   7.070   6.735  1.1085 -0.9308  0.0875
 4744SOL     OW14847   1.621   4.098   6.424 -0.3191 -0.4853  0.0073
 4744SOL    HW114848   1.544   4.053   6.457 -1.7330  0.3436 -1.9929
 4744SOL    HW214849   1.625   4.179   6.476 -1.6489  0.1291 -0.8218
 4745SOL     OW14850   0.472   4.405   0.018  0.3293 -0.2400 -0.6256
 4745SOL    HW114851   0.469   4.487  -0.031 -0.8449  1.1285  1.5460
 4745SOL    HW214852   0.562   4.399   0.051  0.9191 -0.8021 -2.2516
 4746SOL     OW14853   5.191   4.313   7.067 -0.3624 -0.2246  0.3548
 4746SOL    HW114854   5.268   4.261   7.045 -1.5205 -1.5701 -0.7314
 4746SOL    HW214855   5.220   4.370   7.138  2.1098  0.5915 -1.1754
 4747SOL     OW14856   6.607   0.877   1.567 -0.0043  0.4375  0.6744
 4747SOL    HW114857   6.661   0.907   1.494 -0.5990 -3.0573 -1.4253
 4747SOL    HW214858   6.529   0.932   1.563 -0.1996  0.1063 -1.6525
 4748SOL     OW14859   7.239   6.878   3.901 -0.1470  0.0622 -0.2568
 4748SOL    HW114860   7.319   6.828   3.881 -0.9752 -0.9761 -1.0680
 4748SOL    HW214861   7.171   6.838   3.847 -1.1703  1.1270  0.1950
 4749SOL     OW14862   4.406   3.687   3.908  0.7888  0.1271  0.1486
 4749SOL    HW114863   4.410   3.729   3.994  1.9304  3.0402 -1.1863
 4749SOL    HW214864   4.496   3.689   3.876  0.3463 -0.6414 -1.2190
 4750SOL     OW14865   6.183   0.006   1.343 -0.0764 -0.5261 -0.0043
 4750SOL    HW114866   6.110   0.061   1.373  0.4951  0.0553  0.3596
 4750SOL    HW214867   6.165  -0.010   1.251 -0.3215  0.1773 -0.0834
 4751SOL     OW14868   0.841   6.715   0.328  0.1443 -0.2912 -0.0185
 4751SOL    HW114869   0.791   6.649   0.281  1.1972 -0.9314 -0.2840
 4751SOL    HW214870   0.870   6.671   0.408 -0.3310  0.3040  0.4865
 4752SOL     OW14871   7.151   7.078   1.082 -0.0260  0.0290  0.2194
 4752SOL    HW114872   7.186   7.149   1.135 -1.5719  0.9065  0.1108
 4752SOL    HW214873   7.181   6.998   1.127  1.0003  0.7299  0.8215
 4753SOL     OW14874   4.183   2.569   3.656 -0.3467 -0.1581 -0.1468
 4753SOL    HW114875   4.190   2.474   3.663 -0.1571 -0.1898 -0.7152
 4753SOL    HW214876   4.271   2.602   3.675 -0.9373  0.0855  2.5782
 4754SOL     OW14877   5.232   1.389   1.310 -0.4889 -0.3612  0.5691
 4754SOL    HW114878   5.201   1.447   1.381 -1.5874 -0.1323 -0.0694
 4754SOL    HW214879   5.153   1.342   1.283 -0.3993  0.5487 -1.4197
 4755SOL     OW14880   3.083   1.437   2.399  0.1672 -0.0411 -0.7958
 4755SOL    HW114881   3.134   1.407   2.473 -0.5398  0.8177  0.0735
 4755SOL    HW214882   3.040   1.358   2.366  0.0796 -0.3585  0.0455
 4756SOL     OW14883   6.838   6.578   2.648 -0.6666 -0.3860  0.5952
 4756SOL    HW114884   6.788   6.530   2.583  0.3866  1.1535 -1.4505
 4756SOL    HW214885   6.827   6.670   2.624  1.7472  0.0939  1.0788
 4757SOL     OW14886   1.568   6.259   2.778  0.0638  0.0065  0.7471
 4757SOL    HW114887   1.659   6.249   2.748  0.3647 -0.9030  1.8748
 4757SOL    HW214888   1.536   6.169   2.785 -0.8053  0.3125  0.7104
 4758SOL     OW14889   1.190   5.481   7.118 -0.2272 -0.3795  0.8919
 4758SOL    HW114890   1.249   5.439   7.180  0.5552  0.2012  0.5483
 4758SOL    HW214891   1.102   5.463   7.154  0.2045 -0.0732  2.1587
 4759SOL     OW14892   0.411   7.138   6.355 -0.0437  0.3054 -0.0437
 4759SOL    HW114893   0.376   7.226   6.342 -0.1181  0.6174  2.0677
 4759SOL    HW214894   0.444   7.114   6.268 -2.2435  1.3884 -1.2722
 4760SOL     OW14895   5.232   6.297   5.625 -0.1156  0.3931  0.7534
 4760SOL    HW114896   5.235   6.241   5.702  0.6825 -0.7409 -0.0667
 4760SOL    HW214897   5.148   6.341   5.631 -0.7757 -0.8907  1.4571
 4761SOL     OW14898   4.085   4.157   5.493  0.7461 -0.6333 -0.8001
 4761SOL    HW114899   4.028   4.081   5.504  0.6208 -0.4681 -0.2816
 4761SOL    HW214900   4.026   4.230   5.475  0.8424 -0.5918 -0.9514
 4762SOL     OW14901   5.754   2.417   3.265 -0.3953  0.7105 -0.0509
 4762SOL    HW114902   5.812   2.493   3.258 -0.1654  0.4710 -0.9029
 4762SOL    HW214903   5.799   2.349   3.215 -0.6172  0.0178  0.6751
 4763SOL     OW14904   1.555   4.006   5.977  0.1323 -0.0233 -0.5232
 4763SOL    HW114905   1.585   4.055   5.900 -1.1898  0.0226 -1.0310
 4763SOL    HW214906   1.477   3.960   5.948 -0.3468 -0.0782  0.7736
 4764SOL     OW14907   4.504   2.051   3.909 -0.2136 -0.1607 -0.1765
 4764SOL    HW114908   4.595   2.074   3.890 -0.0984 -1.1975 -0.9568
 4764SOL    HW214909   4.510   1.987   3.981 -0.3437  0.0343  0.0072
 4765SOL     OW14910   1.159   0.524   6.676  0.1822  0.4040  0.3390
 4765SOL    HW114911   1.232   0.585   6.688 -1.1792  1.8052  1.9085
 4765SOL    HW214912   1.202   0.440   6.657  2.1033  1.8224 -2.1520
 4766SOL     OW14913   6.016   0.780   1.273  0.4587 -0.2740  0.1405
 4766SOL    HW114914   5.992   0.743   1.188  0.4667 -2.2785  0.9482
 4766SOL    HW214915   6.089   0.725   1.303  1.8153  1.6603  0.5864
 4767SOL     OW14916   0.548   6.540   5.553  0.0620  0.1536 -0.3698
 4767SOL    HW114917   0.586   6.542   5.466  2.1668 -0.6843  0.4486
 4767SOL    HW214918   0.487   6.614   5.556  0.3409  0.4949 -2.3509
 4768SOL     OW14919   3.065   6.086   1.481 -0.0688  0.0836  0.0360
 4768SOL    HW114920   3.004   6.159   1.472 -0.7965 -0.5222 -0.0738
 4768SOL    HW214921   3.137   6.108   1.422 -0.9212  0.0873 -1.0508
 4769SOL     OW14922   5.968   3.338   2.980 -0.0006 -0.0256 -0.1708
 4769SOL    HW114923   6.058   3.346   2.949  0.4443  2.0391  1.4466
 4769SOL    HW214924   5.919   3.401   2.927 -0.1985 -0.0956 -0.0698
 4770SOL     OW14925   0.847   5.285   5.013  0.2571  0.2813  0.2939
 4770SOL    HW114926   0.866   5.192   5.007 -0.2379  0.1903  0.1162
 4770SOL    HW214927   0.881   5.322   4.931 -0.9803 -0.0010 -0.3741
 4771SOL     OW14928   5.397   4.456   5.119  0.5201  0.4291 -0.3965
 4771SOL    HW114929   5.360   4.479   5.204 -0.5824 -0.1356 -0.7064
 4771SOL    HW214930   5.491   4.445   5.136  0.7648  2.8452  0.2080
 4772SOL     OW14931   7.171   5.083   7.092 -0.2579 -0.0571 -0.3418
 4772SOL    HW114932   7.224   5.004   7.098  0.6656  0.6423  1.3593
 4772SOL    HW214933   7.113   5.079   7.167  0.4313  1.2799  0.3053
 4773SOL     OW14934   3.575   5.099   4.675 -0.0342  0.1650 -0.2717
 4773SOL    HW114935   3.618   5.073   4.756 -1.5389  1.8010  1.1240
 4773SOL    HW214936   3.526   5.021   4.648  0.2424 -0.3051  0.5347
 4774SOL     OW14937   6.460   0.945   0.303 -0.4203  0.3902 -0.1726
 4774SOL    HW114938   6.441   0.884   0.374 -0.7704  0.6604 -0.0332
 4774SOL    HW214939   6.512   1.014   0.344  0.4245 -0.0666 -0.4377
 4775SOL     OW14940   7.064   4.777   3.252 -0.4851 -0.2181 -0.2032
 4775SOL    HW114941   7.033   4.797   3.163  1.1416  1.3473 -0.4886
 4775SOL    HW214942   7.077   4.863   3.292 -2.0351 -0.8922  1.9182
 4776SOL     OW14943   1.658   6.704   3.459  0.5650 -0.0294  0.8116
 4776SOL    HW114944   1.638   6.635   3.396  1.4224  1.3465 -1.0721
 4776SOL    HW214945   1.586   6.700   3.523 -2.5729  0.9009 -2.3484
 4777SOL     OW14946   3.630   6.101   5.918  0.5578  0.1925 -0.3238
 4777SOL    HW114947   3.587   6.031   5.967 -2.2427  1.6495 -0.5001
 4777SOL    HW214948   3.710   6.120   5.967 -0.0017 -1.2754  1.2258
 4778SOL     OW14949   2.292   1.342   1.535  0.3327  0.4799  0.0249
 4778SOL    HW114950   2.348   1.289   1.479  0.0957 -0.5919  0.7768
 4778SOL    HW214951   2.237   1.392   1.474  1.5017  0.9118 -0.7059
 4779SOL     OW14952   2.186   1.712   6.470 -0.1972  0.1510 -0.1829
 4779SOL    HW114953   2.187   1.785   6.408  0.5505 -1.3254 -2.0247
 4779SOL    HW214954   2.194   1.753   6.556  1.7424  2.1862 -1.2237
 4780SOL     OW14955   5.987   2.290   6.720  0.2669 -0.1196  0.4497
 4780SOL    HW114956   5.901   2.322   6.746 -0.0084  1.0120 -1.5926
 4780SOL    HW214957   6.024   2.251   6.799 -3.1171 -3.0504  0.8095
 4781SOL     OW14958   0.213   3.360   2.266  0.3096  0.3851  0.3744
 4781SOL    HW114959   0.180   3.316   2.188 -2.3675 -0.8590  2.0680
 4781SOL    HW214960   0.141   3.416   2.295  1.0038  0.3900  2.2453
 4782SOL     OW14961   4.560   1.448   5.128 -0.1818  0.1455  0.7416
 4782SOL    HW114962   4.569   1.542   5.112  2.3081 -0.1473  0.0212
 4782SOL    HW214963   4.507   1.416   5.055  0.1080  0.7692  0.2565
 4783SOL     OW14964   6.266   1.670   3.908  0.2675 -0.0659  0.2300
 4783SOL    HW114965   6.180   1.640   3.938 -0.2905 -1.6541 -2.5450
 4783SOL    HW214966   6.254   1.684   3.814  3.0881 -0.5899 -0.2911
 4784SOL     OW14967   3.564   6.368   1.688  0.3624  0.2133 -0.4430
 4784SOL    HW114968   3.544   6.308   1.760 -1.4098 -0.1444 -1.1685
 4784SOL    HW214969   3.510   6.337   1.616  0.3218  1.9621 -1.2111
 4785SOL     OW14970   3.653   1.411   1.910 -0.2280 -0.2824 -0.2301
 4785SOL    HW114971   3.717   1.343   1.890 -0.0686  0.2745 -1.7665
 4785SOL    HW214972   3.589   1.368   1.967 -0.2995 -1.8267 -1.4041
 4786SOL     OW14973   6.586   1.985   6.719 -0.3424 -0.6548  0.2821
 4786SOL    HW114974   6.503   1.963   6.676  0.1593 -1.4386 -0.3118
 4786SOL    HW214975   6.626   1.900   6.738 -0.4374 -0.3296  2.1238
 4787SOL     OW14976   2.580   5.575   4.051  0.1211  0.2308 -0.4424
 4787SOL    HW114977   2.575   5.641   4.121 -1.5054  0.3673 -0.6544
 4787SOL    HW214978   2.498   5.585   4.003 -0.0571 -1.7839 -0.6416
 4788SOL     OW14979   6.389   4.293   3.234  0.4658  0.5876 -0.3663
 4788SOL    HW114980   6.343   4.209   3.235  0.2212  0.7180  0.5351
 4788SOL    HW214981   6.460   4.282   3.297  0.7105  0.9137 -0.5780
 4789SOL     OW14982   3.339   2.017   0.310 -0.4532 -0.3686  0.9376
 4789SOL    HW114983   3.336   2.090   0.372  1.1119 -0.1350  0.7682
 4789SOL    HW214984   3.401   1.955   0.348  2.0634  0.6314 -1.2180
 4790SOL     OW14985   1.709   7.121   7.244 -0.2036  0.3789  0.0991
 4790SOL    HW114986   1.709   7.066   7.322  0.6721  0.5205  0.2084
 4790SOL    HW214987   1.788   7.095   7.195  0.1623  1.4284  0.0936
 4791SOL     OW14988   7.121   5.656   4.611  0.3823 -0.1636  0.2451
 4791SOL    HW114989   7.122   5.570   4.569 -1.3595 -0.9741  1.6972
 4791SOL    HW214990   7.113   5.636   4.705 -0.1529  1.5817  0.5973
 4792SOL     OW14991   2.010   3.418   1.617  0.2898 -0.6787 -0.6381
 4792SOL    HW114992   1.955   3.360   1.670  0.5976 -0.0432  0.4223
 4792SOL    HW214993   2.098   3.408   1.654  0.2796  0.7328 -0.1747
 4793SOL     OW14994   7.026   2.327   5.913  0.6082  0.1991  0.6561
 4793SOL    HW114995   6.933   2.331   5.892  0.8885  1.5742 -0.4343
 4793SOL    HW214996   7.070   2.313   5.829  1.3505 -1.6528  1.2985
 4794SOL     OW14997   2.859   3.443   4.620  0.2435  0.0614  0.5039
 4794SOL    HW114998   2.950   3.457   4.646  1.0183 -2.7895 -0.3171
 4794SOL    HW214999   2.847   3.496   4.542  1.6856 -0.5791 -0.1935
 4795SOL     OW15000   0.100   6.445   5.310  0.4182  0.2000 -0.5787
 4795SOL    HW115001   0.093   6.536   5.339 -1.1261 -0.1275  0.2206
 4795SOL    HW215002   0.194   6.429   5.303  0.7209  1.7847 -0.5293
 4796SOL     OW15003   2.000   7.064   5.633  0.2032 -0.2728  0.1530
 4796SOL    HW115004   1.948   7.022   5.565  1.4400 -0.8902 -0.4322
 4796SOL    HW215005   1.991   7.006   5.709 -4.2018  2.1770  1.9276
 4797SOL     OW15006   1.101   5.726   7.015  0.3173 -0.0793  0.3053
 4797SOL    HW115007   1.140   5.789   7.076  1.4992 -0.8780  0.4039
 4797SOL    HW215008   1.135   5.641   7.043 -0.9438 -0.7286 -0.0644
 4798SOL     OW15009   0.986   5.538   0.400 -0.3862  0.1861 -0.4110
 4798SOL    HW115010   1.064   5.485   0.385  0.3981  0.7521  1.3244
 4798SOL    HW215011   0.982   5.547   0.496 -2.0253  0.9870 -0.5288
 4799SOL     OW15012   4.562   1.460   0.508  0.5939  0.3706 -0.0689
 4799SOL    HW115013   4.575   1.374   0.547 -0.2037  1.0865  1.9152
 4799SOL    HW215014   4.633   1.513   0.544 -1.2736  1.5500  2.1461
 4800SOL     OW15015   3.111   1.961   3.518  0.2335 -0.1162  0.4643
 4800SOL    HW115016   3.179   1.934   3.580  1.0940  1.3673  0.2149
 4800SOL    HW215017   3.152   1.950   3.432 -1.1783 -2.8191  0.0291
 4801SOL     OW15018   4.899   3.780   2.783  0.5792  0.1810  0.2487
 4801SOL    HW115019   4.940   3.722   2.718  1.1227 -0.1788  0.8930
 4801SOL    HW215020   4.894   3.727   2.862  1.1382  1.0276  0.8704
 4802SOL     OW15021   3.935   1.504   2.080 -0.5629 -0.2682 -0.2521
 4802SOL    HW115022   3.963   1.435   2.140 -2.4393 -0.2271  0.7368
 4802SOL    HW215023   4.017   1.539   2.044  0.4762 -2.3482 -0.0653
 4803SOL     OW15024   2.665   1.238   7.015 -0.1040  0.1176  0.0997
 4803SOL    HW115025   2.683   1.292   7.092 -0.0732  0.4363 -0.1295
 4803SOL    HW215026   2.580   1.198   7.033 -0.5280  0.9107 -0.0956
 4804SOL     OW15027   1.897   5.715   4.998 -0.0406 -0.3868  0.0633
 4804SOL    HW115028   1.902   5.729   4.904  1.1077 -2.7091 -0.2983
 4804SOL    HW215029   1.805   5.694   5.015  0.0753 -1.8440 -0.9092
 4805SOL     OW15030   0.814   0.468   5.944 -0.0557  0.2404 -0.7144
 4805SOL    HW115031   0.795   0.538   6.007 -1.1978 -1.3638  0.7888
 4805SOL    HW215032   0.745   0.476   5.878  0.8563  1.6061 -1.5715
 4806SOL     OW15033   6.186   0.356   6.634  0.5001 -0.2450  0.1325
 4806SOL    HW115034   6.225   0.392   6.714  0.5698 -0.7602  0.3361
 4806SOL    HW215035   6.238   0.278   6.615  2.1478  1.2186 -1.8556
 4807SOL     OW15036   4.000   1.117   3.410 -0.2173 -0.2149 -0.2511
 4807SOL    HW115037   3.973   1.047   3.351  0.2917 -0.4298 -0.2331
 4807SOL    HW215038   3.931   1.121   3.476 -0.1933 -0.7725 -0.1906
 4808SOL     OW15039   5.363   5.735   2.933 -0.1276  0.0815 -0.0209
 4808SOL    HW115040   5.334   5.708   3.020 -2.3842  1.2925 -0.3187
 4808SOL    HW215041   5.447   5.778   2.948 -0.4729  0.2529  1.5641
 4809SOL     OW15042   1.317   6.114   5.901  0.0966  0.2915  0.4204
 4809SOL    HW115043   1.284   6.202   5.915  0.4465  0.2462  1.6367
 4809SOL    HW215044   1.351   6.115   5.812 -0.4469  1.2064  0.2124
 4810SOL     OW15045   6.803   0.817   4.783  0.2199 -0.3346  0.0518
 4810SOL    HW115046   6.847   0.732   4.791 -0.2174 -0.3881  3.6222
 4810SOL    HW215047   6.873   0.881   4.786  0.5531 -0.4363 -2.6666
 4811SOL     OW15048   0.815   2.450   4.853 -0.0414  0.5722 -0.1057
 4811SOL    HW115049   0.893   2.475   4.902  1.1440 -2.0145 -0.5223
 4811SOL    HW215050   0.837   2.467   4.762 -0.1405  0.2496 -0.1909
 4812SOL     OW15051   0.572   3.976   7.069 -0.3405  0.0950 -0.8329
 4812SOL    HW115052   0.522   3.898   7.090 -1.6402  0.7010 -1.5677
 4812SOL    HW215053   0.556   4.036   7.141 -0.8909  0.3813 -1.1873
 4813SOL     OW15054   6.821   6.698   4.259 -0.0111  0.5188 -0.2547
 4813SOL    HW115055   6.766   6.669   4.331  1.6353 -0.9545  0.4967
 4813SOL    HW215056   6.860   6.780   4.289  0.5551 -0.0160  0.5074
 4814SOL     OW15057   2.658   0.814   2.585 -0.0339 -0.1669  0.4715
 4814SOL    HW115058   2.585   0.755   2.606 -0.1584 -1.7385 -3.5995
 4814SOL    HW215059   2.735   0.758   2.581  0.2528  0.3068 -1.3033
 4815SOL     OW15060   3.739   2.425   0.888 -0.0904  0.0629 -0.6299
 4815SOL    HW115061   3.653   2.461   0.864  0.3173  0.4020 -1.6328
 4815SOL    HW215062   3.721   2.334   0.910 -0.5364 -0.2569 -2.1716
 4816SOL     OW15063   1.137   4.127   5.277 -0.1967  0.0391  0.1246
 4816SOL    HW115064   1.046   4.153   5.258  0.1865  1.1911 -0.2286
 4816SOL    HW215065   1.184   4.146   5.196  0.3466 -0.6389  0.2781
 4817SOL     OW15066   7.198   0.805   1.876  0.1722  0.4766  0.2521
 4817SOL    HW115067   7.259   0.818   1.949  0.1587  0.5720  0.2466
 4817SOL    HW215068   7.249   0.828   1.798  0.5845 -0.8246  0.1115
 4818SOL     OW15069   5.463   5.739   0.702 -0.0265 -0.0071 -0.0519
 4818SOL    HW115070   5.495   5.722   0.791  1.3891 -0.6980 -0.6521
 4818SOL    HW215071   5.375   5.701   0.701  0.3199 -0.8871  0.7703
 4819SOL     OW15072   1.471   6.866   5.421 -0.5020  0.3094 -0.0018
 4819SOL    HW115073   1.439   6.777   5.406 -1.1111  0.6032 -0.4816
 4819SOL    HW215074   1.539   6.856   5.488 -0.9158 -0.4490  0.3178
 4820SOL     OW15075   5.246   5.941   3.496 -0.3212  0.3134  0.0070
 4820SOL    HW115076   5.297   5.956   3.575 -1.2514  0.9597  0.5086
 4820SOL    HW215077   5.220   5.849   3.502  0.6265  0.0265 -0.1720
 4821SOL     OW15078   1.053   1.568   1.495  0.4916 -0.7181  0.1333
 4821SOL    HW115079   1.080   1.478   1.515  2.7862  0.0355  0.7392
 4821SOL    HW215080   1.129   1.622   1.519 -0.8499  1.4064 -0.1213
 4822SOL     OW15081   0.671   0.969   5.608 -0.5698  0.4335  0.1312
 4822SOL    HW115082   0.684   0.908   5.535 -1.1828 -0.0417  0.3993
 4822SOL    HW215083   0.596   1.023   5.581 -1.1414 -0.0967  0.6158
 4823SOL     OW15084   1.851   0.656   2.159  0.3609  0.0929 -0.4697
 4823SOL    HW115085   1.878   0.573   2.120  2.2467 -0.3183  1.4649
 4823SOL    HW215086   1.773   0.634   2.210  0.2700 -0.2763 -0.7630
 4824SOL     OW15087   5.064   5.810   2.458  0.1647  0.0999 -0.2233
 4824SOL    HW115088   5.115   5.737   2.423 -1.3281 -1.4611  0.6864
 4824SOL    HW215089   5.077   5.805   2.553 -0.1309  0.8717 -0.1394
 4825SOL     OW15090   0.131   0.229   3.830  0.6193 -0.2036  0.1537
 4825SOL    HW115091   0.108   0.270   3.747 -1.1545  0.7256  1.0315
 4825SOL    HW215092   0.177   0.298   3.878  1.1582 -0.5609  0.1554
 4826SOL     OW15093   7.240   2.380   2.805 -0.2987  0.4274  0.0457
 4826SOL    HW115094   7.233   2.285   2.807  0.2065  0.3971  1.5963
 4826SOL    HW215095   7.222   2.408   2.895 -0.9178  1.8469 -0.4776
 4827SOL     OW15096   1.435   3.271   1.838 -0.3013 -0.3305  0.1321
 4827SOL    HW115097   1.404   3.198   1.892  0.1242 -1.0812 -0.6109
 4827SOL    HW215098   1.412   3.246   1.749 -0.6435  0.7176 -0.0867
 4828SOL     OW15099   2.398   5.391   0.034 -0.1317 -0.9191  0.5852
 4828SOL    HW115100   2.454   5.395   0.112 -0.7050  1.8153  0.9605
 4828SOL    HW215101   2.459   5.389  -0.039  0.4143 -3.4407  1.0163
 4829SOL     OW15102   3.560   4.058   3.794 -0.3510 -0.1260 -0.4884
 4829SOL    HW115103   3.597   3.970   3.796  0.2167  0.1249  0.8113
 4829SOL    HW215104   3.540   4.079   3.885 -0.1731  1.2189 -0.7264
 4830SOL     OW15105   2.597   5.885   5.532 -0.1824  0.0161 -0.2621
 4830SOL    HW115106   2.586   5.851   5.621 -0.2085 -2.8605 -1.2358
 4830SOL    HW215107   2.618   5.807   5.480 -1.6653  1.3461 -3.0433
 4831SOL     OW15108   2.309   4.212   2.585  0.0762  0.4485  0.4453
 4831SOL    HW115109   2.311   4.121   2.552 -1.8725  0.1864  0.9712
 4831SOL    HW215110   2.295   4.265   2.507  0.4921  0.2599  0.2337
 4832SOL     OW15111   2.364   2.527   6.949  0.0276  0.0622 -0.0106
 4832SOL    HW115112   2.343   2.611   6.990  0.0540 -0.5943  1.3862
 4832SOL    HW215113   2.456   2.511   6.971  0.2491  0.0052 -0.9096
 4833SOL     OW15114   2.525   2.988   2.850  0.3788 -0.3709  0.4351
 4833SOL    HW115115   2.438   3.007   2.814  1.3137  0.5221 -1.5107
 4833SOL    HW215116   2.510   2.917   2.911 -1.7815 -0.0075  0.4261
 4834SOL     OW15117   6.916   6.189   3.745 -0.2170 -0.3567 -0.3906
 4834SOL    HW115118   6.933   6.113   3.690 -0.2744 -0.7548  0.1255
 4834SOL    HW215119   6.977   6.256   3.715 -0.5192 -0.4376 -1.1894
 4835SOL     OW15120   6.130   6.196   2.890  0.2956  0.0637  0.8149
 4835SOL    HW115121   6.125   6.101   2.882 -0.8354  0.2507 -1.2671
 4835SOL    HW215122   6.141   6.211   2.984  1.3008 -2.1237  1.1109
 4836SOL     OW15123   4.645   3.555   5.685 -0.2301 -0.0532  0.2074
 4836SOL    HW115124   4.717   3.510   5.641 -0.3707  1.6429 -1.9276
 4836SOL    HW215125   4.571   3.495   5.678  0.4165 -0.8904  0.4660
 4837SOL     OW15126   5.141   2.983   1.272  0.7224 -0.6126  0.7791
 4837SOL    HW115127   5.175   3.029   1.349  1.0326  1.9898 -0.7491
 4837SOL    HW215128   5.219   2.945   1.231  0.8458 -0.3504  0.7657
 4838SOL     OW15129   3.307   1.994   5.029 -0.1357 -0.0484  0.2248
 4838SOL    HW115130   3.271   1.905   5.023  1.4286 -0.7075  0.0800
 4838SOL    HW215131   3.340   2.001   5.118 -0.0585  0.3056  0.1697
 4839SOL     OW15132   2.450   2.535   1.031  0.5156  0.1383 -0.5877
 4839SOL    HW115133   2.484   2.624   1.035 -1.0195  0.8141 -1.4756
 4839SOL    HW215134   2.453   2.503   1.121  0.9604  1.1284 -0.2408
 4840SOL     OW15135   2.919   3.160   6.826  0.5325  0.3863 -0.4342
 4840SOL    HW115136   3.013   3.179   6.821  0.7145 -0.7045 -1.7033
 4840SOL    HW215137   2.889   3.159   6.735 -0.9859  1.9047 -0.0041
 4841SOL     OW15138   6.688   2.702   5.860 -0.0412  0.4629 -0.4082
 4841SOL    HW115139   6.726   2.723   5.775 -1.8393  0.8459 -1.1549
 4841SOL    HW215140   6.626   2.632   5.842 -0.4037  0.5065  0.6104
 4842SOL     OW15141   5.012   0.493   6.241 -0.1544  0.0244  0.0172
 4842SOL    HW115142   5.057   0.462   6.320 -1.7680  1.6638  1.7171
 4842SOL    HW215143   4.927   0.523   6.274 -0.1038  2.6878 -2.0094
 4843SOL     OW15144   0.405   5.985   1.960 -0.2577 -0.2280  0.2323
 4843SOL    HW115145   0.498   5.966   1.976 -0.1782 -0.0158  0.0211
 4843SOL    HW215146   0.378   6.037   2.035  0.3160  1.4427 -0.6798
 4844SOL     OW15147   2.906   5.622   6.796 -0.3340 -0.4031  0.6093
 4844SOL    HW115148   2.890   5.644   6.704 -2.2102  0.8735  1.1731
 4844SOL    HW215149   2.878   5.530   6.803  2.4850 -1.4742 -0.6243
 4845SOL     OW15150   6.250   4.943   4.390  0.1313 -0.0650 -0.1710
 4845SOL    HW115151   6.218   4.973   4.475  0.4983  0.7787 -0.3178
 4845SOL    HW215152   6.298   4.862   4.409  0.8959  0.5432  0.5414
 4846SOL     OW15153   0.199   0.855   6.281  0.1769  0.8307  0.2132
 4846SOL    HW115154   0.188   0.925   6.345  0.5707 -0.1018  1.3231
 4846SOL    HW215155   0.293   0.853   6.265  0.0143  1.5301 -0.9667
 4847SOL     OW15156   5.540   0.625   3.049 -0.3946 -0.1814  0.1324
 4847SOL    HW115157   5.619   0.656   3.004 -0.2955  0.3880  0.6894
 4847SOL    HW215158   5.508   0.702   3.097 -1.2038 -0.4465  0.0296
 4848SOL     OW15159   3.220   6.569   2.231 -0.0561 -0.4433  0.3289
 4848SOL    HW115160   3.164   6.575   2.154 -1.8209 -0.5876  1.5363
 4848SOL    HW215161   3.242   6.476   2.238  1.8353 -0.1679 -1.1040
 4849SOL     OW15162   1.911   3.241   1.178  0.0674 -0.2177  0.5400
 4849SOL    HW115163   1.946   3.329   1.195  2.6499 -1.4076  1.7192
 4849SOL    HW215164   1.875   3.213   1.262  0.6906 -0.9019  0.5818
 4850SOL     OW15165   2.141   4.272   3.182  0.1821  0.2192  1.1693
 4850SOL    HW115166   2.085   4.348   3.171  0.2010  0.1255  0.3899
 4850SOL    HW215167   2.220   4.292   3.131 -1.2704 -1.7961 -2.2127
 4851SOL     OW15168   3.236   3.693   7.027  1.0786  0.1205  0.0463
 4851SOL    HW115169   3.287   3.614   7.010  0.1802 -0.4067 -0.2754
 4851SOL    HW215170   3.290   3.764   6.993  2.8103 -0.0966  2.1017
 4852SOL     OW15171   4.397   2.231   5.436  0.3409 -0.1683  0.4834
 4852SOL    HW115172   4.398   2.215   5.342  1.2923  0.6737  0.3404
 4852SOL    HW215173   4.406   2.325   5.445 -1.4040 -0.0375  1.4082
 4853SOL     OW15174   6.980   0.441   7.011  0.9181  0.0088 -0.2021
 4853SOL    HW115175   6.946   0.512   7.066  0.7490  0.0276 -0.3334
 4853SOL    HW215176   7.052   0.481   6.962  2.0435 -0.3655  1.0842
 4854SOL     OW15177   2.128   3.667   1.158  0.3017 -0.0081 -0.7884
 4854SOL    HW115178   2.183   3.740   1.187 -1.2576  1.4626 -1.3776
 4854SOL    HW215179   2.150   3.657   1.065  2.1660 -1.8728 -0.2262
 4855SOL     OW15180   2.210   0.813   4.907 -0.1004  0.0891  0.7833
 4855SOL    HW115181   2.155   0.827   4.985 -0.2544  0.9453  0.5271
 4855SOL    HW215182   2.294   0.783   4.943  0.6621  2.7483  1.5077
 4856SOL     OW15183   3.274   5.839   3.089  0.4467 -0.1330  0.2777
 4856SOL    HW115184   3.337   5.768   3.076 -0.1601 -0.6308 -0.0022
 4856SOL    HW215185   3.202   5.799   3.139  0.3301  0.4112  0.5502
 4857SOL     OW15186   1.654   3.962   3.201 -0.4770  0.0860  0.3800
 4857SOL    HW115187   1.695   3.877   3.215 -2.0326 -0.5299  1.4506
 4857SOL    HW215188   1.718   4.012   3.149  1.6744 -0.7374  2.1045
 4858SOL     OW15189   5.467   3.404   6.760 -1.1267 -0.2965  0.0804
 4858SOL    HW115190   5.549   3.405   6.810 -0.7802 -0.9173 -0.4574
 4858SOL    HW215191   5.410   3.466   6.806 -0.6478 -0.4753  0.9429
 4859SOL     OW15192   0.851   2.201   0.805  0.0035 -0.1463  0.2498
 4859SOL    HW115193   0.936   2.196   0.763  0.9155  2.0330  1.6597
 4859SOL    HW215194   0.815   2.112   0.798  1.7692 -0.7875 -1.5563
 4860SOL     OW15195   6.956   1.416   4.054 -0.4203 -0.0492 -0.0018
 4860SOL    HW115196   6.886   1.481   4.061  0.3929  0.8378  0.0883
 4860SOL    HW215197   7.016   1.437   4.125  0.2806 -0.3602 -0.4852
 4861SOL     OW15198   1.793   2.600   4.718  0.0245  0.5958  0.8586
 4861SOL    HW115199   1.865   2.661   4.705  0.1989  0.1456 -0.4473
 4861SOL    HW215200   1.753   2.627   4.801  1.6932  0.8395  1.6245
 4862SOL     OW15201   3.638   0.926   6.692 -0.4586  0.0160  0.2012
 4862SOL    HW115202   3.556   0.916   6.643  0.2976  0.0164 -1.1028
 4862SOL    HW215203   3.640   1.018   6.717  0.0592  0.5183 -1.5164
 4863SOL     OW15204   6.357   4.858   1.645 -0.3908 -0.0149  0.0959
 4863SOL    HW115205   6.417   4.915   1.596  0.3425  0.0156  1.0066
 4863SOL    HW215206   6.334   4.909   1.723 -1.4834 -0.0976 -0.1601
 4864SOL     OW15207   6.685   4.389   1.320  0.1511  0.2203  0.2395
 4864SOL    HW115208   6.744   4.451   1.277 -0.7088  0.9243  0.0477
 4864SOL    HW215209   6.624   4.362   1.252 -0.8020  0.8242  0.8355
 4865SOL     OW15210   3.189   0.132   2.794 -0.1308 -0.1587 -0.1549
 4865SOL    HW115211   3.161   0.135   2.885  0.5744  1.0290  0.0565
 4865SOL    HW215212   3.277   0.095   2.797 -0.5026 -1.0867 -0.4777
 4866SOL     OW15213   0.007   5.615   3.680  0.2570 -0.2651  0.7466
 4866SOL    HW115214   0.042   5.642   3.765 -0.8810 -0.8533  1.4230
 4866SOL    HW215215  -0.074   5.568   3.701  0.0023 -0.4978 -0.6601
 4867SOL     OW15216   0.361   2.162   4.418  0.1344  0.1216  0.0778
 4867SOL    HW115217   0.279   2.174   4.466 -0.1493  0.4412 -0.4762
 4867SOL    HW215218   0.429   2.174   4.484 -0.2714 -1.8873  0.9351
 4868SOL     OW15219   2.128   0.208   4.939 -0.0487  0.1184 -0.0566
 4868SOL    HW115220   2.069   0.155   4.993  0.2809 -0.7941 -0.5768
 4868SOL    HW215221   2.157   0.149   4.869 -0.0131  1.1114 -0.9064
 4869SOL     OW15222   3.040   4.537   6.737  0.2588  0.5320  0.1539
 4869SOL    HW115223   3.069   4.563   6.824 -1.0425 -0.1822  0.8321
 4869SOL    HW215224   3.024   4.443   6.744  0.5181  0.3865 -0.9780
 4870SOL     OW15225   4.989   4.753   4.018  0.1914  0.1328  0.2452
 4870SOL    HW115226   5.059   4.817   4.032  0.4346 -0.4658  1.9935
 4870SOL    HW215227   4.971   4.717   4.105 -1.4831 -0.5836 -0.3516
 4871SOL     OW15228   4.712   3.587   3.155  0.3953  0.1561  0.5007
 4871SOL    HW115229   4.776   3.519   3.137  0.2134  0.2311 -0.4848
 4871SOL    HW215230   4.669   3.559   3.236 -0.1397 -1.2498 -0.2387
 4872SOL     OW15231   5.954   0.022   6.659 -0.3997 -0.6473  0.3990
 4872SOL    HW115232   6.048   0.005   6.654  0.2615  2.0367  2.0164
 4872SOL    HW215233   5.946   0.116   6.644 -3.0669 -1.0741 -1.5799
 4873SOL     OW15234   2.224   6.179   3.247 -0.1970 -0.0171 -0.4220
 4873SOL    HW115235   2.169   6.253   3.222 -1.0276 -0.2733  0.5512
 4873SOL    HW215236   2.302   6.218   3.285  0.2814  0.3541 -1.7413
 4874SOL     OW15237   1.871   1.891   1.713 -0.1645 -0.3458  0.4486
 4874SOL    HW115238   1.812   1.948   1.665  2.1006  0.1761 -1.9646
 4874SOL    HW215239   1.907   1.947   1.782  1.1442  0.9180 -1.1596
 4875SOL     OW15240   0.398   2.391   4.228  0.1040  0.2540  0.1922
 4875SOL    HW115241   0.341   2.411   4.302 -0.5723 -0.6203 -0.0859
 4875SOL    HW215242   0.455   2.321   4.259  0.6261  0.6962  0.2612
 4876SOL     OW15243   4.616   4.698   0.671 -0.3829  0.0121 -0.0263
 4876SOL    HW115244   4.691   4.735   0.626 -1.8289 -0.9811 -3.5910
 4876SOL    HW215245   4.604   4.612   0.632 -2.1498 -0.7527  1.9587
 4877SOL     OW15246   1.543   1.788   2.171 -0.0507  0.2055 -0.3181
 4877SOL    HW115247   1.637   1.806   2.181  0.1382 -1.3262  0.9100
 4877SOL    HW215248   1.514   1.759   2.257 -1.0770 -1.8082 -1.2750
 4878SOL     OW15249   6.824   5.907   4.184 -0.0096 -0.7150 -0.2161
 4878SOL    HW115250   6.820   5.976   4.117  0.6311 -1.4033 -0.9918
 4878SOL    HW215251   6.802   5.951   4.266 -2.7283 -0.2036 -1.1123
 4879SOL     OW15252   4.341   5.400   1.378  0.0773 -0.1717  0.6311
 4879SOL    HW115253   4.386   5.317   1.370 -0.1689 -0.3009  0.5743
 4879SOL    HW215254   4.332   5.433   1.289 -0.1147 -0.2413  0.6231
 4880SOL     OW15255   3.058   1.700   5.868  0.0384 -0.3586 -0.9812
 4880SOL    HW115256   3.068   1.610   5.836  0.4851 -0.4543 -0.5892
 4880SOL    HW215257   2.964   1.714   5.871 -0.0829 -1.2135  0.0134
 4881SOL     OW15258   4.845   6.038   6.549  0.2500 -0.6163  0.3139
 4881SOL    HW115259   4.893   5.956   6.548  1.7362  0.1823  1.5095
 4881SOL    HW215260   4.788   6.032   6.625 -0.7465 -1.1147 -0.4569
 4882SOL     OW15261   4.027   4.993   3.817 -0.4168 -0.1255 -0.0920
 4882SOL    HW115262   4.026   5.063   3.883 -2.7182 -1.7979  1.8119
 4882SOL    HW215263   4.071   5.032   3.742  0.6970  2.5076  1.7618
 4883SOL     OW15264   3.284   5.936   2.470 -0.0282 -0.2289 -0.4742
 4883SOL    HW115265   3.219   6.001   2.497  1.6336  0.5878  1.9358
 4883SOL    HW215266   3.328   5.911   2.551  1.6478 -1.8862 -1.7950
 4884SOL     OW15267   1.237   1.823   2.479 -0.1893  0.8258 -0.4017
 4884SOL    HW115268   1.237   1.879   2.401 -0.3001 -0.6132 -1.4718
 4884SOL    HW215269   1.328   1.795   2.488 -0.2624  0.6292 -0.2745
 4885SOL     OW15270   4.666   2.628   2.892 -0.2947  0.1509  0.1444
 4885SOL    HW115271   4.591   2.609   2.948 -0.4108 -1.1519 -0.4316
 4885SOL    HW215272   4.730   2.559   2.911 -0.8373 -1.1120 -2.1771
 4886SOL     OW15273   4.615   6.140   1.069 -0.0108 -0.0661  0.6049
 4886SOL    HW115274   4.705   6.118   1.093  1.3541  2.6643 -1.4713
 4886SOL    HW215275   4.589   6.207   1.131 -1.4442 -2.1558  2.4013
 4887SOL     OW15276   2.934   0.278   2.459  0.4044 -0.5960  0.6337
 4887SOL    HW115277   2.888   0.362   2.450 -0.0207 -0.7627  1.1614
 4887SOL    HW215278   2.957   0.274   2.552  1.3681 -0.5883  0.4049
 4888SOL     OW15279   0.250   3.270   3.160 -0.0544  0.2164 -0.0465
 4888SOL    HW115280   0.230   3.327   3.086  0.7831  0.1878 -0.3020
 4888SOL    HW215281   0.312   3.320   3.213  1.2372 -0.7256 -0.6374
 4889SOL     OW15282   3.864   1.856   1.116 -0.1333 -0.0601 -0.4908
 4889SOL    HW115283   3.873   1.813   1.031  1.2188  1.0316 -0.9264
 4889SOL    HW215284   3.782   1.905   1.109  0.1035  0.2453 -1.2778
 4890SOL     OW15285   2.622   4.500   6.336 -0.6524 -0.1428  0.2961
 4890SOL    HW115286   2.705   4.453   6.328  0.2265  1.4155 -0.0065
 4890SOL    HW215287   2.622   4.562   6.264 -1.7063  0.4496  0.7790
 4891SOL     OW15288   4.012   6.365   5.367  0.2699  0.4843  0.6099
 4891SOL    HW115289   4.030   6.278   5.332 -0.2781  0.5844  0.0449
 4891SOL    HW215290   4.009   6.354   5.462  0.4333 -0.0678  0.5500
 4892SOL     OW15291   7.239   1.587   1.376 -0.4598  0.0575  0.5022
 4892SOL    HW115292   7.317   1.542   1.344 -0.0437  2.3784 -2.2400
 4892SOL    HW215293   7.273   1.664   1.423 -1.1170  0.1767  0.8071
 4893SOL     OW15294   5.657   5.332   1.373 -0.3075 -0.3931 -0.1153
 4893SOL    HW115295   5.690   5.416   1.341 -1.0608  0.1598  0.5151
 4893SOL    HW215296   5.712   5.267   1.331  0.4847  0.4337 -0.3829
 4894SOL     OW15297   3.372   5.234   1.362  0.1939 -0.1297 -0.4485
 4894SOL    HW115298   3.401   5.304   1.303  0.3016 -0.1869 -0.4628
 4894SOL    HW215299   3.447   5.219   1.419 -0.5444  1.3210  1.0221
 4895SOL     OW15300   4.117   1.933   6.861  0.1026 -0.3237  0.5965
 4895SOL    HW115301   4.091   1.970   6.777 -0.4192  0.7003  1.1882
 4895SOL    HW215302   4.054   1.863   6.876  2.0936 -2.6940 -1.3064
 4896SOL     OW15303   4.772   3.133   4.112 -0.4491 -0.4391 -0.2079
 4896SOL    HW115304   4.703   3.119   4.046 -1.2101 -0.0047  0.4783
 4896SOL    HW215305   4.729   3.182   4.182  0.5470 -0.2291  0.2772
 4897SOL     OW15306   4.266   5.157   5.879  0.5272  0.2491 -0.2550
 4897SOL    HW115307   4.345   5.110   5.906  1.1409  1.0390 -0.6375
 4897SOL    HW215308   4.266   5.236   5.933 -0.3715 -0.0604  0.2230
 4898SOL     OW15309   6.340   0.838   1.043  0.2682  0.7469  0.3236
 4898SOL    HW115310   6.309   0.819   0.954  0.9845  1.2769 -0.0404
 4898SOL    HW215311   6.293   0.917   1.069  0.5845  0.9888  0.1523
 4899SOL     OW15312   5.397   4.067   2.134  0.1770  0.2871 -0.1996
 4899SOL    HW115313   5.484   4.106   2.126  0.9223 -1.0772  0.6771
 4899SOL    HW215314   5.414   3.974   2.150 -1.2967  0.3901  2.8250
 4900SOL     OW15315   5.508   2.446   5.251 -0.1213  0.1604  0.1312
 4900SOL    HW115316   5.481   2.485   5.334 -1.4089  1.0312 -0.6680
 4900SOL    HW215317   5.445   2.375   5.237  1.1451 -1.1212  0.7203
 4901SOL     OW15318   2.192   0.353   3.334  0.2219 -0.1667  0.2768
 4901SOL    HW115319   2.113   0.349   3.388  0.8401  0.6610  1.2936
 4901SOL    HW215320   2.263   0.340   3.397  0.9055 -0.5515 -0.5716
 4902SOL     OW15321   1.985   7.000   4.836 -0.3381 -0.6957 -0.0506
 4902SOL    HW115322   1.995   6.940   4.763 -0.5512  0.5437 -1.1272
 4902SOL    HW215323   1.892   7.024   4.836  0.1428  1.4514 -1.1665
 4903SOL     OW15324   6.459   1.491   4.006  0.1627 -0.0594  0.7821
 4903SOL    HW115325   6.466   1.501   4.101  1.2136  0.0609  0.6969
 4903SOL    HW215326   6.392   1.555   3.980  1.2148  1.2714  1.2136
 4904SOL     OW15327   4.567   6.852   0.913 -0.1259  0.1593  0.3754
 4904SOL    HW115328   4.487   6.889   0.951 -0.4671 -0.5460  0.3544
 4904SOL    HW215329   4.635   6.872   0.977 -0.8023 -1.5745  1.7126
 4905SOL     OW15330   0.863   0.266   6.982  0.1523 -0.1307 -0.1824
 4905SOL    HW115331   0.795   0.333   6.975 -0.2862 -0.6984 -1.5824
 4905SOL    HW215332   0.923   0.284   6.910  0.6814 -0.5395  0.1452
 4906SOL     OW15333   1.989   4.201   5.329 -1.0151  0.2141  0.6453
 4906SOL    HW115334   1.961   4.110   5.328  2.3203 -0.9777  1.7977
 4906SOL    HW215335   2.044   4.211   5.251 -0.6887  0.9782  0.9558
 4907SOL     OW15336   5.311   2.214   3.066 -0.0101  0.5487  0.4232
 4907SOL    HW115337   5.250   2.159   3.116 -1.4782  0.9525 -0.8596
 4907SOL    HW215338   5.396   2.202   3.110 -0.5306 -1.7889  0.9041
 4908SOL     OW15339   5.503   0.780   6.642  0.2565 -0.1280  0.5887
 4908SOL    HW115340   5.489   0.868   6.678  0.2276  0.7330 -1.4024
 4908SOL    HW215341   5.419   0.758   6.602  0.5032 -0.7406  0.4040
 4909SOL     OW15342   2.588   0.518   0.399  0.5194 -0.3062  0.1205
 4909SOL    HW115343   2.501   0.490   0.426  0.6441 -0.9199 -0.1020
 4909SOL    HW215344   2.575   0.562   0.315  0.5945 -1.7028 -0.6522
 4910SOL     OW15345   6.013   4.503   3.529  0.4275  0.2785  0.1113
 4910SOL    HW115346   6.074   4.569   3.561 -0.1454  1.1990 -0.6340
 4910SOL    HW215347   6.036   4.492   3.437  0.8584 -0.9631  0.3536
 4911SOL     OW15348   5.590   2.546   0.155  0.8360  0.1300  0.3141
 4911SOL    HW115349   5.591   2.453   0.178  0.7207  0.6208  2.4633
 4911SOL    HW215350   5.523   2.584   0.211 -0.2349  1.2953 -1.6448
 4912SOL     OW15351   5.119   4.213   4.318  0.3398  0.5113  0.2562
 4912SOL    HW115352   5.034   4.204   4.360  0.1054  0.7801 -0.1560
 4912SOL    HW215353   5.182   4.198   4.388 -0.0421  1.5156  0.8308
 4913SOL     OW15354   0.455   4.182   1.920 -0.2474 -0.4104 -0.3232
 4913SOL    HW115355   0.408   4.193   2.003 -2.0969  0.6859 -1.4320
 4913SOL    HW215356   0.508   4.260   1.911 -1.7314  0.5616 -1.1285
 4914SOL     OW15357   2.137   4.505   0.942  0.1017  0.0012  0.0498
 4914SOL    HW115358   2.215   4.559   0.953  1.2778 -1.7485  0.7516
 4914SOL    HW215359   2.127   4.497   0.847  1.2870 -0.4048 -0.0655
 4915SOL     OW15360   5.935   2.654   4.434 -0.1352 -0.2542  0.0304
 4915SOL    HW115361   5.864   2.622   4.490  0.2572 -0.7101  0.2752
 4915SOL    HW215362   5.953   2.743   4.465  0.7503 -0.8473  1.3063
 4916SOL     OW15363   6.041   3.504   3.202  0.2406 -0.0248 -0.1550
 4916SOL    HW115364   6.130   3.476   3.182  0.9802  1.7569  0.5030
 4916SOL    HW215365   5.988   3.467   3.130  1.5076 -0.9331 -0.6670
 4917SOL     OW15366   1.614   0.568   0.564 -0.0715 -0.6880  0.4519
 4917SOL    HW115367   1.577   0.631   0.627  0.9880 -1.4377  1.8989
 4917SOL    HW215368   1.647   0.622   0.493 -0.0613  0.3180  1.1955
 4918SOL     OW15369   0.725   4.217   1.518  0.0331 -0.4867  0.3979
 4918SOL    HW115370   0.778   4.296   1.515  0.2738 -0.5711  1.8460
 4918SOL    HW215371   0.723   4.192   1.610 -0.1855 -2.0695  0.0026
 4919SOL     OW15372   1.007   6.378   5.862 -0.3065 -0.1005 -0.1581
 4919SOL    HW115373   0.972   6.397   5.775 -0.3255 -0.0910 -0.1485
 4919SOL    HW215374   0.981   6.288   5.879  0.0810 -0.2482 -0.3484
 4920SOL     OW15375   2.806   0.386   0.242  0.2142 -0.4358 -0.3441
 4920SOL    HW115376   2.889   0.430   0.260 -0.1971  1.0656 -1.9164
 4920SOL    HW215377   2.745   0.420   0.307 -0.2137  1.7633 -1.8066
 4921SOL     OW15378   3.067   5.519   2.949  0.3330  0.2043  0.6604
 4921SOL    HW115379   3.120   5.458   3.001  2.2801  0.5870 -0.7642
 4921SOL    HW215380   2.988   5.532   3.001  0.6000 -2.1922  1.8089
 4922SOL     OW15381   4.613   3.687   4.612 -0.6774  0.0279  0.2338
 4922SOL    HW115382   4.631   3.595   4.597  1.0075  0.2984  0.4877
 4922SOL    HW215383   4.663   3.710   4.690 -0.8246  1.2388 -0.0049
 4923SOL     OW15384   3.890   2.560   1.507  0.8203  0.5329  0.4040
 4923SOL    HW115385   3.846   2.644   1.495  0.6188  0.4127  0.2836
 4923SOL    HW215386   3.887   2.519   1.421 -0.0466 -0.0538  0.6947
 4924SOL     OW15387   1.442   4.719   1.865  0.5856 -0.0784  0.0804
 4924SOL    HW115388   1.360   4.705   1.819  0.0423 -0.9766  1.2481
 4924SOL    HW215389   1.443   4.812   1.886  1.2909  0.5516 -2.4794
 4925SOL     OW15390   5.740   3.746   5.585 -0.1577 -0.3935 -0.1419
 4925SOL    HW115391   5.662   3.691   5.574  0.1097 -0.8981  0.4197
 4925SOL    HW215392   5.772   3.724   5.673  0.6947 -0.2862 -0.4206
 4926SOL     OW15393   2.251   7.247   4.834  0.0735 -0.4910  0.4595
 4926SOL    HW115394   2.341   7.269   4.810 -0.3491 -1.2118 -2.0395
 4926SOL    HW215395   2.239   7.159   4.800 -1.7369 -0.2116  0.3181
 4927SOL     OW15396   4.859   2.318   6.783 -0.1006  0.3627  0.1827
 4927SOL    HW115397   4.918   2.270   6.724  1.0399  1.2049  0.6103
 4927SOL    HW215398   4.868   2.272   6.866 -0.5898  0.0737  0.0805
 4928SOL     OW15399   1.298   6.992   1.143 -0.1357  0.0806 -0.2180
 4928SOL    HW115400   1.393   6.997   1.134  0.0980 -3.3016 -1.0197
 4928SOL    HW215401   1.264   7.027   1.060  0.4795 -0.0311 -0.5178
 4929SOL     OW15402   1.493   3.997   2.356 -0.3969 -0.4551  0.0221
 4929SOL    HW115403   1.416   3.979   2.303  0.6295 -0.5960 -1.5088
 4929SOL    HW215404   1.534   3.911   2.369 -1.5939 -0.7161  2.7159
 4930SOL     OW15405   2.236   2.624   6.501  0.0749  0.5752  0.1497
 4930SOL    HW115406   2.291   2.584   6.434  0.8951  0.1204  1.0663
 4930SOL    HW215407   2.269   2.713   6.508  0.1757  0.5396  0.1376
 4931SOL     OW15408   1.474   1.980   3.564 -0.0968  0.0628 -0.4478
 4931SOL    HW115409   1.506   1.918   3.498 -1.2642 -0.1076 -0.8739
 4931SOL    HW215410   1.422   2.043   3.514  2.1365  2.2325 -0.2343
 4932SOL     OW15411   3.729   1.279   6.844  0.3657  0.4177  0.0368
 4932SOL    HW115412   3.809   1.331   6.855  1.4197 -1.0225 -0.4826
 4932SOL    HW215413   3.705   1.254   6.933  0.7605  0.4772  0.1657
 4933SOL     OW15414   7.048   5.098   0.071  0.1799 -0.0652 -0.5719
 4933SOL    HW115415   6.994   5.074   0.147  0.1235  0.4398 -0.4494
 4933SOL    HW215416   7.079   5.187   0.091 -0.8238  0.5592 -1.6971
 4934SOL     OW15417   5.136   4.609   0.970 -0.2205 -0.1679 -0.2624
 4934SOL    HW115418   5.110   4.517   0.976 -0.4949 -0.0350  0.6614
 4934SOL    HW215419   5.068   4.650   0.916 -0.8017 -0.2492  0.4001
 4935SOL     OW15420   0.436   0.881   2.535  0.7046 -0.0735  0.3982
 4935SOL    HW115421   0.346   0.850   2.540  0.7982 -0.1190  2.1837
 4935SOL    HW215422   0.460   0.904   2.625  2.1567  0.8715 -0.1773
 4936SOL     OW15423   0.673   2.863   3.833  0.8749 -0.7781 -0.3016
 4936SOL    HW115424   0.697   2.951   3.803 -1.0330  0.0751  0.5539
 4936SOL    HW215425   0.722   2.853   3.915  0.4660 -0.1727  0.0250
 4937SOL     OW15426   4.160   5.950   3.581 -0.5297 -0.8412 -0.0561
 4937SOL    HW115427   4.173   5.869   3.532 -1.4903 -0.6096 -0.7050
 4937SOL    HW215428   4.220   6.012   3.540 -1.7871 -0.4663 -1.4006
 4938SOL     OW15429   2.050   5.405   7.018  0.2970  0.3008  0.3336
 4938SOL    HW115430   2.132   5.396   7.067 -0.6905  0.8524  2.1826
 4938SOL    HW215431   2.035   5.499   7.013  0.2749  0.2470 -0.9117
 4939SOL     OW15432   6.421   5.986   4.633  0.3070 -0.2253 -0.3616
 4939SOL    HW115433   6.453   6.046   4.700  0.7671 -1.4913  0.6051
 4939SOL    HW215434   6.347   5.941   4.675 -0.0025 -0.3805 -1.0523
 4940SOL     OW15435   0.030   2.326   1.078  0.1441 -0.2860 -0.5559
 4940SOL    HW115436   0.019   2.256   1.015 -0.2769 -0.7811  0.0541
 4940SOL    HW215437   0.117   2.312   1.115  0.4365  0.0708 -1.0922
 4941SOL     OW15438   2.604   5.317   3.939  0.7708  0.2777 -0.5396
 4941SOL    HW115439   2.528   5.369   3.967  0.3242  0.0846 -1.3547
 4941SOL    HW215440   2.648   5.293   4.020 -0.1711  0.2088 -0.0339
 4942SOL     OW15441   4.588   0.234   1.901  0.2001 -0.6096  0.5864
 4942SOL    HW115442   4.609   0.144   1.924 -0.2442 -1.1198 -0.8547
 4942SOL    HW215443   4.493   0.234   1.890  0.2433 -0.0767  0.1649
 4943SOL     OW15444   4.986   5.797   5.385 -0.4896  0.2160  0.2599
 4943SOL    HW115445   4.959   5.881   5.422  0.7450  0.9427 -0.4265
 4943SOL    HW215446   5.075   5.812   5.355 -0.7724 -0.9104 -1.2454
 4944SOL     OW15447   6.294   0.443   4.895 -0.1877 -0.1720 -0.3146
 4944SOL    HW115448   6.228   0.376   4.874  0.6034 -0.5265 -1.7846
 4944SOL    HW215449   6.252   0.526   4.873 -0.0934 -0.4099 -1.4445
 4945SOL     OW15450   7.094   0.847   3.945  0.2616 -0.3724  0.5108
 4945SOL    HW115451   7.067   0.809   4.029 -0.5387  1.4113  1.1292
 4945SOL    HW215452   7.016   0.893   3.914  0.1022 -2.1290 -1.9522
 4946SOL     OW15453   3.501   4.425   1.517  0.2109  0.2944 -0.0234
 4946SOL    HW115454   3.554   4.428   1.437  0.7799 -0.6780  0.2918
 4946SOL    HW215455   3.466   4.336   1.518 -1.2496  0.8456 -0.0953
 4947SOL     OW15456   1.668   0.736   4.890  0.3391  0.2624 -0.1204
 4947SOL    HW115457   1.652   0.789   4.968 -0.6138  1.1517 -0.9073
 4947SOL    HW215458   1.589   0.682   4.881  0.0317  0.8435 -0.9968
 4948SOL     OW15459   2.097   3.543   6.829 -0.4032 -0.4265 -0.3077
 4948SOL    HW115460   2.143   3.609   6.881  1.1548 -0.4182 -1.6323
 4948SOL    HW215461   2.030   3.508   6.888  0.0103  0.9639  1.0369
 4949SOL     OW15462   0.879   0.263   0.861  0.1910  0.5593 -0.5302
 4949SOL    HW115463   0.884   0.273   0.956 -0.9267  1.4487 -0.5316
 4949SOL    HW215464   0.841   0.176   0.848  1.7684 -0.1914 -0.2203
 4950SOL     OW15465   2.077   4.853   4.444 -0.5028  0.1401 -0.4472
 4950SOL    HW115466   2.094   4.930   4.500 -0.6944  0.8844 -1.3826
 4950SOL    HW215467   2.158   4.802   4.450  0.2261  1.1872 -0.9954
 4951SOL     OW15468   3.550   5.416   5.911 -0.4119 -0.1695  0.4101
 4951SOL    HW115469   3.561   5.511   5.915 -0.1002 -0.2196  0.8997
 4951SOL    HW215470   3.561   5.388   6.002 -1.7596 -0.5459  0.4852
 4952SOL     OW15471   2.607   0.222   3.356  0.4670 -0.1249  0.5288
 4952SOL    HW115472   2.639   0.254   3.271  0.5690 -2.8714 -0.5645
 4952SOL    HW215473   2.686   0.202   3.405  0.4104 -0.5837  0.4323
 4953SOL     OW15474   6.847   1.090   4.508  0.0731  0.1775  0.2435
 4953SOL    HW115475   6.821   1.145   4.435 -1.0116  1.0439  1.2495
 4953SOL    HW215476   6.851   1.149   4.583  0.6055 -0.7900  1.0150
 4954SOL     OW15477   1.440   0.174   3.916 -0.2066  0.3447 -0.3769
 4954SOL    HW115478   1.499   0.245   3.889 -1.0924  0.7840 -1.2344
 4954SOL    HW215479   1.412   0.134   3.834 -1.1871  0.2346 -0.0006
 4955SOL     OW15480   3.153   2.926   6.000  0.1536  0.1777 -0.0109
 4955SOL    HW115481   3.096   2.870   5.947  0.3342 -0.9333  0.9225
 4955SOL    HW215482   3.113   3.012   5.995 -0.0128  0.0493 -1.6747
 4956SOL     OW15483   5.182   3.320   1.824 -0.0156  0.2559  0.7105
 4956SOL    HW115484   5.187   3.412   1.853  0.7104  1.2627 -2.2636
 4956SOL    HW215485   5.099   3.315   1.776  0.7872 -0.1030 -0.6837
 4957SOL     OW15486   3.764   3.990   2.651 -0.0500 -0.7553  0.1104
 4957SOL    HW115487   3.795   4.081   2.647  0.5714 -0.9476  0.4351
 4957SOL    HW215488   3.723   3.982   2.737 -0.8262 -0.5606 -0.2363
 4958SOL     OW15489   1.005   0.177   6.312  0.1266  0.0591  0.2078
 4958SOL    HW115490   1.045   0.157   6.228 -0.6348 -1.2791  0.1428
 4958SOL    HW215491   0.994   0.092   6.355  1.9428  0.7968  2.3670
 4959SOL     OW15492   1.510   7.098   4.188 -0.4591  0.3840 -0.1915
 4959SOL    HW115493   1.519   7.024   4.249  0.0730 -0.1288 -0.8756
 4959SOL    HW215494   1.419   7.127   4.198 -0.7769 -0.5940 -0.1782
 4960SOL     OW15495   6.388   2.811   1.663  0.3536  0.1042 -0.0678
 4960SOL    HW115496   6.347   2.814   1.577 -0.2524 -1.5869  0.1210
 4960SOL    HW215497   6.320   2.777   1.722  1.3188 -0.6180  0.6854
 4961SOL     OW15498   6.394   1.657   0.887 -0.1377 -0.8610  0.1594
 4961SOL    HW115499   6.387   1.598   0.811  0.5950 -1.0036  0.1894
 4961SOL    HW215500   6.489   1.669   0.899 -0.2254  1.9194 -1.0846
 4962SOL     OW15501   1.655   0.083   6.003  0.1239 -0.1581  0.1894
 4962SOL    HW115502   1.599   0.008   5.983 -0.6538  0.7127 -1.0810
 4962SOL    HW215503   1.593   0.152   6.029  0.8345 -0.0074  1.5206
 4963SOL     OW15504   6.088   5.825   3.273 -0.3426  0.0790 -0.5281
 4963SOL    HW115505   6.153   5.894   3.278  0.2494 -0.4713 -0.5072
 4963SOL    HW215506   6.083   5.803   3.180 -0.2972 -0.0676 -0.4964
 4964SOL     OW15507   2.632   3.703   7.165 -0.0967  0.2755 -0.2580
 4964SOL    HW115508   2.615   3.622   7.211 -0.9715  0.4800 -0.2131
 4964SOL    HW215509   2.656   3.765   7.234 -0.1248  0.2431 -0.2189
 4965SOL     OW15510   6.953   6.124   0.630 -0.5496 -0.5837  0.5392
 4965SOL    HW115511   7.042   6.142   0.601 -1.3393  1.0083 -1.0822
 4965SOL    HW215512   6.932   6.038   0.593 -0.0331 -0.5123  0.0679
 4966SOL     OW15513   0.743   4.408   6.805 -0.1212  0.0777  0.1466
 4966SOL    HW115514   0.808   4.388   6.872  0.4489 -0.5295 -0.5627
 4966SOL    HW215515   0.774   4.362   6.727 -0.3123  1.4550 -0.7800
 4967SOL     OW15516   6.614   1.101   5.635 -0.1713 -0.2196 -0.3115
 4967SOL    HW115517   6.657   1.028   5.679  2.0930  2.2428  1.9673
 4967SOL    HW215518   6.551   1.134   5.700 -0.2637  0.5670 -0.7918
 4968SOL     OW15519   4.628   4.004   2.111 -0.0767 -0.2878 -0.0892
 4968SOL    HW115520   4.619   4.091   2.149  1.1502 -0.1078 -0.1833
 4968SOL    HW215521   4.586   3.946   2.174  2.3889 -0.0665  1.8910
 4969SOL     OW15522   5.600   2.026   1.553  0.0111 -0.0236 -0.5267
 4969SOL    HW115523   5.531   2.063   1.498  1.1347  1.4558 -1.0355
 4969SOL    HW215524   5.680   2.036   1.501  0.4074 -3.6193 -0.8539
 4970SOL     OW15525   4.274   0.279   6.667 -0.5863 -0.2615  0.0023
 4970SOL    HW115526   4.217   0.353   6.689 -0.7567  0.4008 -2.3608
 4970SOL    HW215527   4.323   0.309   6.590  0.4099 -2.0897 -0.1339
 4971SOL     OW15528   5.968   3.795   0.435  0.6710 -0.0677 -0.6745
 4971SOL    HW115529   5.995   3.753   0.516  0.1110 -0.1726 -0.5389
 4971SOL    HW215530   5.926   3.725   0.385 -1.5882  0.6129  0.1533
 4972SOL     OW15531   0.752   2.364   2.749  0.0919  0.9310  0.1078
 4972SOL    HW115532   0.816   2.330   2.688 -0.6527  0.2115 -0.2909
 4972SOL    HW215533   0.687   2.408   2.694 -0.2327  0.8632  0.4298
 4973SOL     OW15534   6.161   4.795   5.547  0.2000  0.4385  0.5719
 4973SOL    HW115535   6.100   4.746   5.492 -0.7097 -0.5244  2.3669
 4973SOL    HW215536   6.246   4.755   5.530 -0.0100  0.3162 -0.2807
 4974SOL     OW15537   3.013   2.307   1.312 -0.3910  0.1397 -0.1176
 4974SOL    HW115538   3.097   2.295   1.356  0.2735  0.0156 -1.3956
 4974SOL    HW215539   2.968   2.223   1.323 -0.5257  0.3316  0.9007
 4975SOL     OW15540   2.822   1.707   2.933  0.3530  0.1790 -0.0219
 4975SOL    HW115541   2.801   1.689   3.025 -0.1794 -0.6900 -0.3017
 4975SOL    HW215542   2.772   1.642   2.884  1.1354  0.2162 -0.8976
 4976SOL     OW15543   4.164   0.397   3.322  0.1040  0.8630 -0.2922
 4976SOL    HW115544   4.108   0.322   3.339  0.5202  0.9211  1.5908
 4976SOL    HW215545   4.245   0.377   3.369  0.5729  2.0679 -0.5514
 4977SOL     OW15546   4.283   4.743   6.780 -0.0258  0.1130 -0.1522
 4977SOL    HW115547   4.351   4.791   6.732  0.1434  1.3936  1.2753
 4977SOL    HW215548   4.305   4.651   6.767  2.6652  0.4707  1.1240
 4978SOL     OW15549   4.805   1.081   4.826  0.1813 -0.8115  0.0383
 4978SOL    HW115550   4.751   1.058   4.751 -0.1352  0.1669 -0.0516
 4978SOL    HW215551   4.746   1.076   4.902  0.2654 -0.9130  0.0971
 4979SOL     OW15552   2.374   1.257   1.271 -0.2395  0.5722 -0.4552
 4979SOL    HW115553   2.449   1.317   1.277 -0.5471  1.1300 -1.8408
 4979SOL    HW215554   2.297   1.314   1.271 -0.6000  0.0911 -0.4296
 4980SOL     OW15555   2.398   6.812   3.192  0.1698 -0.6318 -0.4648
 4980SOL    HW115556   2.406   6.888   3.250 -0.1572  0.1608 -1.4439
 4980SOL    HW215557   2.305   6.806   3.173  0.1153 -1.6397  0.0592
 4981SOL     OW15558   3.305   6.975   1.522 -0.0363  0.2153  0.0161
 4981SOL    HW115559   3.274   6.999   1.434 -1.0696 -0.2894  0.2376
 4981SOL    HW215560   3.340   6.887   1.512  0.3072  0.3477  0.0156
 4982SOL     OW15561   4.615   6.700   1.156  0.2822  0.0749  0.0080
 4982SOL    HW115562   4.711   6.704   1.150  0.2433 -0.2498 -1.0757
 4982SOL    HW215563   4.595   6.607   1.147 -0.0488 -0.1431  2.2933
 4983SOL     OW15564   5.163   3.062   3.001  0.3012 -0.0273 -0.2987
 4983SOL    HW115565   5.210   3.124   2.945  1.1464  1.4068  1.8339
 4983SOL    HW215566   5.147   3.111   3.082 -2.0093 -1.5626  0.2630
 4984SOL     OW15567   3.056   2.743   2.466 -0.2128  0.2026 -0.0987
 4984SOL    HW115568   3.015   2.773   2.385 -0.6605  0.4952  0.2310
 4984SOL    HW215569   3.080   2.824   2.512 -0.0391  0.0395  0.1012
 4985SOL     OW15570   3.906   3.711   3.396 -0.1752 -0.0928  0.1072
 4985SOL    HW115571   3.887   3.785   3.455  0.6210 -1.5401  2.2896
 4985SOL    HW215572   3.973   3.744   3.337  0.4255  0.8395  1.2766
 4986SOL     OW15573   4.972   3.166   5.102 -0.7235  0.0389 -0.0361
 4986SOL    HW115574   4.989   3.095   5.163  2.0884 -0.8013 -1.6002
 4986SOL    HW215575   5.058   3.188   5.065 -1.9820  1.8018 -2.2425
 4987SOL     OW15576   2.783   5.168   2.982 -0.8625 -0.5401 -0.1249
 4987SOL    HW115577   2.813   5.180   3.072  4.4586 -1.5366 -1.4510
 4987SOL    HW215578   2.777   5.257   2.947 -0.2610 -0.2582  0.4645
 4988SOL     OW15579   2.888   4.792   6.210 -0.0005 -0.4322  0.0376
 4988SOL    HW115580   2.981   4.809   6.196 -0.4018  0.9748 -1.2480
 4988SOL    HW215581   2.862   4.854   6.278  0.0494 -1.0338  0.6148
 4989SOL     OW15582   6.690   4.312   4.636 -0.4989  0.3469 -0.2753
 4989SOL    HW115583   6.775   4.273   4.616 -0.3970 -0.9089  2.2693
 4989SOL    HW215584   6.665   4.274   4.720 -3.0562  1.5788 -0.3806
 4990SOL     OW15585   4.318   0.157   1.934 -0.4223  0.0504 -0.1261
 4990SOL    HW115586   4.292   0.173   2.025  1.1852  2.2037  0.0403
 4990SOL    HW215587   4.297   0.066   1.919 -0.1791 -0.5588  2.6251
 4991SOL     OW15588   4.151   6.486   0.887  0.2127  0.4096  0.4030
 4991SOL    HW115589   4.161   6.402   0.842  2.0511  0.6556  0.2990
 4991SOL    HW215590   4.239   6.522   0.892 -0.3990  1.8864  1.3481
 4992SOL     OW15591   4.202   6.274   0.172  0.5343  0.2609  0.0474
 4992SOL    HW115592   4.120   6.307   0.208  2.1705  2.3334  2.2049
 4992SOL    HW215593   4.190   6.179   0.169 -0.6029  0.0434  4.2111
 4993SOL     OW15594   1.751   1.203   4.227  0.0758  0.1082  0.0813
 4993SOL    HW115595   1.723   1.169   4.312  0.7472  0.5451  0.4874
 4993SOL    HW215596   1.804   1.133   4.189  0.4175  0.2055  0.3693
 4994SOL     OW15597   4.083   0.759   3.089  0.4104  0.3971  0.1385
 4994SOL    HW115598   4.072   0.669   3.058  0.3090  0.4814 -0.0680
 4994SOL    HW215599   4.029   0.764   3.168  2.0791 -0.3558  1.3805
 4995SOL     OW15600   5.106   2.866   2.392 -0.3271  0.3473  0.0929
 4995SOL    HW115601   5.093   2.959   2.411  0.7116  0.7107 -0.8637
 4995SOL    HW215602   5.068   2.854   2.305  2.2970  0.6561 -1.2152
 4996SOL     OW15603   3.199   7.183   5.013  0.1523 -0.0856 -0.0689
 4996SOL    HW115604   3.271   7.243   4.997 -0.4661  0.1920 -2.0847
 4996SOL    HW215605   3.236   7.115   5.070  2.1155 -0.1874 -1.3779
 4997SOL     OW15606   3.713   2.875   7.248  0.0284  0.1246 -0.8369
 4997SOL    HW115607   3.795   2.865   7.200  0.5659  2.6945 -0.5476
 4997SOL    HW215608   3.711   2.966   7.275 -1.9549 -0.3838  1.0005
 4998SOL     OW15609   1.405   0.415   0.831 -0.3045  0.0490 -0.1249
 4998SOL    HW115610   1.467   0.475   0.871  2.1122 -1.4231 -1.4124
 4998SOL    HW215611   1.370   0.462   0.755  1.0977  0.0986 -0.7663
 4999SOL     OW15612   5.212   0.259   1.675 -0.1381 -0.1202 -0.4174
 4999SOL    HW115613   5.239   0.224   1.760 -1.1199 -0.8632 -0.3853
 4999SOL    HW215614   5.126   0.219   1.660 -0.3333  0.6396 -1.3851
 5000SOL     OW15615   2.050   0.624   2.791 -0.3086  0.3327 -0.3537
 5000SOL    HW115616   1.981   0.677   2.750  0.1402  0.6696 -0.6752
 5000SOL    HW215617   2.120   0.685   2.811 -1.2595  0.5784  2.7707
 5001SOL     OW15618   2.275   5.818   6.924  0.2220  0.9380  0.5665
 5001SOL    HW115619   2.342   5.863   6.873  0.2273 -1.0130 -1.3019
 5001SOL    HW215620   2.309   5.729   6.936 -1.0586  0.5354  1.5293
 5002SOL     OW15621   5.964   0.438   1.430 -0.1130  0.1108  0.3455
 5002SOL    HW115622   6.026   0.427   1.502 -1.4828  0.6286  1.6656
 5002SOL    HW215623   6.019   0.457   1.354  1.5654 -2.8393  0.6345
 5003SOL     OW15624   5.697   5.405   0.791 -0.3260 -0.1505  0.1461
 5003SOL    HW115625   5.705   5.432   0.699  0.2354  0.2695  0.3132
 5003SOL    HW215626   5.776   5.353   0.807 -2.1004 -3.3334 -0.6199
 5004SOL     OW15627   0.879   5.217   3.558  0.3650 -0.7037  0.0674
 5004SOL    HW115628   0.785   5.232   3.556  0.2111 -1.4128  0.9532
 5004SOL    HW215629   0.918   5.302   3.539 -0.4549  0.0842  1.6665
 5005SOL     OW15630   4.988   6.254   1.359 -0.1042 -0.3223 -0.0000
 5005SOL    HW115631   4.938   6.184   1.317  1.6203 -1.9241  0.5020
 5005SOL    HW215632   4.952   6.258   1.448  0.8230 -1.6867  0.4594
 5006SOL     OW15633   5.407   2.905   4.236 -0.3879  0.1645  0.1651
 5006SOL    HW115634   5.380   2.822   4.197 -1.4547  0.9311 -0.7841
 5006SOL    HW215635   5.488   2.927   4.191  0.7048 -1.0439  1.4444
 5007SOL     OW15636   4.730   6.005   4.104  0.1252  0.3018 -0.1372
 5007SOL    HW115637   4.714   6.046   4.020  1.1344 -0.4870 -0.7388
 5007SOL    HW215638   4.804   5.946   4.089  1.0354  0.9261  1.5493
 5008SOL     OW15639   1.611   4.361   3.883  0.3815  0.3510  0.0064
 5008SOL    HW115640   1.698   4.369   3.842  0.5015  1.5417  0.4583
 5008SOL    HW215641   1.557   4.425   3.836  0.0488  0.4432  0.5130
 5009SOL     OW15642   5.051   0.202   5.248  0.4913  0.1453 -0.7686
 5009SOL    HW115643   5.142   0.173   5.253  0.8269  1.2345 -0.2765
 5009SOL    HW215644   5.019   0.195   5.337  0.6339  1.3968 -0.5991
 5010SOL     OW15645   3.656   6.284   0.573  0.2140 -0.2188  0.4056
 5010SOL    HW115646   3.621   6.197   0.594  1.9261 -0.2150  3.9164
 5010SOL    HW215647   3.740   6.266   0.531  0.5548 -0.2943  1.1050
 5011SOL     OW15648   1.845   0.287   3.164 -0.2428  0.4120 -0.5367
 5011SOL    HW115649   1.914   0.353   3.159  0.9313 -0.7794 -0.6948
 5011SOL    HW215650   1.781   0.324   3.225  0.3966  1.6565 -0.5775
 5012SOL     OW15651   1.539   6.006   3.364 -0.0692  0.0061  0.3755
 5012SOL    HW115652   1.572   6.029   3.450  1.3063  1.2105 -0.4184
 5012SOL    HW215653   1.594   5.932   3.336  0.9781  1.0250 -0.3273
 5013SOL     OW15654   5.928   0.616   3.716 -0.1570 -0.3930  0.3387
 5013SOL    HW115655   6.004   0.575   3.675 -1.1269 -0.8205 -1.0923
 5013SOL    HW215656   5.882   0.659   3.645 -1.3914 -0.3382  1.1371
 5014SOL     OW15657   2.832   1.097   0.995  0.4057  0.3146 -0.2768
 5014SOL    HW115658   2.798   1.072   0.909 -1.4279  2.0389 -0.1371
 5014SOL    HW215659   2.869   1.184   0.982 -1.0770  1.1665  0.8858
 5015SOL     OW15660   6.937   0.692   5.703  0.3549  0.1286  0.4317
 5015SOL    HW115661   7.030   0.706   5.720  0.3487 -1.3137  1.8102
 5015SOL    HW215662   6.929   0.698   5.608  1.4637  2.4185  0.4119
 5016SOL     OW15663   1.459   3.505   6.454  0.1824  0.4654 -0.5590
 5016SOL    HW115664   1.452   3.568   6.526 -0.5305  0.4305 -0.5900
 5016SOL    HW215665   1.391   3.440   6.473  0.5103  0.0311 -0.8512
 5017SOL     OW15666   7.131   2.234   2.467  0.6179 -0.0211  0.3829
 5017SOL    HW115667   7.099   2.253   2.379  2.1440 -0.0787 -0.2294
 5017SOL    HW215668   7.089   2.152   2.491 -0.4476  0.4166  0.0477
 5018SOL     OW15669   3.635   5.573   4.161 -0.0887  0.9598 -0.1696
 5018SOL    HW115670   3.607   5.657   4.198  2.6604  2.0678 -0.3484
 5018SOL    HW215671   3.730   5.573   4.171  0.0446 -1.9538 -0.6389
 5019SOL     OW15672   1.607   4.954   2.738  0.0193 -0.6021 -0.0102
 5019SOL    HW115673   1.644   5.040   2.719 -0.9033 -0.1784  0.0428
 5019SOL    HW215674   1.521   4.956   2.696  0.0585 -1.5653 -0.1553
 5020SOL     OW15675   5.698   0.288   5.926  0.1734 -0.2701  0.8051
 5020SOL    HW115676   5.716   0.237   5.847  0.9813 -1.2645  1.5939
 5020SOL    HW215677   5.604   0.305   5.923  0.5272  1.8489 -1.5768
 5021SOL     OW15678   2.870   5.905   5.433  0.4302  0.4622  0.0215
 5021SOL    HW115679   2.875   5.927   5.340  0.2305  1.3381  0.2126
 5021SOL    HW215680   2.821   5.822   5.436  0.0269  0.6725 -0.6134
 5022SOL     OW15681   5.779   1.501   7.226 -0.0321 -0.3680 -0.5224
 5022SOL    HW115682   5.797   1.501   7.132 -1.0708 -1.0251 -0.7411
 5022SOL    HW215683   5.749   1.590   7.244 -1.8216 -0.7690 -1.2588
 5023SOL     OW15684   0.942   4.794   6.111  0.4168 -0.8080 -0.0933
 5023SOL    HW115685   0.865   4.773   6.164  0.6937 -1.5206  0.0282
 5023SOL    HW215686   0.930   4.744   6.030 -0.6446  1.2205 -1.2950
 5024SOL     OW15687   0.902   2.852   2.428  0.3519 -0.1441 -0.2779
 5024SOL    HW115688   0.856   2.776   2.392  1.1391 -0.8253  0.1251
 5024SOL    HW215689   0.859   2.868   2.513 -0.5250  0.5488 -0.8298
 5025SOL     OW15690   7.191   6.929   6.841  0.4142 -0.3075 -0.0094
 5025SOL    HW115691   7.192   6.878   6.922 -0.2125  0.4931  0.5145
 5025SOL    HW215692   7.174   7.019   6.869  3.6476  0.6495 -0.6932
 5026SOL     OW15693   4.957   1.678   5.476  0.5909 -0.2834  0.2262
 5026SOL    HW115694   4.987   1.625   5.549 -0.5478 -1.1387  0.1106
 5026SOL    HW215695   4.907   1.617   5.421 -0.4482  0.8207 -0.1061
 5027SOL     OW15696   4.448   5.323   0.761  0.3625 -0.2434 -0.5669
 5027SOL    HW115697   4.396   5.316   0.681 -0.9644  0.2090  0.2244
 5027SOL    HW215698   4.460   5.232   0.790  1.7119 -0.4931 -1.7659
 5028SOL     OW15699   6.683   5.003   2.235 -0.2322 -0.6694  0.2844
 5028SOL    HW115700   6.716   4.918   2.203 -0.3276 -0.4550 -0.4066
 5028SOL    HW215701   6.739   5.067   2.191 -2.0349 -0.2530 -1.5594
 5029SOL     OW15702   5.829   6.329   7.027 -0.2384  0.0257  0.7821
 5029SOL    HW115703   5.850   6.345   7.118 -0.2275  1.6471  0.5173
 5029SOL    HW215704   5.871   6.400   6.979 -0.7843 -0.4316 -0.4212
 5030SOL     OW15705   6.291   4.629   7.198 -0.2025 -0.1674 -0.5624
 5030SOL    HW115706   6.243   4.576   7.262 -1.0841  0.0197 -1.0535
 5030SOL    HW215707   6.307   4.712   7.244 -0.1100 -0.3302 -0.2988
 5031SOL     OW15708   1.953   5.973   3.297  0.0252  0.0050  0.1527
 5031SOL    HW115709   1.971   5.986   3.390  2.2961  1.4274 -0.4107
 5031SOL    HW215710   1.890   6.042   3.274 -0.5693 -0.3753  0.6141
 5032SOL     OW15711   3.188   2.367   1.858  0.3226  0.2391  0.1033
 5032SOL    HW115712   3.235   2.441   1.819  0.9635 -0.4506 -0.4596
 5032SOL    HW215713   3.211   2.372   1.951  0.2426  0.8307  0.0982
 5033SOL     OW15714   5.040   5.387   3.130 -0.3622  0.1180 -0.2624
 5033SOL    HW115715   4.998   5.353   3.209 -1.6659 -0.3233 -1.1164
 5033SOL    HW215716   5.055   5.310   3.075  0.6897  0.4004 -0.3992
 5034SOL     OW15717   6.021   0.271   2.743  0.1338 -0.3577 -0.0111
 5034SOL    HW115718   5.978   0.349   2.708  0.3242 -0.0653  0.3961
 5034SOL    HW215719   6.108   0.270   2.703  0.0998 -0.4067 -0.0827
 5035SOL     OW15720   4.957   2.773   2.176 -0.6617 -0.6211 -0.2685
 5035SOL    HW115721   4.968   2.805   2.087  0.9359  1.9221  0.7028
 5035SOL    HW215722   4.989   2.683   2.175 -1.0696 -0.7767 -2.3024
 5036SOL     OW15723   5.841   6.488   2.614  0.1102  0.1768 -0.2864
 5036SOL    HW115724   5.935   6.483   2.634  0.0995  0.9222  0.0069
 5036SOL    HW215725   5.808   6.400   2.630  0.6613  0.0462  0.1715
 5037SOL     OW15726   4.022   1.395   6.112 -0.0124  0.3687 -0.4301
 5037SOL    HW115727   4.053   1.460   6.175 -0.3217  0.4935 -0.4007
 5037SOL    HW215728   3.959   1.342   6.162 -0.3477  0.5438 -0.6601
 5038SOL     OW15729   7.252   0.729   2.526 -0.7840  0.4907  0.0835
 5038SOL    HW115730   7.181   0.762   2.471 -0.3474 -0.7026 -1.2729
 5038SOL    HW215731   7.286   0.654   2.478  1.6807  1.2832  0.4398
 5039SOL     OW15732   3.752   6.416   0.058 -0.0598 -0.0030 -0.1604
 5039SOL    HW115733   3.732   6.339   0.005 -0.7612 -1.4438  2.0308
 5039SOL    HW215734   3.701   6.486   0.019 -1.1241 -1.1717 -0.9621
 5040SOL     OW15735   7.254   5.467   4.105 -0.3111  0.3597 -0.0725
 5040SOL    HW115736   7.192   5.521   4.055 -1.1071  0.3363  0.8490
 5040SOL    HW215737   7.321   5.528   4.135  0.6370  0.2463 -1.8008
 5041SOL     OW15738   7.106   6.722   1.622  0.1544  0.0002  0.0860
 5041SOL    HW115739   7.029   6.706   1.569  0.9302  1.0060 -1.4432
 5041SOL    HW215740   7.113   6.646   1.679 -1.5601 -0.4178 -0.2109
 5042SOL     OW15741   3.960   2.129   5.711 -0.4401 -0.1967 -0.1166
 5042SOL    HW115742   3.902   2.105   5.784  0.6448 -0.1060  0.7998
 5042SOL    HW215743   4.048   2.119   5.746  0.1042  0.2030 -1.3167
 5043SOL     OW15744   1.031   5.080   6.421 -0.4134  0.1925 -0.1536
 5043SOL    HW115745   1.090   5.056   6.492 -1.6777  0.2391  0.9610
 5043SOL    HW215746   1.070   5.041   6.343  0.9280 -0.0044  0.5905
 5044SOL     OW15747   3.035   1.248   7.084 -0.2098 -0.5191 -0.6952
 5044SOL    HW115748   3.071   1.255   7.172 -2.6002 -2.1315  0.5420
 5044SOL    HW215749   3.029   1.338   7.053 -0.3690  0.1976  1.2832
 5045SOL     OW15750   5.771   2.729   2.783 -0.4002  0.0086 -0.0775
 5045SOL    HW115751   5.718   2.807   2.766  1.4256  1.7490  1.7891
 5045SOL    HW215752   5.745   2.701   2.871 -1.7208 -2.1741 -1.0655
 5046SOL     OW15753   0.570   0.202   7.184 -0.4046  0.1255  0.8837
 5046SOL    HW115754   0.556   0.248   7.101 -0.4230 -0.2327  0.6877
 5046SOL    HW215755   0.540   0.264   7.250 -0.4282  0.3988  0.6201
 5047SOL     OW15756   6.814   1.226   6.257 -0.3755 -0.3183  0.4067
 5047SOL    HW115757   6.795   1.291   6.325  0.4663 -1.8326  2.2048
 5047SOL    HW215758   6.898   1.254   6.221 -0.3577 -0.0287  0.6629
 5048SOL     OW15759   0.362   5.119   0.212 -0.1720 -0.2655  0.2692
 5048SOL    HW115760   0.346   5.055   0.143 -0.0870 -1.1370  1.0354
 5048SOL    HW215761   0.364   5.067   0.293  0.5101  0.6245  0.8420
 5049SOL     OW15762   1.324   3.503   1.992 -0.0534  0.0741 -0.0618
 5049SOL    HW115763   1.313   3.470   2.081  0.3943  0.1854  0.0372
 5049SOL    HW215764   1.360   3.428   1.944 -1.6054 -0.4361 -0.4935
 5050SOL     OW15765   2.702   2.715   5.258  0.5097  0.0116 -0.4037
 5050SOL    HW115766   2.720   2.650   5.190 -0.2319  1.1633 -1.7360
 5050SOL    HW215767   2.683   2.663   5.336 -0.6726 -1.4033 -1.5780
 5051SOL     OW15768   3.581   0.168   5.847  0.4878 -0.0428  0.4147
 5051SOL    HW115769   3.671   0.153   5.819  0.4391 -0.5001  0.4920
 5051SOL    HW215770   3.527   0.140   5.773  0.4455  3.1601 -0.9349
 5052SOL     OW15771   5.905   5.087   3.973 -0.0944 -0.3707  0.2820
 5052SOL    HW115772   5.946   5.162   3.928  0.2125 -0.2492  0.7492
 5052SOL    HW215773   5.917   5.014   3.913  0.9617 -0.3714  0.4633
 5053SOL     OW15774   5.363   7.242   2.215 -0.5931 -0.1230  0.8408
 5053SOL    HW115775   5.336   7.301   2.144 -0.9665 -0.2276  0.8925
 5053SOL    HW215776   5.449   7.274   2.242  0.1947 -0.9262 -0.5964
 5054SOL     OW15777   6.476   0.074   1.849  0.3621 -0.7868 -0.3919
 5054SOL    HW115778   6.499   0.132   1.776  2.2713 -1.8193 -0.6779
 5054SOL    HW215779   6.389   0.040   1.827 -0.6937  1.6514 -0.3653
 5055SOL     OW15780   2.410   5.492   3.575  0.3039  0.0473 -0.0349
 5055SOL    HW115781   2.406   5.438   3.654  1.0618 -0.3237 -0.2403
 5055SOL    HW215782   2.496   5.533   3.579  0.2662  0.1813 -0.5640
 5056SOL     OW15783   4.628   5.120   0.541  0.1833  0.1606 -0.4683
 5056SOL    HW115784   4.713   5.160   0.563  0.0702  0.4532 -0.5566
 5056SOL    HW215785   4.649   5.029   0.518  0.2805 -0.2617  1.1587
 5057SOL     OW15786   4.426   3.452   3.222 -0.1219 -0.4637 -0.4872
 5057SOL    HW115787   4.379   3.534   3.212  0.5583 -0.1412 -1.2086
 5057SOL    HW215788   4.391   3.395   3.153  1.1434  0.0919 -1.6445
 5058SOL     OW15789   1.892   3.507   2.553 -0.1896 -0.2054 -0.0780
 5058SOL    HW115790   1.977   3.471   2.580 -0.1550 -0.6029 -0.6780
 5058SOL    HW215791   1.903   3.602   2.557  0.5050 -0.2445 -0.7852
 5059SOL     OW15792   1.326   6.632   5.678 -0.1557  0.0677 -0.2087
 5059SOL    HW115793   1.240   6.673   5.672  0.4561  1.2446 -1.3686
 5059SOL    HW215794   1.310   6.540   5.657 -0.9455  0.5334 -1.8115
 5060SOL     OW15795   6.155   5.283   7.084  0.2407 -0.3195  0.0407
 5060SOL    HW115796   6.162   5.252   7.174  0.3819 -0.7781 -0.1247
 5060SOL    HW215797   6.169   5.205   7.030 -0.7102 -0.2195 -0.3702
 5061SOL     OW15798   6.948   5.939   2.001  0.3561 -0.4563  0.3463
 5061SOL    HW115799   7.007   5.873   1.964 -0.3846 -0.0044 -1.7761
 5061SOL    HW215800   6.860   5.907   1.980 -0.0095  1.3386 -1.0436
 5062SOL     OW15801   2.403   3.289   4.091  0.3696 -0.0227 -0.1261
 5062SOL    HW115802   2.494   3.311   4.113  0.2971  1.7983 -1.4396
 5062SOL    HW215803   2.351   3.333   4.158  0.3719  1.0391 -0.8049
 5063SOL     OW15804   3.293   0.309   3.350 -0.1018  0.0726  0.2640
 5063SOL    HW115805   3.296   0.342   3.439  1.6332  0.8815 -0.0481
 5063SOL    HW215806   3.384   0.306   3.322 -0.6287  0.3161 -1.6528
 5064SOL     OW15807   5.822   0.185   1.749 -1.0567  0.0026  0.1367
 5064SOL    HW115808   5.735   0.198   1.785 -1.0517 -0.1838  0.2157
 5064SOL    HW215809   5.850   0.273   1.721  0.0017  0.6558  2.9269
 5065SOL     OW15810   3.714   4.442   5.221  0.3042  0.2297 -0.6187
 5065SOL    HW115811   3.774   4.451   5.146 -1.3485  1.2373 -1.8951
 5065SOL    HW215812   3.669   4.358   5.205  0.9344 -0.2354  0.0142
 5066SOL     OW15813   3.124   2.408   4.540  0.5572 -0.0691 -0.3229
 5066SOL    HW115814   3.153   2.376   4.625 -0.1024  1.0755  0.3629
 5066SOL    HW215815   3.060   2.343   4.510  1.1435 -0.7223 -0.1794
 5067SOL     OW15816   2.511   1.776   3.937  0.7323 -0.7229  0.2141
 5067SOL    HW115817   2.604   1.798   3.947  0.7173 -1.2369  1.9604
 5067SOL    HW215818   2.496   1.773   3.843  2.2819  0.1922 -0.0966
 5068SOL     OW15819   2.064   2.770   5.853 -0.1279  0.4524 -0.0496
 5068SOL    HW115820   2.099   2.712   5.785 -0.4838  0.1371  0.0378
 5068SOL    HW215821   2.131   2.769   5.921  0.0323  0.4281 -0.2054
 5069SOL     OW15822   6.238   6.468   3.200  0.7411 -0.2023  0.0497
 5069SOL    HW115823   6.277   6.455   3.287  0.7820 -0.6874 -0.0352
 5069SOL    HW215824   6.173   6.398   3.193  0.6543 -0.0890 -0.2659
 5070SOL     OW15825   3.292   4.298   6.445 -0.0177 -0.7103 -0.0262
 5070SOL    HW115826   3.364   4.321   6.387 -0.1887 -2.0031 -0.8103
 5070SOL    HW215827   3.308   4.347   6.525  1.3407 -0.4475 -0.4385
 5071SOL     OW15828   4.575   3.418   1.176  0.6290  0.5361  0.1147
 5071SOL    HW115829   4.500   3.393   1.230 -1.0623 -0.0334 -2.3258
 5071SOL    HW215830   4.618   3.335   1.155 -0.5674  0.3541 -1.8571
 5072SOL     OW15831   4.181   0.021   2.826  0.0610  0.1834  0.0239
 5072SOL    HW115832   4.087   0.037   2.821 -0.1780 -1.3924 -2.2933
 5072SOL    HW215833   4.201   0.025   2.919 -2.6018 -0.9111  0.7503
 5073SOL     OW15834   1.200   4.179   2.159  0.4303  0.0513 -0.4914
 5073SOL    HW115835   1.123   4.159   2.106 -1.1053  0.7137  1.3495
 5073SOL    HW215836   1.249   4.097   2.163 -0.1328 -0.3719 -1.7286
 5074SOL     OW15837   5.251   2.084   0.074  0.2879  0.4846  0.3509
 5074SOL    HW115838   5.249   2.084   0.169 -1.2746 -0.0100  0.3377
 5074SOL    HW215839   5.288   2.170   0.051  1.1158  0.4292  1.3793
 5075SOL     OW15840   4.817   2.418   1.746  0.3169  0.0815 -0.1680
 5075SOL    HW115841   4.780   2.494   1.703  1.7138  0.4984 -0.6981
 5075SOL    HW215842   4.907   2.444   1.769  0.9475 -1.4885 -0.6628
 5076SOL     OW15843   5.730   1.460   3.334  0.4889 -0.1239 -0.5099
 5076SOL    HW115844   5.651   1.451   3.387  0.8074  0.0493  0.0018
 5076SOL    HW215845   5.768   1.372   3.333  0.7832 -0.0092  0.0345
 5077SOL     OW15846   3.263   5.948   4.348 -0.0851 -0.6469  0.1428
 5077SOL    HW115847   3.245   6.038   4.320  0.6241 -0.6869 -0.4731
 5077SOL    HW215848   3.190   5.897   4.313  0.0964 -0.4833 -0.4794
 5078SOL     OW15849   3.740   4.353   4.094 -0.1134 -0.5319 -0.7666
 5078SOL    HW115850   3.834   4.348   4.106 -0.3395  0.4918  2.2748
 5078SOL    HW215851   3.707   4.391   4.176 -3.1224 -0.4067 -1.9052
 5079SOL     OW15852   4.265   4.934   1.050 -0.2639 -0.2896 -0.0588
 5079SOL    HW115853   4.255   4.841   1.030 -2.0037 -0.0317 -0.5128
 5079SOL    HW215854   4.312   4.935   1.134 -1.6529 -1.6302  0.7886
 5080SOL     OW15855   1.033   3.125   6.170 -0.4707  0.1418  0.3187
 5080SOL    HW115856   1.086   3.087   6.100 -0.6840 -0.7393  0.6216
 5080SOL    HW215857   0.977   3.189   6.125  0.2546  0.4884 -0.1211
 5081SOL     OW15858   3.835   6.418   3.084 -0.6155 -0.1360  0.6452
 5081SOL    HW115859   3.921   6.442   3.119  0.2380  0.7288 -1.8537
 5081SOL    HW215860   3.848   6.331   3.047 -1.0277 -0.2979  0.8745
 5082SOL     OW15861   2.054   3.890   5.272 -0.0490  0.3294 -0.2881
 5082SOL    HW115862   2.022   3.802   5.292  0.5270 -0.2733 -1.8857
 5082SOL    HW215863   1.983   3.932   5.225 -0.1973  0.6044  0.1786
 5083SOL     OW15864   6.083   2.750   2.102 -0.0719 -0.1533 -0.5813
 5083SOL    HW115865   5.996   2.738   2.139  0.1451 -3.1402 -0.8418
 5083SOL    HW215866   6.122   2.821   2.154 -1.3768 -1.1786  1.9488
 5084SOL     OW15867   0.331   0.745   0.158  0.3237 -0.4292  0.5672
 5084SOL    HW115868   0.356   0.832   0.190 -1.7591  0.2307  0.5274
 5084SOL    HW215869   0.336   0.753   0.063  1.3650 -0.7705  0.5797
 5085SOL     OW15870   6.140   6.431   4.242  0.4783 -0.0472  0.3098
 5085SOL    HW115871   6.094   6.511   4.215  0.3946  0.3607  1.5961
 5085SOL    HW215872   6.187   6.403   4.163  1.0014  1.6123 -0.0139
 5086SOL     OW15873   2.738   0.096   5.748  0.0228 -0.0123  0.1140
 5086SOL    HW115874   2.724   0.150   5.670  0.7564  0.2003  0.1200
 5086SOL    HW215875   2.684   0.136   5.816 -1.4559 -0.8158 -0.5379
 5087SOL     OW15876   6.538   4.794   3.379 -0.0652 -0.0414 -0.2337
 5087SOL    HW115877   6.617   4.785   3.433  2.2289 -0.3327 -3.3483
 5087SOL    HW215878   6.504   4.705   3.370  0.6826 -0.2755 -0.8103
 5088SOL     OW15879   1.358   2.220   1.445 -0.1412 -0.1792  0.0337
 5088SOL    HW115880   1.443   2.241   1.408  1.1209 -2.7160  1.2691
 5088SOL    HW215881   1.321   2.155   1.386 -0.6865  0.0029  0.1666
 5089SOL     OW15882   2.581   7.088   7.075 -0.5110 -0.9208 -0.6387
 5089SOL    HW115883   2.518   7.018   7.060 -2.3595  0.1991  1.2395
 5089SOL    HW215884   2.542   7.164   7.031  0.1484 -0.4790 -0.4704
 5090SOL     OW15885   4.394   4.818   4.940  0.0303 -0.0991 -0.1718
 5090SOL    HW115886   4.385   4.813   4.845  2.2112 -0.5912 -0.3982
 5090SOL    HW215887   4.345   4.896   4.965 -2.6479 -1.2807 -1.3597
 5091SOL     OW15888   2.482   0.165   1.170 -0.3004  0.0454  0.1882
 5091SOL    HW115889   2.572   0.135   1.178 -1.1352 -3.0256 -0.4580
 5091SOL    HW215890   2.463   0.209   1.252  1.8413  1.0285  0.2037
 5092SOL     OW15891   2.658   6.509   6.533 -0.6184 -0.0246  0.1281
 5092SOL    HW115892   2.749   6.486   6.553 -0.4193  0.9870  0.4622
 5092SOL    HW215893   2.631   6.447   6.466  0.3013 -0.3771  0.0790
 5093SOL     OW15894   4.686   0.590   0.459 -0.1129 -0.1462  0.1615
 5093SOL    HW115895   4.669   0.528   0.530 -0.7254 -0.7628 -0.5055
 5093SOL    HW215896   4.634   0.667   0.481  0.5753  0.1043  0.9488
 5094SOL     OW15897   7.017   5.913   5.820 -0.2081 -0.0885 -0.0288
 5094SOL    HW115898   6.960   5.989   5.824 -0.7480 -0.4324 -1.0124
 5094SOL    HW215899   7.091   5.940   5.765  0.4008  0.2215  0.9090
 5095SOL     OW15900   2.223   3.644   4.103 -0.1146  0.4879  0.3157
 5095SOL    HW115901   2.228   3.733   4.069 -0.2061  0.3458 -0.0718
 5095SOL    HW215902   2.183   3.594   4.033 -1.2715  0.3991  1.0063
 5096SOL     OW15903   0.724   2.455   4.305  0.0329  0.1408  0.6065
 5096SOL    HW115904   0.694   2.364   4.303  0.1085  0.0979  1.2487
 5096SOL    HW215905   0.793   2.459   4.238 -0.9914  0.1067 -0.4891
 5097SOL     OW15906   6.611   7.006   3.870  0.8936 -0.4102 -0.1949
 5097SOL    HW115907   6.575   7.069   3.807  0.7567 -2.4232 -2.2432
 5097SOL    HW215908   6.702   7.034   3.883  0.6503  0.5827 -0.5110
 5098SOL     OW15909   5.908   1.290   0.044 -0.4732  0.1978 -0.2553
 5098SOL    HW115910   5.946   1.241  -0.029 -0.2894 -0.0857  0.0220
 5098SOL    HW215911   5.861   1.362   0.004 -0.9311 -0.3382 -0.6848
 5099SOL     OW15912   5.524   4.494   4.754 -0.0336 -0.0964 -0.1792
 5099SOL    HW115913   5.595   4.555   4.773 -0.2020  0.6397 -1.7232
 5099SOL    HW215914   5.515   4.497   4.659 -2.7355  0.5210  0.0251
 5100SOL     OW15915   3.489   0.849   0.790 -0.3417  0.2804  0.4733
 5100SOL    HW115916   3.553   0.789   0.751  0.1473  0.1769  1.4009
 5100SOL    HW215917   3.543   0.916   0.833 -0.8731  0.8321  0.2829
 5101SOL     OW15918   3.616   1.471   0.721 -0.3854 -0.3962  0.6978
 5101SOL    HW115919   3.603   1.449   0.813  0.1345 -0.4670  0.7530
 5101SOL    HW215920   3.679   1.407   0.689 -0.0260  0.0652  0.4713
 5102SOL     OW15921   3.924   6.547   6.905  0.5414 -0.1146 -0.3180
 5102SOL    HW115922   3.864   6.488   6.860 -1.8886  0.7882  1.5533
 5102SOL    HW215923   4.001   6.493   6.924  0.9305 -1.0174 -3.7670
 5103SOL     OW15924   5.202   2.814   1.607  0.4414 -0.1675  0.4334
 5103SOL    HW115925   5.165   2.902   1.619  0.5501 -0.1025  0.3012
 5103SOL    HW215926   5.295   2.830   1.594  0.6556 -0.3946  1.6392
 5104SOL     OW15927   2.664   2.024   4.151 -0.3369 -0.2353 -0.2189
 5104SOL    HW115928   2.705   1.956   4.204 -0.3077  1.8714  2.7245
 5104SOL    HW215929   2.571   2.017   4.170 -0.3878  0.2085 -0.2956
 5105SOL     OW15930   1.379   1.322   2.923  0.5432 -0.0716  0.0715
 5105SOL    HW115931   1.316   1.279   2.981  1.1051 -0.4700  0.3934
 5105SOL    HW215932   1.446   1.256   2.907  1.2955  0.5999  0.3807
 5106SOL     OW15933   3.961   3.726   4.638 -0.2824 -0.2437  0.2550
 5106SOL    HW115934   3.888   3.667   4.657 -1.0388  1.0158  1.5427
 5106SOL    HW215935   4.020   3.675   4.583 -1.7784 -1.5532 -0.2231
 5107SOL     OW15936   4.843   2.971   0.502 -0.0896  0.1396  0.3633
 5107SOL    HW115937   4.862   3.064   0.494 -2.5523  0.9893  2.6719
 5107SOL    HW215938   4.806   2.962   0.590  0.9284 -3.2137  0.5850
 5108SOL     OW15939   3.628   3.973   5.196 -0.5516 -0.1324  0.3267
 5108SOL    HW115940   3.669   3.929   5.122  1.0215  0.8366  0.5482
 5108SOL    HW215941   3.554   3.918   5.220 -0.1480 -1.2846 -0.9622
 5109SOL     OW15942   3.322   7.125   5.525 -0.1727  0.2993  0.0376
 5109SOL    HW115943   3.408   7.115   5.565  0.1078 -0.9714 -0.7915
 5109SOL    HW215944   3.319   7.215   5.494  0.7619  0.4266  0.2978
 5110SOL     OW15945   4.028   5.416   0.060  0.2074 -0.0913  0.3385
 5110SOL    HW115946   4.103   5.383   0.010  0.9158 -1.7484  2.3128
 5110SOL    HW215947   4.018   5.507   0.031  1.5362 -0.4972 -1.6047
 5111SOL     OW15948   5.286   7.077   6.684 -0.0918 -0.1925 -1.0754
 5111SOL    HW115949   5.196   7.083   6.717  1.0218  1.5381  2.0289
 5111SOL    HW215950   5.284   7.004   6.622 -2.8829 -2.6315  1.5825
 5112SOL     OW15951   6.401   7.105   2.072  0.5842 -0.2170 -0.5907
 5112SOL    HW115952   6.483   7.109   2.122  1.2795  0.4260 -1.7355
 5112SOL    HW215953   6.361   7.191   2.085  0.6253 -0.1521 -0.8706
 5113SOL     OW15954   2.649   6.080   3.488  0.2150 -0.3863 -0.3592
 5113SOL    HW115955   2.569   6.126   3.463  1.2230  1.4449 -0.4115
 5113SOL    HW215956   2.628   5.988   3.477 -2.5429 -0.1193  1.5400
 5114SOL     OW15957   4.143   4.929   6.914  0.3663 -0.2211  0.4046
 5114SOL    HW115958   4.181   4.842   6.906 -0.3533 -0.3654 -2.8783
 5114SOL    HW215959   4.048   4.914   6.917  0.2596  0.4369  0.5682
 5115SOL     OW15960   0.423   1.737   2.618  0.1513 -0.1142  0.6070
 5115SOL    HW115961   0.488   1.681   2.661  0.4380 -1.2973 -1.2644
 5115SOL    HW215962   0.462   1.758   2.533 -1.5226 -0.0921 -0.1951
 5116SOL     OW15963   2.867   0.170   2.035 -0.2334 -0.1227  0.2286
 5116SOL    HW115964   2.926   0.186   1.961 -0.5920  1.2489  0.2129
 5116SOL    HW215965   2.790   0.223   2.015 -0.2263  0.4699  1.7104
 5117SOL     OW15966   1.569   3.811   5.144 -0.3507 -0.1608  0.2472
 5117SOL    HW115967   1.476   3.835   5.143 -0.0784  0.9976  0.8338
 5117SOL    HW215968   1.572   3.730   5.194 -0.7802  1.2701  2.7823
 5118SOL     OW15969   2.479   4.677   2.435  0.4437  0.2773 -0.0852
 5118SOL    HW115970   2.558   4.666   2.487 -1.4036 -1.4591  2.6339
 5118SOL    HW215971   2.433   4.594   2.444 -1.9180  1.3869 -1.1197
 5119SOL     OW15972   7.202   3.427   7.125 -0.0119 -0.1262  0.2220
 5119SOL    HW115973   7.120   3.443   7.078 -0.0849 -0.8973  0.0783
 5119SOL    HW215974   7.244   3.356   7.077 -0.8963 -2.1761  2.2685
 5120SOL     OW15975   2.487   5.695   2.558 -0.6083 -0.1256  0.0050
 5120SOL    HW115976   2.400   5.675   2.523 -0.4699 -1.0096  0.1490
 5120SOL    HW215977   2.522   5.611   2.587  0.5985  0.0888 -0.7257
 5121SOL     OW15978   6.670   4.033   7.116  0.4271 -0.2511  0.1442
 5121SOL    HW115979   6.627   3.948   7.111 -0.3234  0.0362  1.2849
 5121SOL    HW215980   6.608   4.094   7.077 -0.5302  0.2494  2.2751
 5122SOL     OW15981   3.120   6.025   0.499  0.0079  0.3056 -0.5393
 5122SOL    HW115982   3.076   5.958   0.446 -1.0547  0.8959 -0.4295
 5122SOL    HW215983   3.160   5.976   0.570 -1.4672 -0.1709  0.0134
 5123SOL     OW15984   5.623   2.240   4.856  0.8684 -0.1471  0.9001
 5123SOL    HW115985   5.538   2.262   4.894  1.2156  0.9740  1.0564
 5123SOL    HW215986   5.608   2.155   4.813 -0.5681  0.4373  0.1422
 5124SOL     OW15987   4.655   3.500   4.855 -0.0880 -0.2890  0.1078
 5124SOL    HW115988   4.647   3.458   4.941 -0.3687  0.4016  0.4232
 5124SOL    HW215989   4.660   3.593   4.874  1.9114 -0.2289 -0.4976
 5125SOL     OW15990   6.896   0.179   6.752  0.7329  0.2641  0.1886
 5125SOL    HW115991   6.989   0.199   6.737  0.5895  0.0420 -1.0354
 5125SOL    HW215992   6.853   0.197   6.669 -0.3221  0.2638  0.7126
 5126SOL     OW15993   3.735   6.756   7.005 -0.1597  0.0290 -0.2232
 5126SOL    HW115994   3.660   6.742   6.947  1.2956 -0.8151 -2.0208
 5126SOL    HW215995   3.803   6.698   6.970  1.0248 -0.0165  1.9700
 5127SOL     OW15996   6.399   7.071   6.634  0.1538  0.2288  0.1565
 5127SOL    HW115997   6.482   7.055   6.589 -0.1762 -3.3312  0.4970
 5127SOL    HW215998   6.422   7.082   6.726  0.3227 -0.0922  0.1544
 5128SOL     OW15999   1.247   0.981   1.843  0.0226  0.0276  0.1683
 5128SOL    HW116000   1.241   1.042   1.770 -0.6848  2.4434  2.1002
 5128SOL    HW216001   1.326   1.008   1.890 -0.8073  0.1155  1.5625
 5129SOL     OW16002   5.884   4.730   4.066  0.1072  0.3674 -0.2687
 5129SOL    HW116003   5.820   4.765   4.128  1.0267  0.8980  0.4245
 5129SOL    HW216004   5.969   4.761   4.100  0.6355  0.7236 -1.8233
 5130SOL     OW16005   2.073   6.447   0.002  0.3175 -0.0834 -0.3098
 5130SOL    HW116006   2.158   6.463   0.041 -0.8805  2.1315  1.6373
 5130SOL    HW216007   2.047   6.532  -0.035 -1.6561 -0.2728  0.5136
 5131SOL     OW16008   5.921   6.003   5.481  0.5214 -0.2061  0.1497
 5131SOL    HW116009   5.950   5.925   5.434  0.7376 -0.6888  1.0552
 5131SOL    HW216010   5.843   5.975   5.528  1.3159 -0.2611  1.5003
 5132SOL     OW16011   7.061   3.374   5.156 -0.2467 -0.4768  0.6350
 5132SOL    HW116012   7.147   3.416   5.148 -1.0082  0.9201 -0.4639
 5132SOL    HW216013   6.998   3.445   5.150 -1.5312 -1.5694  0.6342
 5133SOL     OW16014   0.160   2.081   6.594 -0.3127  0.1264 -0.2433
 5133SOL    HW116015   0.207   2.024   6.533 -0.4146  0.2695 -0.4554
 5133SOL    HW216016   0.144   2.025   6.670 -3.2960 -1.2079 -1.6777
 5134SOL     OW16017   1.505   1.672   2.413 -0.0381 -0.2149  0.9489
 5134SOL    HW116018   1.565   1.636   2.478 -0.7140  0.0406  1.7392
 5134SOL    HW216019   1.456   1.596   2.382  0.6973 -0.4227  0.2982
 5135SOL     OW16020   3.316   5.759   0.261 -0.0564  0.2644 -0.7428
 5135SOL    HW116021   3.234   5.713   0.277 -0.2322  1.2392  1.6639
 5135SOL    HW216022   3.364   5.703   0.201 -1.9477 -0.9479 -1.2052
 5136SOL     OW16023   2.990   2.871   3.936  0.3444  0.3804 -0.4558
 5136SOL    HW116024   2.944   2.807   3.881  1.6951 -0.6066 -0.4927
 5136SOL    HW216025   2.945   2.868   4.020  2.0709 -2.8363  0.5300
 5137SOL     OW16026   1.013   1.348   5.226  0.0179 -0.1471  0.3645
 5137SOL    HW116027   1.103   1.381   5.226 -0.0672  0.5594 -3.4392
 5137SOL    HW216028   0.960   1.422   5.255  0.5271 -0.0668  1.1054
 5138SOL     OW16029   3.115   5.409   3.238  0.5627 -0.2004 -0.2439
 5138SOL    HW116030   3.111   5.393   3.332  2.6000  1.8520  0.2814
 5138SOL    HW216031   3.208   5.401   3.216  0.2105  0.0275 -1.9682
 5139SOL     OW16032   2.955   1.287   4.865  0.5449 -0.1550 -0.3922
 5139SOL    HW116033   3.005   1.299   4.945 -0.0520  0.0017 -0.0388
 5139SOL    HW216034   2.924   1.197   4.869 -0.1592  0.1004 -0.0570
 5140SOL     OW16035   1.604   1.423   4.213  0.6174  0.2153 -0.2252
 5140SOL    HW116036   1.516   1.385   4.209 -0.7952  3.0561  1.0070
 5140SOL    HW216037   1.663   1.348   4.206 -1.9011 -1.9556  0.2312
 5141SOL     OW16038   6.925   4.818   7.034 -0.1607 -0.1675 -0.0648
 5141SOL    HW116039   6.884   4.872   7.101  0.6388  0.0249  0.2852
 5141SOL    HW216040   6.992   4.769   7.081  0.5450  0.1079 -0.7545
 5142SOL     OW16041   0.695   2.550   1.765 -0.2542 -0.1008 -0.0623
 5142SOL    HW116042   0.604   2.539   1.738 -0.0062 -0.3526 -0.8051
 5142SOL    HW216043   0.746   2.506   1.697  0.4192 -0.0302  0.3907
 5143SOL     OW16044   6.559   2.180   1.297 -0.1238  0.5893 -0.1465
 5143SOL    HW116045   6.650   2.190   1.325 -0.3424  0.8032  0.5241
 5143SOL    HW216046   6.509   2.230   1.362 -0.7148  0.4849 -0.5176
 5144SOL     OW16047   2.743   1.476   1.556 -0.8936 -0.2618 -0.4583
 5144SOL    HW116048   2.770   1.397   1.604 -1.2504 -0.3051 -0.3259
 5144SOL    HW216049   2.671   1.446   1.500 -0.1031 -0.3474 -1.4660
 5145SOL     OW16050   7.007   2.023   2.558 -0.1018 -0.3617 -0.2334
 5145SOL    HW116051   6.991   1.944   2.610 -5.0628 -0.1388 -0.9524
 5145SOL    HW216052   7.000   1.994   2.468  2.2902  0.3236 -0.7129
 5146SOL     OW16053   3.555   0.064   1.441 -0.1473  0.3583 -0.0304
 5146SOL    HW116054   3.475   0.016   1.466  0.0126  0.4911  0.7723
 5146SOL    HW216055   3.605   0.070   1.523  1.7081 -1.6268 -0.9194
 5147SOL     OW16056   5.483   0.199   0.410 -0.0696  0.4509 -0.2101
 5147SOL    HW116057   5.506   0.171   0.321 -0.7193 -1.4218  0.1670
 5147SOL    HW216058   5.405   0.253   0.398 -0.8790 -0.7679 -0.7194
 5148SOL     OW16059   4.420   1.333   5.898 -0.3506  0.1735  0.0981
 5148SOL    HW116060   4.399   1.245   5.929  0.1345  0.2211  0.5575
 5148SOL    HW216061   4.410   1.390   5.974  2.3065  0.0779  0.6167
 5149SOL     OW16062   0.160   0.481   5.917  1.2001  0.0210 -0.0798
 5149SOL    HW116063   0.183   0.564   5.960  0.1845  0.1015  0.3254
 5149SOL    HW216064   0.160   0.417   5.987  1.5109 -0.2359 -0.3130
 5150SOL     OW16065   6.086   4.733   4.688  0.6100  0.0791  0.4646
 5150SOL    HW116066   6.011   4.683   4.721  0.2263  1.1392  1.2893
 5150SOL    HW216067   6.131   4.673   4.629 -0.7861 -0.6489  0.0828
 5151SOL     OW16068   1.981   5.938   5.544  0.4985 -0.6957  0.4342
 5151SOL    HW116069   2.067   5.976   5.564  1.2605 -2.2318  0.1911
 5151SOL    HW216070   1.982   5.923   5.450 -0.4580  0.2364  0.2604
 5152SOL     OW16071   0.309   5.793   4.981 -0.4953  0.1785 -0.2085
 5152SOL    HW116072   0.404   5.795   4.967 -0.7366  2.0960 -2.0303
 5152SOL    HW216073   0.279   5.718   4.928  0.1230 -1.7236  1.9603
 5153SOL     OW16074   5.586   7.217   3.141  0.3852  0.1426 -0.1393
 5153SOL    HW116075   5.647   7.291   3.136  0.5864 -0.0056  0.1064
 5153SOL    HW216076   5.525   7.231   3.068  1.2870 -0.2231 -0.9775
 5154SOL     OW16077   3.609   2.237   5.935  0.6806  0.2942 -0.1901
 5154SOL    HW116078   3.704   2.248   5.929  0.8850 -1.7793 -1.9230
 5154SOL    HW216079   3.593   2.149   5.900 -1.8283  0.3526  0.6422
 5155SOL     OW16080   7.134   4.268   5.514 -0.0382  0.3506 -0.6758
 5155SOL    HW116081   7.138   4.249   5.420  0.2233  0.1902 -0.6341
 5155SOL    HW216082   7.094   4.190   5.552  1.3655 -0.2978 -0.4611
 5156SOL     OW16083   4.199   4.836   4.119  0.5428 -0.6375  0.1934
 5156SOL    HW116084   4.250   4.915   4.136  0.1558  0.2223 -2.1952
 5156SOL    HW216085   4.262   4.775   4.081  0.0349  0.2612 -2.3222
 5157SOL     OW16086   1.711   3.727   2.073  0.1869 -0.3629  0.2165
 5157SOL    HW116087   1.798   3.686   2.070 -0.1591 -1.2398  1.2756
 5157SOL    HW216088   1.681   3.725   1.983  1.3351  0.1048 -0.1960
 5158SOL     OW16089   4.688   4.124   5.868  0.2949  0.1475  0.1405
 5158SOL    HW116090   4.630   4.171   5.928  0.2748 -1.4065  1.4023
 5158SOL    HW216091   4.699   4.038   5.909  1.1737 -0.5727 -1.5535
 5159SOL     OW16092   7.083   4.744   6.037  0.1964  0.3900  0.1553
 5159SOL    HW116093   7.113   4.782   5.954  0.5260 -0.9212 -0.3418
 5159SOL    HW216094   6.991   4.722   6.021  0.4096 -0.3734 -0.0621
 5160SOL     OW16095   1.743   6.010   5.701  0.0678  0.8137  0.2017
 5160SOL    HW116096   1.823   6.002   5.650  0.4357  0.8958  0.7642
 5160SOL    HW216097   1.736   6.103   5.721  1.4852  0.4315  2.7666
 5161SOL     OW16098   1.282   6.953   6.882 -0.1616  0.6452 -0.0473
 5161SOL    HW116099   1.192   6.943   6.852  0.0789  1.4520 -1.0786
 5161SOL    HW216100   1.328   6.875   6.850 -0.3354  0.5694 -0.1089
 5162SOL     OW16101   5.414   1.634   3.859 -0.3401 -0.1306 -0.6181
 5162SOL    HW116102   5.450   1.648   3.947 -1.9152  0.1962  0.0087
 5162SOL    HW216103   5.409   1.538   3.850  2.1483 -0.2480 -1.3827
 5163SOL     OW16104   1.265   6.699   0.511 -0.3373 -0.7420  0.0605
 5163SOL    HW116105   1.231   6.646   0.439  1.2440  0.2740 -1.5543
 5163SOL    HW216106   1.238   6.788   0.490  1.3511 -0.2300 -0.0945
 5164SOL     OW16107   6.890   3.713   2.099 -0.2001 -0.2989  0.1709
 5164SOL    HW116108   6.868   3.802   2.070 -0.1711  0.2826  1.8250
 5164SOL    HW216109   6.819   3.688   2.157 -1.1440 -2.1304 -1.6612
 5165SOL     OW16110   4.482   3.773   3.069  0.2506  0.1449  0.3011
 5165SOL    HW116111   4.412   3.754   3.131  0.2178 -2.4413 -0.4097
 5165SOL    HW216112   4.551   3.710   3.090  1.6232  1.3969 -0.2146
 5166SOL     OW16113   4.381   7.077   6.347 -0.7267 -0.4139 -0.1857
 5166SOL    HW116114   4.323   7.049   6.276 -0.2870 -1.3161 -0.1919
 5166SOL    HW216115   4.335   7.153   6.386 -0.2494  1.1082 -2.3958
 5167SOL     OW16116   0.638   3.370   2.137 -0.0916 -0.2871  0.2803
 5167SOL    HW116117   0.677   3.284   2.151 -1.1476 -0.6904  0.8692
 5167SOL    HW216118   0.603   3.366   2.048  0.8821 -0.0404 -0.1254
 5168SOL     OW16119   0.143   3.611   5.201 -0.6115  0.1297  0.5110
 5168SOL    HW116120   0.212   3.669   5.233  0.1938 -0.0111 -0.8981
 5168SOL    HW216121   0.175   3.523   5.219 -0.0818  0.0438 -0.7391
 5169SOL     OW16122   5.829   2.721   1.783  0.1604  0.2931 -0.2581
 5169SOL    HW116123   5.890   2.783   1.824 -0.8512  2.0935 -1.3328
 5169SOL    HW216124   5.798   2.667   1.856  3.2071 -0.9370  0.2746
 5170SOL     OW16125   3.988   4.702   5.572  0.8886  0.0102 -0.2546
 5170SOL    HW116126   3.988   4.658   5.487  0.2518 -0.9656  0.2198
 5170SOL    HW216127   4.054   4.655   5.623 -0.2336 -0.8526  0.4586
 5171SOL     OW16128   6.781   1.236   4.288 -0.6490 -0.4337 -0.2308
 5171SOL    HW116129   6.854   1.203   4.236  0.7537  3.0820 -0.8004
 5171SOL    HW216130   6.703   1.216   4.237  0.3553 -0.5073 -1.7785
 5172SOL     OW16131   3.658   5.860   1.765  0.2094  0.4988  0.2177
 5172SOL    HW116132   3.694   5.903   1.687 -0.8934 -1.2052 -1.3051
 5172SOL    HW216133   3.567   5.886   1.768 -0.0694 -0.4310  0.1974
 5173SOL     OW16134   6.991   2.958   5.775 -0.0445 -0.5373 -0.4334
 5173SOL    HW116135   7.078   2.992   5.753 -0.0115 -0.1194  0.2889
 5173SOL    HW216136   6.992   2.951   5.870 -1.4976  1.4762 -0.1884
 5174SOL     OW16137   3.618   1.104   0.846 -0.0586  0.9065 -0.1395
 5174SOL    HW116138   3.649   1.145   0.765  1.3119  1.3390  0.5862
 5174SOL    HW216139   3.548   1.161   0.876 -1.5388  0.0289 -1.6853
 5175SOL     OW16140   7.026   2.209   5.193 -0.0813 -0.1559  0.4647
 5175SOL    HW116141   6.999   2.118   5.188  0.7765 -0.3613 -0.6764
 5175SOL    HW216142   7.071   2.226   5.111 -1.6682  1.7840 -0.1070
 5176SOL     OW16143   4.419   0.682   6.517 -0.2288  0.1031 -0.3955
 5176SOL    HW116144   4.428   0.598   6.472 -1.0218  0.1012 -0.5678
 5176SOL    HW216145   4.408   0.746   6.447 -2.5701 -0.0341 -0.2403
 5177SOL     OW16146   4.411   4.340   0.496  0.1903 -0.3184  0.0679
 5177SOL    HW116147   4.362   4.421   0.507  1.3636  0.2884  0.9064
 5177SOL    HW216148   4.461   4.354   0.415  0.0025 -0.4234 -0.0690
 5178SOL     OW16149   3.241   1.057   6.089  0.3169  0.3826  0.0287
 5178SOL    HW116150   3.155   1.099   6.098  0.2331 -0.2323  3.0519
 5178SOL    HW216151   3.221   0.967   6.061  0.3296  1.2313 -3.2106
 5179SOL     OW16152   0.990   0.032   0.423  0.6326  0.3107  0.0716
 5179SOL    HW116153   1.025   0.010   0.509 -0.4330  2.5180  1.1377
 5179SOL    HW216154   0.919  -0.032   0.409  0.4648  0.2618  1.0832
 5180SOL     OW16155   5.461   2.652   7.136  0.5151 -0.2350 -0.1582
 5180SOL    HW116156   5.516   2.702   7.075  1.2585 -0.0031  0.6965
 5180SOL    HW216157   5.496   2.563   7.133  0.2302 -0.3418 -0.4371
 5181SOL     OW16158   5.899   2.174   5.283 -0.7524  0.0701  0.6947
 5181SOL    HW116159   5.821   2.209   5.240  0.2762  1.6203 -0.0067
 5181SOL    HW216160   5.961   2.158   5.212  0.1617  0.5102  1.3655
 5182SOL     OW16161   3.588   6.772   0.588  0.2665 -0.0763 -0.5453
 5182SOL    HW116162   3.653   6.827   0.633 -0.5916 -0.3613  1.1393
 5182SOL    HW216163   3.609   6.683   0.617 -0.7970 -0.1790 -0.0566
 5183SOL     OW16164   2.311   3.879   3.979  0.1591 -0.0483  0.2436
 5183SOL    HW116165   2.364   3.948   4.019  0.2769  1.4590 -2.2834
 5183SOL    HW216166   2.325   3.890   3.885 -1.3981 -2.2943 -0.3324
 5184SOL     OW16167   3.852   3.108   4.881  0.1175  0.3703  0.1838
 5184SOL    HW116168   3.807   3.046   4.824  0.1765  0.8314 -0.3685
 5184SOL    HW216169   3.836   3.193   4.841 -0.2822  0.7629  1.1448
 5185SOL     OW16170   1.044   5.859   5.764  0.3590 -0.0753 -0.4215
 5185SOL    HW116171   1.067   5.819   5.847  0.4300  2.1802  0.7128
 5185SOL    HW216172   1.128   5.875   5.721  0.4945  0.8924  0.1643
 5186SOL     OW16173   2.335   7.118   0.572 -0.3669  0.2291  0.6648
 5186SOL    HW116174   2.386   7.144   0.495  0.2088 -2.7882 -0.1089
 5186SOL    HW216175   2.393   7.059   0.620 -1.7558 -0.1882  1.9106
 5187SOL     OW16176   4.860   4.249   2.246  0.4045  0.3232 -0.2332
 5187SOL    HW116177   4.795   4.259   2.315  0.1509  0.7383 -0.5248
 5187SOL    HW216178   4.938   4.215   2.290  0.9891  2.6326  0.6737
 5188SOL     OW16179   1.908   3.578   1.949  0.0340 -0.3692  0.1276
 5188SOL    HW116180   1.845   3.514   1.915  1.1770 -1.2940 -0.3633
 5188SOL    HW216181   1.927   3.634   1.874  0.2810 -0.5081  0.0847
 5189SOL     OW16182   1.336   7.040   0.247  0.2149  0.4005  0.2462
 5189SOL    HW116183   1.256   6.995   0.275  0.7772 -0.3981  0.6229
 5189SOL    HW216184   1.313   7.133   0.249 -0.4634  0.2305  1.1385
 5190SOL     OW16185   5.781   3.703   3.461 -0.1040 -0.3389  0.2513
 5190SOL    HW116186   5.775   3.792   3.426  0.9703 -0.1368  0.5695
 5190SOL    HW216187   5.712   3.699   3.528 -0.8302 -0.0847 -0.4636
 5191SOL     OW16188   3.736   7.016   6.236 -0.0494  0.0768  0.7010
 5191SOL    HW116189   3.682   7.059   6.170 -0.4318  0.7348  1.4211
 5191SOL    HW216190   3.809   7.077   6.250 -0.0064 -0.0261  0.9324
 5192SOL     OW16191   0.321   7.008   6.029  0.4166  0.4904 -0.1727
 5192SOL    HW116192   0.411   7.035   6.043  0.2943  1.0050 -0.3626
 5192SOL    HW216193   0.274   7.089   6.009 -0.2493  0.3620  0.7679
 5193SOL     OW16194   2.022   4.879   3.128  0.5091 -0.6607  0.1078
 5193SOL    HW116195   2.023   4.846   3.038  0.9792  0.1610 -0.1914
 5193SOL    HW216196   2.082   4.953   3.127 -1.7637  1.2775  0.3849
 5194SOL     OW16197   6.842   6.705   3.966  0.1633 -0.4139  0.2522
 5194SOL    HW116198   6.926   6.740   3.996 -0.4054  1.6530 -0.4033
 5194SOL    HW216199   6.819   6.758   3.889 -1.7729 -0.8734  0.4470
 5195SOL     OW16200   3.383   3.324   6.645  0.8686 -0.1875  0.2146
 5195SOL    HW116201   3.329   3.374   6.706  1.3269  1.9616 -1.0019
 5195SOL    HW216202   3.417   3.390   6.584 -1.3359 -2.3399 -3.7964
 5196SOL     OW16203   7.151   5.297   1.212  0.2582 -0.6553 -0.2824
 5196SOL    HW116204   7.059   5.305   1.237 -0.0842 -0.5304 -1.5027
 5196SOL    HW216205   7.199   5.294   1.295 -0.5123  2.8204  0.4421
 5197SOL     OW16206   0.783   4.992   6.519 -0.3157  0.2438 -0.3977
 5197SOL    HW116207   0.720   5.062   6.504 -0.9512  0.0925  1.3463
 5197SOL    HW216208   0.860   5.018   6.468 -0.9474  1.6153 -0.7000
 5198SOL     OW16209   1.129   4.310   0.871  0.6099  0.5571  0.0477
 5198SOL    HW116210   1.118   4.243   0.804 -0.5817  1.1442 -0.3675
 5198SOL    HW216211   1.176   4.381   0.827  0.3242  0.7117 -0.0084
 5199SOL     OW16212   3.703   2.168   6.470  0.2170 -0.4554  0.5304
 5199SOL    HW116213   3.629   2.222   6.443  0.8522  0.5876  0.8119
 5199SOL    HW216214   3.769   2.231   6.499  1.1758 -1.3682  0.3835
 5200SOL     OW16215   6.095   0.998   4.915  0.1366  0.2449  0.1525
 5200SOL    HW116216   6.119   1.055   4.988 -0.9804  0.9954 -0.0456
 5200SOL    HW216217   6.092   0.910   4.952  1.4110  0.3607  0.5760
 5201SOL     OW16218   4.064   4.332   0.688  0.4266 -0.1200 -0.2226
 5201SOL    HW116219   4.014   4.332   0.770  0.9562 -0.6687  0.1031
 5201SOL    HW216220   4.015   4.392   0.631  0.0529  0.2719  0.4899
 5202SOL     OW16221   5.572   6.860   3.846  0.3938 -0.5784 -0.3543
 5202SOL    HW116222   5.594   6.793   3.782  1.4946  0.6642 -1.3596
 5202SOL    HW216223   5.651   6.869   3.900  0.5865  0.4780 -0.7820
 5203SOL     OW16224   3.322   6.033   6.189 -0.2850  0.1873 -0.6404
 5203SOL    HW116225   3.284   5.961   6.240 -0.4367 -0.1743 -1.2559
 5203SOL    HW216226   3.389   6.070   6.246  0.3835 -0.9875 -0.6399
 5204SOL     OW16227   5.699   4.531   1.785 -0.5336 -0.0248  0.7623
 5204SOL    HW116228   5.710   4.487   1.700  1.3758 -1.2782  1.5800
 5204SOL    HW216229   5.610   4.565   1.783 -0.2929  0.7729 -2.0942
 5205SOL     OW16230   3.843   3.148   5.188  0.0746  0.3302  0.2341
 5205SOL    HW116231   3.939   3.144   5.188  0.0565 -0.8692 -1.1550
 5205SOL    HW216232   3.819   3.136   5.096 -1.4577 -0.9503  0.7673
 5206SOL     OW16233   2.600   3.840   5.158  0.3557 -0.2853  0.4647
 5206SOL    HW116234   2.580   3.757   5.201 -0.3875  0.1394  0.9602
 5206SOL    HW216235   2.660   3.816   5.088  0.2065 -1.2348  0.6410
 5207SOL     OW16236   7.238   1.879   3.537 -0.5724 -0.8074 -0.2826
 5207SOL    HW116237   7.183   1.850   3.465 -0.8470 -0.7640 -0.0936
 5207SOL    HW216238   7.306   1.933   3.496 -1.3805  0.1462 -0.3970
 5208SOL     OW16239   1.938   1.267   4.970  0.0947 -0.3207  0.3306
 5208SOL    HW116240   1.979   1.244   5.053 -0.3215 -1.9416  0.1181
 5208SOL    HW216241   1.990   1.221   4.904 -1.0162 -1.0259 -0.0826
 5209SOL     OW16242   3.461   5.782   3.622  0.0589 -0.2227  0.5822
 5209SOL    HW116243   3.521   5.851   3.592 -0.6666  0.5604  0.8738
 5209SOL    HW216244   3.405   5.765   3.547  0.2466 -0.5082  0.5065
 5210SOL     OW16245   3.829   1.522   2.619  0.2877 -0.0767  0.0682
 5210SOL    HW116246   3.907   1.470   2.638  0.7949  0.1258 -1.3477
 5210SOL    HW216247   3.847   1.563   2.534 -1.1606  0.3522 -0.0675
 5211SOL     OW16248   0.016   5.264   3.903  0.2157 -0.3152 -0.4673
 5211SOL    HW116249   0.021   5.326   3.976  0.5906  0.6213 -1.2535
 5211SOL    HW216250  -0.066   5.287   3.859 -2.3970 -3.7338  2.0606
 5212SOL     OW16251   3.006   0.376   6.008 -0.3589 -0.1369  0.1650
 5212SOL    HW116252   3.030   0.292   6.049 -0.7367 -0.6943 -0.7237
 5212SOL    HW216253   2.995   0.355   5.915  3.2625  1.6514 -0.8340
 5213SOL     OW16254   6.717   6.205   1.036 -0.3958  0.0194 -0.1183
 5213SOL    HW116255   6.806   6.238   1.029 -0.3815 -0.2276 -1.1742
 5213SOL    HW216256   6.663   6.284   1.047 -0.0077  0.1339  1.1003
 5214SOL     OW16257   2.395   3.297   2.705 -0.1585 -0.4627  0.1621
 5214SOL    HW116258   2.366   3.309   2.796 -1.3131 -2.1126  0.0592
 5214SOL    HW216259   2.470   3.238   2.712 -0.0684 -0.3580  0.0670
 5215SOL     OW16260   6.622   6.031   5.276 -0.2614 -0.1162 -0.0356
 5215SOL    HW116261   6.534   6.041   5.241  0.0837 -0.2962 -0.9787
 5215SOL    HW216262   6.662   6.118   5.266  0.2854 -0.4887 -1.3955
 5216SOL     OW16263   0.708   4.080   4.150 -0.6645 -0.1726 -0.3382
 5216SOL    HW116264   0.786   4.126   4.119 -0.9811  0.8760  0.3695
 5216SOL    HW216265   0.653   4.069   4.073  1.1465 -3.0596 -1.3874
 5217SOL     OW16266   3.870   0.828   4.850  0.3092 -0.2215  0.5565
 5217SOL    HW116267   3.791   0.781   4.876  0.9860 -1.6299  0.1845
 5217SOL    HW216268   3.863   0.835   4.754 -0.1457  1.1430  0.6724
 5218SOL     OW16269   5.574   2.509   0.642  0.9069  0.2005  0.2506
 5218SOL    HW116270   5.531   2.591   0.666 -0.8915  0.2907 -2.7075
 5218SOL    HW216271   5.534   2.442   0.697 -0.7022  0.7583 -0.2119
 5219SOL     OW16272   4.718   0.190   1.381 -0.5335 -0.0985  0.3773
 5219SOL    HW116273   4.693   0.232   1.463 -1.3933  0.3919 -0.1201
 5219SOL    HW216274   4.656   0.224   1.317 -0.1134 -0.7659 -0.4027
 5220SOL     OW16275   2.174   4.504   1.441 -0.3817 -0.3313 -0.4568
 5220SOL    HW116276   2.245   4.441   1.448  0.5485  0.7428  0.2352
 5220SOL    HW216277   2.206   4.569   1.378 -0.2416  0.7531  0.6963
 5221SOL     OW16278   1.224   5.874   4.393 -0.4434  0.1520 -0.1821
 5221SOL    HW116279   1.259   5.925   4.321 -0.7213 -0.0490 -0.4621
 5221SOL    HW216280   1.154   5.929   4.430 -0.9230 -0.1362 -0.6531
 5222SOL     OW16281   2.100   4.763   5.109 -0.3252 -0.5908 -0.0651
 5222SOL    HW116282   2.160   4.813   5.165 -0.5402 -0.3555 -0.0433
 5222SOL    HW216283   2.141   4.766   5.022 -0.3026 -0.4372 -0.0491
 5223SOL     OW16284   1.496   0.896   4.412  0.2250 -0.1754 -0.5674
 5223SOL    HW116285   1.414   0.937   4.384  0.3504  0.9980  0.6864
 5223SOL    HW216286   1.536   0.865   4.331 -0.5646  0.9224 -1.4063
 5224SOL     OW16287   4.758   0.734   4.658  0.2041  0.0982 -0.5274
 5224SOL    HW116288   4.706   0.672   4.606 -1.0348  1.1494 -0.5989
 5224SOL    HW216289   4.744   0.819   4.616  1.0398  0.6014  0.1708
 5225SOL     OW16290   4.958   6.524   2.304 -0.2189  0.4513  0.1249
 5225SOL    HW116291   5.046   6.553   2.329  1.7680 -2.6696 -2.3354
 5225SOL    HW216292   4.940   6.572   2.223  0.5544 -0.8182 -0.8552
 5226SOL     OW16293   0.677   0.622   3.151 -0.8810  0.1082 -0.3619
 5226SOL    HW116294   0.687   0.528   3.158 -0.6517  0.1803  0.4621
 5226SOL    HW216295   0.742   0.658   3.212 -1.1495  0.7836 -0.4611
 5227SOL     OW16296   1.486   4.969   6.615 -0.0465  0.2085  0.3365
 5227SOL    HW116297   1.517   4.932   6.697 -1.6374 -2.8628 -0.2999
 5227SOL    HW216298   1.548   4.937   6.549 -0.5154  0.0410 -0.0306
 5228SOL     OW16299   6.868   5.848   0.626 -0.4391 -0.2575 -0.3345
 5228SOL    HW116300   6.912   5.790   0.688 -0.4416  0.1760  0.0759
 5228SOL    HW216301   6.792   5.882   0.674  1.5103  2.9809  0.8138
 5229SOL     OW16302   5.622   1.386   5.436 -0.4058 -0.2340 -0.4637
 5229SOL    HW116303   5.633   1.339   5.353  0.2906  1.2654 -1.2595
 5229SOL    HW216304   5.610   1.478   5.410  1.6165  0.5427  1.1242
 5230SOL     OW16305   1.145   4.022   1.000 -0.3428 -0.4493  0.2673
 5230SOL    HW116306   1.124   4.033   1.092  0.4332  0.2306  0.3804
 5230SOL    HW216307   1.162   4.111   0.968 -1.1639 -0.6161 -0.6764
 5231SOL     OW16308   3.323   3.058   4.397 -0.0716 -0.0156 -0.1996
 5231SOL    HW116309   3.405   3.038   4.354  0.4672 -1.3379  1.3341
 5231SOL    HW216310   3.261   2.994   4.362  0.4082 -1.2039  1.0430
 5232SOL     OW16311   4.827   6.430   1.880 -0.2423 -0.1690 -0.0733
 5232SOL    HW116312   4.882   6.495   1.836 -1.0722  0.2291 -0.5477
 5232SOL    HW216313   4.881   6.351   1.882  0.0041 -0.0562 -1.3686
 5233SOL     OW16314   0.673   3.056   5.539  0.4373  0.0496  0.7204
 5233SOL    HW116315   0.653   3.039   5.631  0.2187  0.6693  0.7925
 5233SOL    HW216316   0.618   2.995   5.490  1.2531 -0.9542  1.0149
 5234SOL     OW16317   4.520   5.244   1.047 -0.0925  0.6838 -0.4881
 5234SOL    HW116318   4.561   5.276   1.127 -0.4042  0.3665 -0.1995
 5234SOL    HW216319   4.585   5.260   0.978  1.6262 -2.1426  0.3035
 5235SOL     OW16320   5.954   6.936   6.338 -0.1216 -0.0940  0.4583
 5235SOL    HW116321   5.922   7.026   6.351  1.0273  0.1910  1.5249
 5235SOL    HW216322   5.887   6.881   6.380 -1.9429  0.0369 -2.0461
 5236SOL     OW16323   6.202   4.688   5.004 -0.3147 -0.8746  0.2573
 5236SOL    HW116324   6.248   4.755   4.952 -1.5884  0.5926  0.9301
 5236SOL    HW216325   6.217   4.714   5.095 -1.4863 -1.0435  0.5079
 5237SOL     OW16326   3.678   0.115   2.613 -0.0881  0.0492 -0.3055
 5237SOL    HW116327   3.694   0.026   2.644 -1.6136 -0.1221  0.0628
 5237SOL    HW216328   3.634   0.103   2.529 -2.1916  0.3727  0.6839
 5238SOL     OW16329   3.084   0.256   2.217 -0.1004 -0.2588  0.1715
 5238SOL    HW116330   3.027   0.230   2.145 -0.9007  1.3421  0.1927
 5238SOL    HW216331   3.025   0.273   2.290  0.2504  2.0970  0.0021
 5239SOL     OW16332   3.868   6.630   2.343 -0.0639 -0.2220  0.2255
 5239SOL    HW116333   3.783   6.598   2.312  1.2227 -2.4934 -1.1619
 5239SOL    HW216334   3.882   6.586   2.427 -0.5596  0.8016  0.8799
 5240SOL     OW16335   5.696   2.155   1.787  0.1619 -0.0447 -0.3538
 5240SOL    HW116336   5.661   2.098   1.719  1.3002 -1.4693  0.1988
 5240SOL    HW216337   5.723   2.234   1.740  2.4409 -1.6277 -1.9134
 5241SOL     OW16338   3.568   4.000   6.417 -0.1130 -1.1481 -0.7000
 5241SOL    HW116339   3.548   4.047   6.336 -0.6563  0.1094  0.1372
 5241SOL    HW216340   3.595   3.913   6.388 -1.1989 -1.0235 -2.1767
 5242SOL     OW16341   3.946   6.066   2.761 -0.0119  0.6210 -0.1337
 5242SOL    HW116342   3.938   6.099   2.851 -0.0584  0.3316 -0.0312
 5242SOL    HW216343   3.998   6.132   2.716 -0.4998  1.0658 -0.0525
 5243SOL     OW16344   6.634   4.006   2.839  0.6464  0.7745  0.3692
 5243SOL    HW116345   6.700   3.950   2.797  2.3806  2.9885 -0.0315
 5243SOL    HW216346   6.612   4.072   2.773  1.6339  2.8965  2.0318
 5244SOL     OW16347   4.615   0.467   5.229  0.1732 -0.4551  0.4260
 5244SOL    HW116348   4.533   0.513   5.248  0.5159 -0.3108  1.6706
 5244SOL    HW216349   4.645   0.436   5.315  0.6446 -1.8300 -0.2089
 5245SOL     OW16350   4.536   0.077   0.427 -0.5462 -0.0447  0.1832
 5245SOL    HW116351   4.482   0.102   0.502  0.1997  1.3171  0.3105
 5245SOL    HW216352   4.539   0.156   0.373 -0.7332 -0.8819 -1.0871
 5246SOL     OW16353   2.068   2.403   6.591 -0.3898 -0.8078  0.3364
 5246SOL    HW116354   2.094   2.487   6.554 -1.5948 -0.1548  0.9022
 5246SOL    HW216355   2.119   2.396   6.672  0.7198 -1.2851 -0.3722
 5247SOL     OW16356   0.684   5.207   2.129  0.2222  0.1556 -0.2164
 5247SOL    HW116357   0.671   5.301   2.112  0.7302 -0.1633 -2.9422
 5247SOL    HW216358   0.743   5.179   2.060  1.2993 -1.9155  1.4462
 5248SOL     OW16359   2.495   0.591   0.162  0.4709 -0.4515 -0.0548
 5248SOL    HW116360   2.532   0.542   0.089  0.9092 -0.7468  0.3593
 5248SOL    HW216361   2.402   0.600   0.140  0.4287 -1.2747 -0.2493
 5249SOL     OW16362   3.799   4.248   1.751 -0.3807 -0.4700 -0.0721
 5249SOL    HW116363   3.767   4.249   1.661 -0.2123  1.2531 -0.1565
 5249SOL    HW216364   3.816   4.156   1.770 -0.0947 -0.8351 -1.9073
 5250SOL     OW16365   2.356   5.181   1.003 -0.3277 -0.0179 -0.1478
 5250SOL    HW116366   2.416   5.244   0.964 -0.3311 -0.5366 -1.0102
 5250SOL    HW216367   2.271   5.201   0.963 -1.0515  1.5364  1.9782
 5251SOL     OW16368   4.371   5.961   2.863 -0.3153  0.5242 -0.0103
 5251SOL    HW116369   4.444   5.933   2.807  0.7751  1.3563  0.9529
 5251SOL    HW216370   4.293   5.944   2.810  0.4999 -1.1044 -0.7867
 5252SOL     OW16371   2.684   6.209   2.722 -0.4664 -0.3889 -0.0688
 5252SOL    HW116372   2.657   6.135   2.668 -1.1978  0.2952 -0.6614
 5252SOL    HW216373   2.656   6.286   2.673  1.5575  0.3409 -0.1616
 5253SOL     OW16374   0.853   1.860   4.695 -0.1566  0.2611  0.1679
 5253SOL    HW116375   0.794   1.804   4.644  0.5803  0.4003 -0.8849
 5253SOL    HW216376   0.796   1.910   4.752 -1.0869  0.5172 -0.9467
 5254SOL     OW16377   4.881   5.336   0.274 -0.4450 -0.5868 -0.4648
 5254SOL    HW116378   4.793   5.374   0.276  0.0953  0.6752 -0.2582
 5254SOL    HW216379   4.913   5.353   0.186 -1.1511 -2.8581 -1.2343
 5255SOL     OW16380   0.932   0.756   5.128 -0.3471  0.1119  0.1116
 5255SOL    HW116381   0.852   0.705   5.119  0.7367 -1.4913 -0.9639
 5255SOL    HW216382   0.977   0.744   5.044  0.2729  2.3252  0.0720
 5256SOL     OW16383   1.183   0.625   1.055  0.0771  0.6227  0.1650
 5256SOL    HW116384   1.096   0.600   1.086 -0.5578  2.9862  0.4116
 5256SOL    HW216385   1.243   0.570   1.106 -1.1957 -0.0369  1.0011
 5257SOL     OW16386   0.649   3.382   5.589  0.2735  0.3474  0.0509
 5257SOL    HW116387   0.609   3.310   5.541  0.9609 -0.4638  0.6684
 5257SOL    HW216388   0.695   3.433   5.522 -1.1250  0.8726 -0.5519
 5258SOL     OW16389   4.435   5.150   5.097  0.0929  0.6970 -0.1440
 5258SOL    HW116390   4.465   5.208   5.167  1.8079  0.7874 -0.8912
 5258SOL    HW216391   4.413   5.068   5.141 -3.0623  2.0510  1.0314
 5259SOL     OW16392   5.140   2.168   0.721  0.7480  0.0527 -0.1367
 5259SOL    HW116393   5.088   2.132   0.648  1.1131 -0.0372 -0.3580
 5259SOL    HW216394   5.082   2.161   0.797 -0.2186  1.5716 -0.6903
 5260SOL     OW16395   0.529   3.984   2.291  0.2356 -0.7381 -0.2967
 5260SOL    HW116396   0.468   3.969   2.219  0.8405 -1.5538 -0.6521
 5260SOL    HW216397   0.570   3.899   2.306  0.8438 -0.3410  0.3366
 5261SOL     OW16398   4.129   6.676   1.608  0.2986  0.3728  0.1246
 5261SOL    HW116399   4.210   6.714   1.575 -0.4458  1.3528 -0.6590
 5261SOL    HW216400   4.060   6.728   1.567 -0.7574 -1.2281 -0.2325
 5262SOL     OW16401   4.304   5.715   3.060 -0.1148  0.7476  0.0082
 5262SOL    HW116402   4.332   5.707   3.151 -0.0850  3.0243  0.2562
 5262SOL    HW216403   4.375   5.760   3.016 -1.2742  2.1737 -0.4810
 5263SOL     OW16404   6.421   5.701   5.909 -0.1946 -0.1912  0.0076
 5263SOL    HW116405   6.376   5.737   5.832 -1.1401 -0.4236  0.4362
 5263SOL    HW216406   6.400   5.761   5.980  1.5575  0.6202 -0.1067
 5264SOL     OW16407   2.724   3.213   4.562 -0.6556  0.1144 -0.5083
 5264SOL    HW116408   2.767   3.286   4.606 -0.7620  1.0062 -1.8619
 5264SOL    HW216409   2.753   3.136   4.611 -0.5820  1.0419  0.9705
 5265SOL     OW16410   4.702   1.367   2.921  0.4116  0.3665 -0.4664
 5265SOL    HW116411   4.644   1.346   2.994  2.0389 -0.4728  0.6523
 5265SOL    HW216412   4.697   1.462   2.913 -2.8571  0.2227 -1.9830
 5266SOL     OW16413   2.342   2.992   1.499 -0.5725 -0.2879  0.1871
 5266SOL    HW116414   2.333   3.019   1.591 -1.4318 -0.4947  0.1732
 5266SOL    HW216415   2.281   3.049   1.451 -0.4870 -0.5098 -0.1857
 5267SOL     OW16416   6.123   1.413   6.659  0.5289  0.4057  0.9052
 5267SOL    HW116417   6.104   1.360   6.736  1.0302  3.0228  2.9809
 5267SOL    HW216418   6.037   1.433   6.622  0.2022  0.0144  1.4387
 5268SOL     OW16419   1.073   3.499   5.847 -0.0062  0.0353  0.1625
 5268SOL    HW116420   1.084   3.472   5.939  0.5788  1.2949  0.4866
 5268SOL    HW216421   1.159   3.484   5.808  0.5930  2.0905  0.5621
 5269SOL     OW16422   6.605   3.444   4.640  0.6577 -0.0991  0.1907
 5269SOL    HW116423   6.587   3.529   4.600  1.8752  0.6595  1.1736
 5269SOL    HW216424   6.548   3.440   4.717 -1.1517 -1.2457 -1.1343
 5270SOL     OW16425   2.755   0.063   1.286  0.1783  0.2597  0.6461
 5270SOL    HW116426   2.836   0.063   1.236  0.5051 -1.0244  1.1291
 5270SOL    HW216427   2.711  -0.018   1.260 -0.3344  0.3018  1.3457
 5271SOL     OW16428   5.012   3.437   3.874  0.2981  0.0837 -0.1728
 5271SOL    HW116429   4.926   3.458   3.911 -0.7164 -2.4702 -0.8829
 5271SOL    HW216430   5.025   3.344   3.892  0.7828 -0.8004 -4.0051
 5272SOL     OW16431   0.005   2.070   7.157 -0.6641 -0.6494  0.0226
 5272SOL    HW116432   0.018   1.979   7.183  0.6615 -1.0705 -1.9300
 5272SOL    HW216433  -0.083   2.071   7.119 -1.3200 -0.7170  1.4545
 5273SOL     OW16434   4.004   5.221   4.436  0.9094 -0.0634 -0.1403
 5273SOL    HW116435   3.955   5.185   4.361  1.3455 -0.2275 -0.3465
 5273SOL    HW216436   3.939   5.275   4.482  1.1912  1.9952 -1.9562
 5274SOL     OW16437   2.460   3.540   3.085 -0.0617  0.1459 -0.1832
 5274SOL    HW116438   2.378   3.584   3.061  0.9224  0.6656 -2.9941
 5274SOL    HW216439   2.527   3.609   3.077  0.7421 -0.3395  1.7577
 5275SOL     OW16440   5.613   6.374   4.641  0.1978  0.0038 -0.0709
 5275SOL    HW116441   5.654   6.312   4.582  2.9446 -1.0580  2.6796
 5275SOL    HW216442   5.538   6.328   4.677  0.4379 -0.5723 -0.3076
 5276SOL     OW16443   0.778   6.206   1.709 -0.0659  0.3464  0.5843
 5276SOL    HW116444   0.687   6.230   1.690 -0.2714  0.0580  1.1837
 5276SOL    HW216445   0.804   6.265   1.779  1.2689  2.6201 -1.6820
 5277SOL     OW16446   3.630   5.291   2.406  0.4307  0.2267 -0.2118
 5277SOL    HW116447   3.579   5.211   2.395  0.6580 -0.4019  2.6563
 5277SOL    HW216448   3.635   5.328   2.318 -1.6840 -1.6636 -1.2340
 5278SOL     OW16449   5.380   0.808   4.130  0.4458 -0.3821  0.4176
 5278SOL    HW116450   5.318   0.866   4.086  0.4573  0.3418  1.3442
 5278SOL    HW216451   5.333   0.725   4.138  0.1808 -0.3082 -0.3034
 5279SOL     OW16452   1.065   2.324   3.632  0.7905 -0.7743 -0.2439
 5279SOL    HW116453   1.011   2.285   3.700  1.1058  0.2609  0.6282
 5279SOL    HW216454   1.057   2.419   3.646  0.2960 -0.5019 -2.0943
 5280SOL     OW16455   2.511   3.540   0.278  0.1882  0.1547  0.3767
 5280SOL    HW116456   2.550   3.508   0.197 -1.6402 -0.1435 -0.4333
 5280SOL    HW216457   2.579   3.596   0.316  1.2907 -0.1237 -1.0658
 5281SOL     OW16458   1.155   0.073   6.580  0.2018 -0.0538 -0.0975
 5281SOL    HW116459   1.073   0.110   6.614  0.6236 -0.3638  1.2809
 5281SOL    HW216460   1.134   0.050   6.489 -0.8915  0.9475 -0.1302
 5282SOL     OW16461   1.097   0.812   3.305 -0.1948 -0.4453 -0.3851
 5282SOL    HW116462   1.056   0.782   3.387  0.3258 -0.0165  0.0406
 5282SOL    HW216463   1.117   0.732   3.258  1.5339 -0.8334  0.9094
 5283SOL     OW16464   7.182   0.066   4.418 -0.8582  0.0150  0.0352
 5283SOL    HW116465   7.148  -0.021   4.438 -1.0376  0.3943  1.4731
 5283SOL    HW216466   7.269   0.050   4.381 -1.3046 -0.8069 -0.7025
 5284SOL     OW16467   5.261   5.423   2.157 -0.7041  0.2135 -0.1235
 5284SOL    HW116468   5.306   5.460   2.232 -0.0980  0.8675 -0.7883
 5284SOL    HW216469   5.308   5.342   2.137 -1.2069 -0.2500  0.5181
 5285SOL     OW16470   4.672   5.322   1.939  0.3380 -0.5654 -0.6838
 5285SOL    HW116471   4.674   5.241   1.989  0.8265  0.1553  0.5193
 5285SOL    HW216472   4.611   5.378   1.987 -0.5976 -0.4646 -1.9322
 5286SOL     OW16473   1.436   5.640   1.725  0.8027  0.6600  0.6913
 5286SOL    HW116474   1.529   5.661   1.723  0.9414  0.3998  2.4601
 5286SOL    HW216475   1.416   5.626   1.818 -1.0392  0.8701  0.3781
 5287SOL     OW16476   4.528   1.607   5.777  0.4140  0.1274 -0.3769
 5287SOL    HW116477   4.504   1.548   5.849  0.1767  2.4543  1.5717
 5287SOL    HW216478   4.623   1.616   5.784  0.3492  0.6413 -0.0834
 5288SOL     OW16479   1.023   2.040   6.716 -0.2425  0.7657 -0.2252
 5288SOL    HW116480   0.999   2.117   6.665 -0.6239 -0.2994 -1.7041
 5288SOL    HW216481   1.079   1.989   6.658  0.6818  0.2992  1.0281
 5289SOL     OW16482   1.475   0.623   4.485 -0.4641 -0.0448  0.1529
 5289SOL    HW116483   1.493   0.697   4.426 -2.0165 -0.3095 -0.7016
 5289SOL    HW216484   1.409   0.656   4.545  1.3241  0.3224  2.0446
 5290SOL     OW16485   0.838   3.854   5.351  0.0673  0.0861 -0.3168
 5290SOL    HW116486   0.790   3.901   5.419  0.9166  0.2006  0.2236
 5290SOL    HW216487   0.800   3.884   5.269  1.2936  2.5977 -0.0697
 5291SOL     OW16488   2.112   1.459   3.944 -0.1688  0.7605  0.2384
 5291SOL    HW116489   2.191   1.474   3.996  1.4130 -0.4804 -1.6855
 5291SOL    HW216490   2.043   1.443   4.009  1.4389  0.5224  1.9531
 5292SOL     OW16491   4.036   0.470   4.872  0.2199  0.4924  0.2279
 5292SOL    HW116492   3.951   0.443   4.838  0.2794  1.0547 -0.3798
 5292SOL    HW216493   4.100   0.429   4.814  0.3170  1.6559 -0.5116
 5293SOL     OW16494   6.905   4.182   4.518 -0.1043  0.1447 -0.0401
 5293SOL    HW116495   6.847   4.112   4.490  1.4822 -0.6524 -1.4624
 5293SOL    HW216496   6.908   4.242   4.444  0.4601  0.4567  0.2276
 5294SOL     OW16497   5.626   1.225   1.812 -0.2732  0.1666 -0.2735
 5294SOL    HW116498   5.628   1.250   1.719 -1.0793 -0.3217 -0.4333
 5294SOL    HW216499   5.646   1.307   1.859  0.0939  0.4272 -0.8704
 5295SOL     OW16500   4.768   0.133   2.282 -0.2782 -0.4808 -0.3387
 5295SOL    HW116501   4.820   0.185   2.344 -0.4945  1.7093 -1.8810
 5295SOL    HW216502   4.815   0.140   2.199 -1.3948 -1.1011 -1.0491
 5296SOL     OW16503   0.998   0.834   5.678  0.5490  0.0021  0.2112
 5296SOL    HW116504   1.035   0.877   5.755  0.4905 -0.5907  0.5714
 5296SOL    HW216505   0.935   0.897   5.643 -0.2688 -0.1765  1.3131
 5297SOL     OW16506   5.584   2.930   2.713 -0.4508 -0.3361 -0.8448
 5297SOL    HW116507   5.642   2.956   2.641  0.4268  0.7618  0.2230
 5297SOL    HW216508   5.505   2.897   2.669 -0.1122  0.6983 -2.3075
 5298SOL     OW16509   0.140   4.399   0.098 -0.0343  0.2398  0.5211
 5298SOL    HW116510   0.053   4.398   0.059  1.0233 -1.8059 -2.0863
 5298SOL    HW216511   0.183   4.476   0.060  0.8758 -1.5475 -2.4067
 5299SOL     OW16512   3.126   5.821   4.994 -0.8283 -0.4884  0.2816
 5299SOL    HW116513   3.074   5.890   4.955 -1.2843  0.2322  2.0486
 5299SOL    HW216514   3.215   5.857   5.000  0.0170 -1.7588 -2.8367
 5300SOL     OW16515   6.529   3.110   2.859  0.0682 -0.6824 -0.0234
 5300SOL    HW116516   6.557   3.058   2.783 -0.7114 -0.3263 -0.5739
 5300SOL    HW216517   6.433   3.102   2.859  0.1031 -1.4571  1.5040
 5301SOL     OW16518   0.681   3.608   6.652  0.6331 -0.1971 -0.2255
 5301SOL    HW116519   0.605   3.665   6.644  0.7656  0.0354  0.1181
 5301SOL    HW216520   0.743   3.642   6.588  1.6086  1.5184  1.5045
 5302SOL     OW16521   4.110   3.778   1.604  0.4517  0.3792  0.2722
 5302SOL    HW116522   4.109   3.743   1.693 -2.1485  1.6019  0.8230
 5302SOL    HW216523   4.101   3.701   1.547  1.0944 -0.3194  1.0962
 5303SOL     OW16524   4.270   3.106   6.064 -0.1071 -0.2967 -0.8469
 5303SOL    HW116525   4.300   3.018   6.085  0.6060 -0.3489 -1.9606
 5303SOL    HW216526   4.184   3.093   6.024 -0.4635 -0.3905 -0.0548
 5304SOL     OW16527   5.606   4.315   2.318 -0.1492 -0.3488 -0.2199
 5304SOL    HW116528   5.621   4.251   2.248 -1.1485 -2.3796  1.3238
 5304SOL    HW216529   5.677   4.299   2.380 -0.0753  0.4784 -0.0867
 5305SOL     OW16530   1.215   0.587   4.032 -0.1661  0.6599  0.2879
 5305SOL    HW116531   1.191   0.616   4.120 -2.2902 -2.2509  0.8162
 5305SOL    HW216532   1.289   0.528   4.046 -0.0815  0.7143  0.0630
 5306SOL     OW16533   1.979   4.059   4.578 -0.5541  0.0861 -0.1395
 5306SOL    HW116534   1.959   3.965   4.570 -1.9331  0.0979  2.2263
 5306SOL    HW216535   1.896   4.103   4.564 -0.7132  0.6724  2.2175
 5307SOL     OW16536   5.720   2.085   4.432 -0.4666 -0.3179 -0.1850
 5307SOL    HW116537   5.678   2.073   4.347 -2.2024 -1.2476  0.7477
 5307SOL    HW216538   5.676   2.160   4.470  1.2334  0.9473 -0.6042
 5308SOL     OW16539   5.104   5.170   2.964 -0.3475  0.3694 -0.0271
 5308SOL    HW116540   5.153   5.145   2.886  0.1120  0.8162  0.1119
 5308SOL    HW216541   5.016   5.134   2.950  0.1367 -0.8220 -0.0701
 5309SOL     OW16542   2.351   7.254   0.984  0.2870 -0.4278  0.0755
 5309SOL    HW116543   2.400   7.311   1.043 -1.2736  0.9581  0.1010
 5309SOL    HW216544   2.413   7.232   0.915  0.9229  1.4014  0.0197
 5310SOL     OW16545   6.855   0.085   6.421 -0.3034  0.5450 -0.3266
 5310SOL    HW116546   6.780   0.123   6.376  0.5143  1.4897 -0.9367
 5310SOL    HW216547   6.928   0.143   6.399  0.9126 -1.1091 -0.9056
 5311SOL     OW16548   5.502   6.687   3.102 -0.0232  0.1087 -0.0499
 5311SOL    HW116549   5.446   6.762   3.084 -2.2648 -1.4640 -0.0292
 5311SOL    HW216550   5.499   6.634   3.022  0.6477 -0.4845  0.2995
 5312SOL     OW16551   0.424   7.051   3.991 -0.3269 -0.5552 -0.3467
 5312SOL    HW116552   0.374   7.102   4.054 -0.6309 -1.5781  0.2684
 5312SOL    HW216553   0.475   7.116   3.941  0.4098  0.2416  1.3713
 5313SOL     OW16554   6.621   3.886   0.790  0.0174 -0.1303 -0.5217
 5313SOL    HW116555   6.679   3.904   0.864  0.0242  2.6397 -1.1132
 5313SOL    HW216556   6.540   3.853   0.831 -1.1984  4.2249  1.1990
 5314SOL     OW16557   0.081   0.895   1.628 -0.1464  0.1496  0.2266
 5314SOL    HW116558  -0.002   0.928   1.593 -0.8734  0.3124  2.0010
 5314SOL    HW216559   0.146   0.957   1.595 -0.8941  0.7103 -0.2446
 5315SOL     OW16560   2.326   3.265   5.426 -0.8325 -0.7085 -0.4114
 5315SOL    HW116561   2.279   3.341   5.462  1.5314  0.7965 -0.2280
 5315SOL    HW216562   2.291   3.254   5.338 -0.4607  1.3888 -0.8773
 5316SOL     OW16563   5.248   6.173   2.707  0.1618  0.3155 -0.1886
 5316SOL    HW116564   5.338   6.199   2.687  0.0959  0.2427 -0.5887
 5316SOL    HW216565   5.252   6.078   2.718  0.3228  0.4275  0.8504
 5317SOL     OW16566   5.968   2.161   5.656 -0.4207 -0.2440  0.3364
 5317SOL    HW116567   6.021   2.234   5.691 -0.8788 -0.5042  1.6237
 5317SOL    HW216568   6.014   2.135   5.576  0.6248  0.4414  0.6843
 5318SOL     OW16569   4.637   5.785   6.072  0.0944  0.3194  0.1881
 5318SOL    HW116570   4.584   5.740   6.138 -0.3048  0.6916  0.1276
 5318SOL    HW216571   4.697   5.718   6.039  0.7366  0.2791  1.3781
 5319SOL     OW16572   6.611   0.287   1.426  0.0442  0.2513 -0.2993
 5319SOL    HW116573   6.651   0.276   1.513  0.8987  2.7242 -0.2925
 5319SOL    HW216574   6.682   0.322   1.372 -1.0899  0.9956 -1.3500
 5320SOL     OW16575   1.904   6.302   1.915  0.0558 -0.0807 -0.4282
 5320SOL    HW116576   1.887   6.341   2.001  1.2397 -0.2040 -0.1293
 5320SOL    HW216577   1.821   6.261   1.891  0.1480 -1.4509  1.3884
 5321SOL     OW16578   4.013   5.494   1.074 -0.1916 -0.2671  0.3445
 5321SOL    HW116579   4.021   5.438   0.997 -2.4781  0.2584 -0.3342
 5321SOL    HW216580   4.019   5.433   1.148 -3.4580 -1.6480 -0.3756
 5322SOL     OW16581   5.640   1.126   3.784 -0.1785  0.3373 -0.5544
 5322SOL    HW116582   5.608   1.158   3.868 -0.0407 -0.2352 -0.2801
 5322SOL    HW216583   5.702   1.057   3.807  0.8188  1.0258 -1.0819
 5323SOL     OW16584   6.390   5.788   2.501 -0.6237 -0.1099  0.1392
 5323SOL    HW116585   6.355   5.877   2.494  0.6370  0.4288  0.2961
 5323SOL    HW216586   6.328   5.734   2.453 -3.7167  0.1633  3.4009
 5324SOL     OW16587   0.835   0.691   0.930  0.1236 -0.0331 -0.1529
 5324SOL    HW116588   0.774   0.755   0.965  1.5048  0.6361  1.1677
 5324SOL    HW216589   0.849   0.628   1.001  0.4810 -0.5347 -0.6520
 5325SOL     OW16590   5.355   4.730   3.501 -0.5745 -0.0008  0.1795
 5325SOL    HW116591   5.386   4.820   3.492 -0.2572 -0.1894 -0.7379
 5325SOL    HW216592   5.434   4.677   3.495 -0.9755 -0.4637 -1.6467
 5326SOL     OW16593   6.876   6.119   4.700 -0.1974  0.0248  0.0757
 5326SOL    HW116594   6.889   6.055   4.630 -0.5231 -0.2129  0.2294
 5326SOL    HW216595   6.901   6.073   4.780 -0.5428  0.0524  0.2010
 5327SOL     OW16596   1.412   1.340   7.038 -0.6433  0.0673 -0.1187
 5327SOL    HW116597   1.470   1.267   7.017 -2.3819 -1.1666 -0.9160
 5327SOL    HW216598   1.327   1.313   7.004 -1.3107  2.5973 -0.6983
 5328SOL     OW16599   2.533   1.093   6.377  0.8559 -0.3952 -0.6543
 5328SOL    HW116600   2.574   1.166   6.330 -1.6616  0.5088 -1.5928
 5328SOL    HW216601   2.594   1.073   6.448  1.6283  2.6994 -0.3121
 5329SOL     OW16602   6.057   2.395   2.330 -0.2763  0.0685  0.0367
 5329SOL    HW116603   6.032   2.327   2.392 -1.2766  0.7309  0.3966
 5329SOL    HW216604   6.005   2.471   2.357 -1.3504  0.1479 -2.0780
 5330SOL     OW16605   6.323   0.518   4.193 -0.5646  0.2535 -0.2699
 5330SOL    HW116606   6.233   0.486   4.183 -0.8695  1.0592 -0.1518
 5330SOL    HW216607   6.353   0.535   4.104 -0.1403 -1.0365 -0.3900
 5331SOL     OW16608   5.681   2.114   5.458 -0.8298  0.3577  0.2966
 5331SOL    HW116609   5.608   2.118   5.397 -1.3466  0.7038  0.9270
 5331SOL    HW216610   5.759   2.110   5.402 -1.3527 -0.8320 -0.3809
 5332SOL     OW16611   4.655   0.993   4.635 -0.2663 -0.8540  0.5094
 5332SOL    HW116612   4.572   0.962   4.672 -0.5982 -1.4686 -0.6935
 5332SOL    HW216613   4.630   1.029   4.550  0.7188 -1.1405  0.0934
 5333SOL     OW16614   0.220   4.720   0.204 -0.2035  0.6164 -0.3401
 5333SOL    HW116615   0.150   4.779   0.175 -1.8633 -0.8880  0.4822
 5333SOL    HW216616   0.257   4.686   0.122 -1.9844 -0.3086 -0.8096
 5334SOL     OW16617   1.246   4.667   3.336 -0.2500  0.7531 -0.5858
 5334SOL    HW116618   1.250   4.730   3.408  0.1435  1.6043 -1.3426
 5334SOL    HW216619   1.294   4.708   3.265 -0.0236 -0.3932 -1.1131
 5335SOL     OW16620   1.359   0.201   1.516  0.0969 -0.1760  0.1141
 5335SOL    HW116621   1.362   0.206   1.611  1.6445  1.6511  0.0158
 5335SOL    HW216622   1.368   0.292   1.486  3.4394 -0.9795 -1.8081
 5336SOL     OW16623   5.263   0.557   4.157  0.0691  0.0756 -0.4204
 5336SOL    HW116624   5.197   0.489   4.145  0.2591 -0.4820  1.4070
 5336SOL    HW216625   5.336   0.512   4.200 -0.8696  1.8920  3.4452
 5337SOL     OW16626   5.450   2.098   2.141  0.6423  0.1940  0.2827
 5337SOL    HW116627   5.485   2.181   2.175  0.1252  0.8675 -0.7626
 5337SOL    HW216628   5.454   2.108   2.046 -1.2623 -0.1717  0.1178
 5338SOL     OW16629   1.035   1.265   4.385 -0.1976  0.8274 -0.2273
 5338SOL    HW116630   0.953   1.307   4.413 -0.0692  1.4661 -0.7634
 5338SOL    HW216631   1.104   1.312   4.431 -0.2017 -1.0333  1.8108
 5339SOL     OW16632   6.794   1.815   2.794 -1.1176  0.2440  0.1873
 5339SOL    HW116633   6.796   1.911   2.790 -0.8721  0.2169 -0.6091
 5339SOL    HW216634   6.701   1.793   2.794 -1.1748  0.4829  0.1926
 5340SOL     OW16635   2.584   3.118   5.021  0.2457  0.3871 -0.4244
 5340SOL    HW116636   2.574   3.095   4.929  0.4551 -0.3494 -0.2743
 5340SOL    HW216637   2.500   3.157   5.046  0.2741  0.8123 -0.9830
 5341SOL     OW16638   6.285   4.022   3.306  0.0063  0.6047 -0.1385
 5341SOL    HW116639   6.262   3.937   3.269  1.8344 -0.0298  0.0763
 5341SOL    HW216640   6.376   4.012   3.334  0.3888  2.7467 -0.4403
 5342SOL     OW16641   0.221   7.231   0.132  0.1677  0.2291 -0.1213
 5342SOL    HW116642   0.209   7.326   0.136 -1.1375  0.0539  3.2178
 5342SOL    HW216643   0.200   7.209   0.041  1.0697  3.1480 -1.1717
 5343SOL     OW16644   1.471   0.847   5.742 -0.1656  0.3059  0.0089
 5343SOL    HW116645   1.468   0.761   5.702 -0.4938  1.0761 -1.7165
 5343SOL    HW216646   1.559   0.854   5.779  1.0586  0.3973 -2.6739
 5344SOL     OW16647   4.791   1.833   4.608 -1.0680  0.2965  0.0323
 5344SOL    HW116648   4.753   1.753   4.573  0.2815  0.6239 -2.4434
 5344SOL    HW216649   4.809   1.887   4.531  1.3212  1.5021  1.2976
 5345SOL     OW16650   4.843   6.225   6.938  0.2060 -0.0593  0.6258
 5345SOL    HW116651   4.756   6.247   6.973 -0.7307 -2.2410 -0.1314
 5345SOL    HW216652   4.839   6.131   6.923  0.8319  0.4397 -4.3720
 5346SOL     OW16653   0.524   0.250   2.906  0.2121 -0.4386  0.7154
 5346SOL    HW116654   0.606   0.238   2.954 -1.1904  1.1985  3.7857
 5346SOL    HW216655   0.501   0.342   2.921 -1.0144 -0.1888 -2.1383
 5347SOL     OW16656   2.068   6.359   2.195  0.8836 -0.0374 -0.0172
 5347SOL    HW116657   1.983   6.342   2.155  1.6302 -1.6333 -1.0456
 5347SOL    HW216658   2.067   6.452   2.215 -1.1819 -0.0578  0.2250
 5348SOL     OW16659   3.995   6.328   6.133  0.3725  0.3342  0.1841
 5348SOL    HW116660   4.029   6.370   6.213 -0.2849  2.7158 -0.7061
 5348SOL    HW216661   4.045   6.247   6.127  0.4112  0.0159  3.0378
 5349SOL     OW16662   7.245   3.045   2.338  0.4482 -0.0533  0.0883
 5349SOL    HW116663   7.165   3.087   2.370 -0.8224 -0.9837 -1.6971
 5349SOL    HW216664   7.249   2.963   2.387  0.3664  0.0549  0.2778
 5350SOL     OW16665   3.553   3.846   1.326  0.7888  0.3003  0.0152
 5350SOL    HW116666   3.598   3.864   1.243  1.6481 -0.8925  0.1946
 5350SOL    HW216667   3.612   3.880   1.393  0.9947 -0.4112  0.2065
 5351SOL     OW16668   1.075   6.419   2.190 -0.4713  0.6309 -0.2088
 5351SOL    HW116669   1.143   6.466   2.238 -1.6999  1.5373  0.7016
 5351SOL    HW216670   0.996   6.470   2.204 -1.6191 -1.0667 -0.2000
 5352SOL     OW16671   2.434   3.079   0.326  0.1810  0.0106  0.9343
 5352SOL    HW116672   2.476   3.122   0.401  1.7951 -1.2159  0.7718
 5352SOL    HW216673   2.506   3.043   0.275 -0.8415  1.2532 -1.5380
 5353SOL     OW16674   4.479   1.351   4.639 -0.0220  0.3171 -0.5268
 5353SOL    HW116675   4.514   1.326   4.553 -2.2427 -1.3921 -1.0373
 5353SOL    HW216676   4.384   1.355   4.626 -0.7119 -2.5229  2.3705
 5354SOL     OW16677   6.232   6.224   6.567  0.0666  0.0405  0.3539
 5354SOL    HW116678   6.317   6.185   6.547  0.7936  1.7914 -0.1947
 5354SOL    HW216679   6.242   6.258   6.656 -1.1641 -2.4901  1.5422
 5355SOL     OW16680   4.100   5.328   0.871 -0.2674  0.2832  0.2327
 5355SOL    HW116681   4.122   5.383   0.796 -1.5279  0.0632 -0.3220
 5355SOL    HW216682   4.153   5.250   0.859 -0.5119  0.2165 -0.4801
 5356SOL     OW16683   3.855   6.025   4.623 -0.7346 -0.1030 -0.7044
 5356SOL    HW116684   3.861   5.938   4.584  1.0208  0.5819 -2.1223
 5356SOL    HW216685   3.918   6.024   4.695  1.0477  0.6449 -2.1856
 5357SOL     OW16686   7.159   2.829   6.114  0.2294  0.5306  0.3054
 5357SOL    HW116687   7.137   2.737   6.130  0.4292  0.1295 -1.4921
 5357SOL    HW216688   7.180   2.832   6.021 -1.9409  2.8071 -0.2140
 5358SOL     OW16689   6.266   0.794   3.167  0.4551  0.4009  0.2524
 5358SOL    HW116690   6.283   0.761   3.079  1.2265  0.6834  0.2880
 5358SOL    HW216691   6.189   0.849   3.158 -0.5834 -1.0257  0.1049
 5359SOL     OW16692   5.197   2.846   5.904 -0.5535 -0.6755  0.1872
 5359SOL    HW116693   5.277   2.896   5.886 -0.2572 -0.7680  1.2052
 5359SOL    HW216694   5.189   2.786   5.830  0.3318 -0.6810  0.0888
 5360SOL     OW16695   3.082   0.077   6.541  0.0784  0.1346 -1.0970
 5360SOL    HW116696   2.994   0.093   6.576  0.2556 -0.7718 -0.1985
 5360SOL    HW216697   3.067   0.052   6.449 -0.5210  0.9326 -1.2266
 5361SOL     OW16698   5.035   0.938   4.560 -0.2578 -0.4403  0.0219
 5361SOL    HW116699   5.041   0.995   4.637 -3.1521 -1.5577  1.2007
 5361SOL    HW216700   5.089   0.863   4.582  1.7190  0.7201 -0.5857
 5362SOL     OW16701   2.481   0.026   5.021  0.5451 -0.0751 -0.2099
 5362SOL    HW116702   2.393  -0.005   5.000  0.3382 -0.0993  0.6604
 5362SOL    HW216703   2.538  -0.020   4.959 -0.0558 -0.0493 -0.7845
 5363SOL     OW16704   1.781   4.345   7.241 -0.1570 -0.9408 -0.5219
 5363SOL    HW116705   1.731   4.401   7.300 -0.4402 -2.3145  0.5910
 5363SOL    HW216706   1.747   4.366   7.154 -0.3565  0.4758 -0.1338
 5364SOL     OW16707   2.850   3.913   5.372 -0.3535  0.2857 -1.0193
 5364SOL    HW116708   2.835   3.984   5.309 -1.8808  1.6345  0.7414
 5364SOL    HW216709   2.896   3.954   5.445 -0.8970 -0.6014 -0.1430
 5365SOL     OW16710   0.672   5.135   7.096 -0.0912  0.5083 -0.0797
 5365SOL    HW116711   0.658   5.050   7.055  0.9247  0.7097 -0.8669
 5365SOL    HW216712   0.604   5.192   7.058  0.2727  0.4625 -0.8110
 5366SOL     OW16713   3.480   5.326   6.724 -0.7332 -0.5177  0.2073
 5366SOL    HW116714   3.442   5.244   6.693 -0.1738 -0.5476 -0.4115
 5366SOL    HW216715   3.571   5.322   6.696 -0.6379  0.2031  0.4051
 5367SOL     OW16716   2.047   6.018   2.323 -0.2050 -0.7062  0.3218
 5367SOL    HW116717   1.964   6.063   2.308 -0.1629 -0.5418  0.5754
 5367SOL    HW216718   2.047   5.998   2.416 -0.9487 -2.6863 -0.0574
 5368SOL     OW16719   0.686   1.040   3.517 -0.2838  0.4339  0.2477
 5368SOL    HW116720   0.728   0.989   3.448  3.2259  1.9350  1.0634
 5368SOL    HW216721   0.680   0.980   3.591 -2.3767 -0.6290 -0.6906
 5369SOL     OW16722   4.610   5.472   5.956  0.0170 -0.2699 -0.1163
 5369SOL    HW116723   4.699   5.508   5.948 -0.2636  0.5021  0.1209
 5369SOL    HW216724   4.560   5.518   5.888 -0.3748 -0.1383  0.2612
 5370SOL     OW16725   2.779   4.612   5.195  0.1620  0.0929 -0.0248
 5370SOL    HW116726   2.872   4.622   5.173  0.0326  1.4179 -0.0568
 5370SOL    HW216727   2.739   4.695   5.169 -1.3114 -0.9533 -1.2820
 5371SOL     OW16728   6.134   4.605   0.577  0.3749  0.0750 -0.1814
 5371SOL    HW116729   6.117   4.593   0.484 -1.5235  0.0271  0.1333
 5371SOL    HW216730   6.105   4.695   0.596 -0.4311 -0.3189  0.5730
 5372SOL     OW16731   5.096   4.501   1.376 -0.2697  0.4595  0.3858
 5372SOL    HW116732   5.032   4.550   1.326 -0.6137 -0.9681 -0.6512
 5372SOL    HW216733   5.082   4.410   1.350  0.5563 -0.1652  1.9747
 5373SOL     OW16734   3.910   4.752   3.862  0.3963 -0.0775 -0.4769
 5373SOL    HW116735   3.981   4.815   3.850  0.4090  0.1214  0.5338
 5373SOL    HW216736   3.947   4.685   3.920  1.0572 -2.1465 -3.1078
 5374SOL     OW16737   1.930   0.468   2.440  0.2293 -0.1030 -0.5300
 5374SOL    HW116738   1.843   0.427   2.434  0.2606 -0.1957 -0.3502
 5374SOL    HW216739   1.971   0.448   2.356 -0.0158  0.1514 -0.7138
 5375SOL     OW16740   2.363   4.390   1.911  0.4565  0.0717  0.0923
 5375SOL    HW116741   2.310   4.323   1.868  0.6142 -0.8605  1.2857
 5375SOL    HW216742   2.313   4.471   1.900 -0.3378 -0.4608 -0.3254
 5376SOL     OW16743   1.884   3.830   0.058  0.5588  0.0970  0.2763
 5376SOL    HW116744   1.969   3.794   0.032 -0.5413 -1.3707 -1.5586
 5376SOL    HW216745   1.894   3.924   0.048  2.3483  0.0756  1.3782
 5377SOL     OW16746   3.914   7.033   0.479  0.0774  0.7345  0.0067
 5377SOL    HW116747   3.862   7.106   0.446  1.1986  1.6039  0.1194
 5377SOL    HW216748   3.855   6.987   0.539 -0.5036  1.8322  0.3081
 5378SOL     OW16749   1.739   4.397   1.513 -0.0772  0.1574  0.3825
 5378SOL    HW116750   1.700   4.384   1.599  0.0165 -0.3142  0.3583
 5378SOL    HW216751   1.832   4.380   1.526  0.3106  2.3005  0.6604
 5379SOL     OW16752   0.628   4.953   0.857 -0.6059 -0.4721 -0.1537
 5379SOL    HW116753   0.591   5.040   0.874  0.6358  0.4199 -1.7076
 5379SOL    HW216754   0.630   4.947   0.761 -1.0955 -2.4258 -0.0675
 5380SOL     OW16755   4.233   3.088   4.223 -0.2134 -0.5639  0.2988
 5380SOL    HW116756   4.281   3.102   4.305 -1.1555 -0.8337  0.9166
 5380SOL    HW216757   4.144   3.068   4.251 -1.0079  1.1134 -0.8344
 5381SOL     OW16758   3.791   6.183   5.074  0.1462 -0.3639 -0.3213
 5381SOL    HW116759   3.780   6.108   5.132  1.8404 -0.5116 -0.1476
 5381SOL    HW216760   3.751   6.257   5.121 -0.8989 -0.9939 -0.1899
 5382SOL     OW16761   7.101   3.041   2.955 -0.3112 -0.1397  0.4131
 5382SOL    HW116762   7.139   2.991   2.882 -1.1920 -1.6084  0.9023
 5382SOL    HW216763   7.176   3.068   3.007  0.2369 -0.4448 -0.1999
 5383SOL     OW16764   1.729   0.979   0.858 -0.3986  0.4656  0.3386
 5383SOL    HW116765   1.654   0.952   0.911  0.6802  0.1710  1.7706
 5383SOL    HW216766   1.791   0.907   0.866 -0.2902  0.3060 -1.5616
 5384SOL     OW16767   0.098   4.391   6.906  0.2979  0.6130  0.0121
 5384SOL    HW116768   0.009   4.356   6.917  0.8808 -1.3038 -0.8408
 5384SOL    HW216769   0.154   4.327   6.950  1.2809  1.8138  0.5703
 5385SOL     OW16770   5.497   0.703   4.682 -0.4471  0.3542 -0.2342
 5385SOL    HW116771   5.526   0.692   4.592  2.0724  2.0698  0.2621
 5385SOL    HW216772   5.470   0.795   4.686  1.2709  0.8538  1.1379
 5386SOL     OW16773   6.089   6.227   6.186 -0.6779 -1.0274 -0.7006
 5386SOL    HW116774   6.015   6.288   6.186 -0.5201 -0.6821  2.2234
 5386SOL    HW216775   6.166   6.283   6.200 -0.4938 -1.7716  1.7117
 5387SOL     OW16776   1.674   1.530   4.464  0.0830  0.4567  0.7978
 5387SOL    HW116777   1.635   1.522   4.377  0.8178 -1.0167  0.5749
 5387SOL    HW216778   1.600   1.540   4.523 -0.4200  1.5713  0.0094
 5388SOL     OW16779   1.755   3.882   0.791 -0.2058  0.4337 -0.2532
 5388SOL    HW116780   1.726   3.884   0.700  0.4730 -0.4260 -0.5058
 5388SOL    HW216781   1.850   3.892   0.786 -0.2904  1.9596  0.4745
 5389SOL     OW16782   5.492   7.244   6.299 -0.3656  0.6654  0.3171
 5389SOL    HW116783   5.516   7.336   6.286 -0.3008  0.6427  0.2775
 5389SOL    HW216784   5.537   7.218   6.379  0.1051  0.4914 -0.0045
 5390SOL     OW16785   4.126   1.207   2.909  0.0942 -0.3052  0.4017
 5390SOL    HW116786   4.171   1.134   2.952  2.8655 -0.1045 -1.8679
 5390SOL    HW216787   4.093   1.170   2.827 -1.4047  0.2715  0.7249
 5391SOL     OW16788   6.851   3.999   0.104 -0.0288 -0.4418  0.1041
 5391SOL    HW116789   6.808   4.032   0.026 -1.1463 -0.9239  0.4988
 5391SOL    HW216790   6.943   3.991   0.079 -0.1683  0.5203 -0.7834
 5392SOL     OW16791   3.348   3.466   4.816 -0.2771  0.3931 -0.4050
 5392SOL    HW116792   3.381   3.521   4.745  2.0140  0.2040  0.4344
 5392SOL    HW216793   3.373   3.377   4.791 -1.4442  0.0551 -0.4058
 5393SOL     OW16794   4.573   6.235   6.997 -0.2786 -0.7192 -0.3450
 5393SOL    HW116795   4.540   6.153   7.035  0.9243 -1.3233 -0.5453
 5393SOL    HW216796   4.506   6.262   6.936 -0.7586 -1.4914 -0.1788
 5394SOL     OW16797   3.979   1.778   0.260 -0.3539 -0.4135  0.5834
 5394SOL    HW116798   3.953   1.809   0.347  0.7111  0.7310  0.5249
 5394SOL    HW216799   3.932   1.837   0.200 -1.5039 -1.5334  0.3372
 5395SOL     OW16800   0.167   3.908   1.683 -0.3485 -0.6293  0.7482
 5395SOL    HW116801   0.237   3.973   1.673 -0.2545 -0.8082  0.2126
 5395SOL    HW216802   0.179   3.874   1.771 -0.5036  0.2025  1.0995
 5396SOL     OW16803   1.443   4.509   2.194  0.3181  0.9400 -0.1226
 5396SOL    HW116804   1.442   4.424   2.239  0.2066  1.0952  0.1626
 5396SOL    HW216805   1.511   4.559   2.239 -0.5322  1.4842  0.5794
 5397SOL     OW16806   6.781   1.306   0.950  0.1154 -0.6194 -0.2722
 5397SOL    HW116807   6.690   1.275   0.953 -0.2083  0.3327  0.9117
 5397SOL    HW216808   6.774   1.400   0.967  1.2768 -0.4135 -0.8696
 5398SOL     OW16809   3.265   2.678   4.764  0.0828 -0.0838 -0.0128
 5398SOL    HW116810   3.254   2.693   4.670  2.8026 -0.4073 -0.4394
 5398SOL    HW216811   3.222   2.753   4.805 -0.5237  0.4287 -1.5147
 5399SOL     OW16812   2.521   1.901   3.264 -0.7959  0.2284  0.0785
 5399SOL    HW116813   2.582   1.835   3.297 -0.1753 -0.1950 -1.7849
 5399SOL    HW216814   2.494   1.950   3.342  3.8451  2.1192  0.7812
 5400SOL     OW16815   5.239   4.831   0.591 -0.3115 -0.4247  0.0992
 5400SOL    HW116816   5.332   4.816   0.577 -0.3896 -0.6324 -0.2136
 5400SOL    HW216817   5.229   4.926   0.585 -0.0087 -0.3366  0.8655
 5401SOL     OW16818   5.316   6.180   6.085  0.3106 -0.1081 -0.1942
 5401SOL    HW116819   5.378   6.248   6.055 -0.0184  0.4053  0.2688
 5401SOL    HW216820   5.232   6.208   6.049  0.0906 -0.0217  0.3797
 5402SOL     OW16821   3.744   3.124   5.691 -0.1396  0.0155  0.3739
 5402SOL    HW116822   3.731   3.087   5.604 -0.8234  0.3177  0.3366
 5402SOL    HW216823   3.794   3.058   5.738 -0.0749 -0.3102 -0.1375
 5403SOL     OW16824   1.692   3.300   4.892 -0.3620  0.5848  0.2806
 5403SOL    HW116825   1.673   3.346   4.811  2.5157  2.2658  0.4151
 5403SOL    HW216826   1.686   3.367   4.960 -1.7782 -0.5904  1.3932
 5404SOL     OW16827   4.776   1.528   3.856  0.4516 -0.3005  0.2115
 5404SOL    HW116828   4.742   1.605   3.811  0.7677 -1.5707 -2.4163
 5404SOL    HW216829   4.861   1.555   3.889  1.0141  0.2335 -1.5791
 5405SOL     OW16830   5.871   2.573   1.033 -0.2162  0.2217  0.2202
 5405SOL    HW116831   5.904   2.527   0.956  1.5250 -0.3820  1.2713
 5405SOL    HW216832   5.879   2.666   1.011  1.2886  0.0731  0.0481
 5406SOL     OW16833   2.435   4.711   5.235 -0.0421  0.0375 -0.1688
 5406SOL    HW116834   2.488   4.671   5.304 -0.0487  0.8057  0.2835
 5406SOL    HW216835   2.389   4.783   5.278 -1.3163 -0.4971 -0.5976
 5407SOL     OW16836   4.051   5.144   2.507 -0.4177  0.0632  0.1874
 5407SOL    HW116837   4.112   5.081   2.468 -1.0810 -1.5482  1.5706
 5407SOL    HW216838   3.966   5.119   2.473 -0.7252  0.0055  0.9705
 5408SOL     OW16839   0.143   1.366   6.817 -0.4057  0.7503 -0.1851
 5408SOL    HW116840   0.091   1.303   6.867  0.7139 -0.4039 -0.4155
 5408SOL    HW216841   0.177   1.315   6.744  2.6664  0.8857  1.0252
 5409SOL     OW16842   6.175   4.660   6.492 -0.1425  0.4107 -0.2221
 5409SOL    HW116843   6.196   4.567   6.488  0.6359  0.6067 -1.2001
 5409SOL    HW216844   6.116   4.675   6.418  0.5770  0.8734 -0.7211
 5410SOL     OW16845   2.698   5.440   2.147  0.5039  0.0868  0.5320
 5410SOL    HW116846   2.673   5.463   2.237 -0.7056 -1.6444  0.7100
 5410SOL    HW216847   2.635   5.485   2.092  1.3052  1.2272  0.5236
 5411SOL     OW16848   2.417   6.800   0.502  0.0507  0.1245 -0.1906
 5411SOL    HW116849   2.337   6.841   0.467 -1.0008 -2.0533 -0.4735
 5411SOL    HW216850   2.436   6.850   0.581 -2.2393  0.0164  0.4986
 5412SOL     OW16851   5.587   5.615   1.762 -0.3408 -0.4982 -0.2004
 5412SOL    HW116852   5.593   5.539   1.704  1.1727 -0.7609  0.2538
 5412SOL    HW216853   5.601   5.691   1.705 -1.5384 -0.5539 -0.6011
 5413SOL     OW16854   2.317   0.091   5.406  0.1274  0.1427  0.5715
 5413SOL    HW116855   2.256   0.048   5.345  1.8482 -0.7719 -0.5950
 5413SOL    HW216856   2.322   0.181   5.374  0.9858 -0.3208 -0.6670
 5414SOL     OW16857   3.856   2.295   3.195 -0.1566 -0.1338  0.0727
 5414SOL    HW116858   3.869   2.389   3.206 -0.0360 -0.0706 -0.5641
 5414SOL    HW216859   3.858   2.260   3.284 -1.5302  0.6407  0.4421
 5415SOL     OW16860   4.662   1.646   2.858 -0.2216  0.2278  0.0003
 5415SOL    HW116861   4.724   1.703   2.903 -0.0582  0.3471 -0.3779
 5415SOL    HW216862   4.586   1.701   2.841 -0.4910  0.0501  0.5725
 5416SOL     OW16863   0.955   4.692   5.859  0.0338 -0.0691  0.3732
 5416SOL    HW116864   0.934   4.613   5.809  0.6155  0.7647 -1.2783
 5416SOL    HW216865   1.051   4.695   5.860  0.0314  0.1248  1.2619
 5417SOL     OW16866   6.597   4.027   1.294 -0.3509 -0.6404  0.5912
 5417SOL    HW116867   6.535   4.091   1.328  0.6528  1.0815 -0.6562
 5417SOL    HW216868   6.669   4.027   1.357 -0.7008 -1.1339  0.9950
 5418SOL     OW16869   7.068   2.799   0.549 -0.3681 -0.5263  0.2828
 5418SOL    HW116870   7.112   2.853   0.615 -0.3455 -0.7324  0.4377
 5418SOL    HW216871   7.006   2.746   0.598  0.1567 -1.2006  0.2341
 5419SOL     OW16872   1.459   2.579   6.317 -0.0369 -0.2991  0.4699
 5419SOL    HW116873   1.413   2.514   6.263 -1.4309  0.5659  0.5638
 5419SOL    HW216874   1.438   2.663   6.276  1.9119  0.1018  0.2298
 5420SOL     OW16875   6.313   5.368   5.413  0.1524  0.4143  0.6235
 5420SOL    HW116876   6.373   5.421   5.361  0.2296 -1.2038 -1.0100
 5420SOL    HW216877   6.304   5.417   5.495  1.7287  1.9449 -0.0425
 5421SOL     OW16878   2.350   6.268   0.287  0.0972  0.7114  0.3282
 5421SOL    HW116879   2.362   6.259   0.382  1.6782 -2.3931 -0.0529
 5421SOL    HW216880   2.433   6.238   0.249 -1.2675 -0.2730 -2.0795
 5422SOL     OW16881   0.642   5.901   7.075  0.3048 -0.2908  0.3259
 5422SOL    HW116882   0.645   5.806   7.064  0.3915 -0.2392 -0.1353
 5422SOL    HW216883   0.651   5.935   6.986  2.0713  0.1848  0.6509
 5423SOL     OW16884   3.689   3.853   5.598  0.0326 -0.4049 -0.4047
 5423SOL    HW116885   3.708   3.768   5.557  3.1860 -0.5282  1.0014
 5423SOL    HW216886   3.660   3.831   5.686  1.4769 -0.1050  0.1839
 5424SOL     OW16887   3.786   3.546   4.342 -0.6187 -0.5727  0.3157
 5424SOL    HW116888   3.733   3.471   4.315  0.9000 -1.4123 -0.4429
 5424SOL    HW216889   3.824   3.579   4.261  0.9700 -0.7390  0.9681
 5425SOL     OW16890   4.285   1.179   2.190 -0.0913 -0.5874 -0.0606
 5425SOL    HW116891   4.357   1.125   2.158 -1.0643 -1.4722 -0.8317
 5425SOL    HW216892   4.222   1.115   2.225 -0.9322  0.1019 -0.2980
 5426SOL     OW16893   4.709   1.218   2.155 -0.0940  0.2022 -0.1266
 5426SOL    HW116894   4.765   1.182   2.086  0.7757 -0.8878  1.1116
 5426SOL    HW216895   4.743   1.307   2.170  1.6154 -0.5772  0.8822
 5427SOL     OW16896   0.272   3.082   3.337 -0.1453  0.7192 -0.1727
 5427SOL    HW116897   0.267   3.130   3.254  0.2174 -0.5946 -0.9947
 5427SOL    HW216898   0.366   3.073   3.354 -0.2085  0.4377  0.0468
 5428SOL     OW16899   7.023   3.468   2.159  0.0994  0.3875  0.0995
 5428SOL    HW116900   6.967   3.430   2.227  0.0260 -0.4296 -0.4082
 5428SOL    HW216901   6.984   3.554   2.141 -0.0153  0.5178  0.9197
 5429SOL     OW16902   2.626   3.728   3.969 -0.2174  0.4001 -0.4200
 5429SOL    HW116903   2.592   3.804   3.922 -0.4025  0.1049 -0.7623
 5429SOL    HW216904   2.607   3.653   3.912  1.5406  0.2858 -0.9108
 5430SOL     OW16905   2.239   1.090   4.135 -0.0406 -0.1955 -0.0713
 5430SOL    HW116906   2.222   1.022   4.201  1.8337 -0.1336  0.5543
 5430SOL    HW216907   2.262   1.167   4.186  2.0347 -0.3082 -0.7456
 5431SOL     OW16908   1.400   4.494   5.338  0.0727 -0.6923  0.1516
 5431SOL    HW116909   1.319   4.469   5.383 -1.1982  1.3252 -0.8394
 5431SOL    HW216910   1.375   4.571   5.286  2.5859 -0.1578 -0.3857
 5432SOL     OW16911   4.169   1.815   0.582  0.4938 -0.0178  0.0379
 5432SOL    HW116912   4.086   1.774   0.557  0.6214  1.2353 -2.9365
 5432SOL    HW216913   4.231   1.743   0.588 -0.5035 -0.8288  1.0348
 5433SOL     OW16914   4.616   1.436   4.054 -0.3832 -0.5012 -0.3959
 5433SOL    HW116915   4.664   1.466   3.976  0.9420 -1.3782  0.0603
 5433SOL    HW216916   4.662   1.476   4.127 -0.5090 -1.1460  0.0393
 5434SOL     OW16917   4.874   1.714   0.385  0.3219 -0.1761 -0.5929
 5434SOL    HW116918   4.856   1.685   0.295 -0.2275 -0.3555 -0.4282
 5434SOL    HW216919   4.850   1.806   0.386  1.1849  0.0569 -0.8686
 5435SOL     OW16920   2.245   1.896   1.729  0.4344 -0.1041  0.1001
 5435SOL    HW116921   2.268   1.885   1.821 -0.8983  0.2543  0.5012
 5435SOL    HW216922   2.236   1.807   1.695  0.3730 -0.2382  0.4704
 5436SOL     OW16923   1.965   5.664   5.656 -0.0165 -0.3458  0.1948
 5436SOL    HW116924   1.923   5.661   5.742  0.9200 -0.1308  0.6728
 5436SOL    HW216925   1.987   5.756   5.643 -2.0510 -0.0083 -1.2375
 5437SOL     OW16926   6.833   1.945   1.243 -0.1579  0.2198  0.9631
 5437SOL    HW116927   6.828   2.040   1.257  0.4489  0.6090 -1.0974
 5437SOL    HW216928   6.901   1.916   1.302 -0.2715  1.0824  1.5469
 5438SOL     OW16929   6.541   2.089   1.022 -0.1946  0.9370 -0.5911
 5438SOL    HW116930   6.547   2.107   1.116 -4.2945  2.0217 -0.3435
 5438SOL    HW216931   6.589   2.160   0.981  2.3273  0.0419  0.5486
 5439SOL     OW16932   3.129   4.990   5.621  0.0389 -0.7446  0.2613
 5439SOL    HW116933   3.049   5.041   5.609  0.6261 -0.1257 -1.4603
 5439SOL    HW216934   3.159   5.012   5.709 -1.2649 -0.3938  0.6444
 5440SOL     OW16935   5.961   2.772   1.352  0.3837  0.7054  0.3170
 5440SOL    HW116936   6.019   2.699   1.328  1.2264  1.2891  0.5513
 5440SOL    HW216937   6.010   2.821   1.417 -0.3711  1.2342  0.4948
 5441SOL     OW16938   6.684   6.655   4.495  0.4480 -0.2930  0.1071
 5441SOL    HW116939   6.596   6.628   4.518 -0.1689  2.3792  1.3127
 5441SOL    HW216940   6.709   6.716   4.565  2.6320  0.2148 -1.0328
 5442SOL     OW16941   3.219   7.196   1.029 -0.2533  0.0866  0.7521
 5442SOL    HW116942   3.250   7.112   1.064  0.1549  0.2642  0.8241
 5442SOL    HW216943   3.133   7.176   0.993  0.3716 -0.6724 -0.4128
 5443SOL     OW16944   5.407   3.656   5.074  0.2626 -0.4145  0.2776
 5443SOL    HW116945   5.384   3.572   5.034  1.2535 -0.2363 -0.7163
 5443SOL    HW216946   5.369   3.652   5.162 -0.6655 -1.4416 -0.1417
 5444SOL     OW16947   6.314   1.266   5.234  0.2605 -0.4816  0.4218
 5444SOL    HW116948   6.399   1.308   5.231 -0.0321  0.0837 -0.3564
 5444SOL    HW216949   6.300   1.233   5.145 -1.3245  1.4940 -0.1442
 5445SOL     OW16950   3.763   3.888   4.508 -0.0338 -0.4345  0.1055
 5445SOL    HW116951   3.845   3.838   4.520  0.0312 -0.6528 -1.1468
 5445SOL    HW216952   3.789   3.979   4.519  0.5136 -0.4601 -0.8934
 5446SOL     OW16953   3.757   2.574   7.118  0.4261  0.0471 -0.3168
 5446SOL    HW116954   3.754   2.670   7.114  0.0351  0.0262 -0.5932
 5446SOL    HW216955   3.815   2.548   7.047  1.6679  0.1379  0.6416
 5447SOL     OW16956   5.083   7.190   7.205 -0.9395 -0.4453  0.5861
 5447SOL    HW116957   5.162   7.225   7.248 -1.3751 -0.0614  1.0910
 5447SOL    HW216958   5.018   7.184   7.275 -1.4103 -0.6068  0.1427
 5448SOL     OW16959   3.436   3.017   3.929 -0.1152 -0.0327 -0.0233
 5448SOL    HW116960   3.411   2.978   3.845 -1.3904  0.7631 -0.0387
 5448SOL    HW216961   3.403   2.955   3.994 -2.4210  1.0532 -0.0376
 5449SOL     OW16962   3.655   1.684   4.132 -0.1880  0.1654 -0.1144
 5449SOL    HW116963   3.572   1.732   4.144 -0.3178 -0.2071  0.5192
 5449SOL    HW216964   3.633   1.615   4.069 -0.1989  0.4423 -0.4207
 5450SOL     OW16965   0.203   6.023   6.382 -0.3914 -0.3090  0.0953
 5450SOL    HW116966   0.129   5.966   6.404 -0.4781 -0.7414 -1.2123
 5450SOL    HW216967   0.237   5.987   6.300 -1.5237  2.4785 -1.7717
 5451SOL     OW16968   1.326   2.010   0.983  0.4584  0.0730  0.0871
 5451SOL    HW116969   1.271   2.005   0.905  0.3685  3.2393 -0.1844
 5451SOL    HW216970   1.403   1.957   0.961 -0.1377 -0.1482 -1.6204
 5452SOL     OW16971   4.329   0.414   2.357 -1.0480 -0.2706  0.3909
 5452SOL    HW116972   4.402   0.355   2.371 -1.0987 -0.7905 -1.3623
 5452SOL    HW216973   4.270   0.397   2.431 -1.0894 -2.4416 -0.0863
 5453SOL     OW16974   1.647   0.230   2.983 -0.2515  0.5243 -0.6076
 5453SOL    HW116975   1.663   0.305   2.925  2.1716 -0.4507 -1.3396
 5453SOL    HW216976   1.718   0.233   3.046  1.0529 -2.1074 -1.7847
 5454SOL     OW16977   5.124   6.847   2.761 -0.2494 -0.2001  0.0652
 5454SOL    HW116978   5.134   6.752   2.762  2.3450 -0.0032  0.7295
 5454SOL    HW216979   5.035   6.862   2.729 -0.6568 -2.8277 -0.2305
 5455SOL     OW16980   0.901   1.901   6.899  0.6153  0.7196 -0.1810
 5455SOL    HW116981   0.886   1.812   6.865  1.0781  0.2541  0.7854
 5455SOL    HW216982   0.928   1.951   6.822  1.9781 -0.3805 -0.4603
 5456SOL     OW16983   0.183   1.145   4.450  0.2711 -0.2322  0.0477
 5456SOL    HW116984   0.186   1.109   4.539 -0.1715  0.0863  0.1917
 5456SOL    HW216985   0.198   1.239   4.461 -1.1276  0.0207 -0.0742
 5457SOL     OW16986   2.038   1.057   2.067 -0.5109 -0.4034 -0.3703
 5457SOL    HW116987   2.120   1.007   2.064 -1.6560 -2.4288  0.1581
 5457SOL    HW216988   1.992   1.024   2.144 -1.4936  1.2965 -0.1752
 5458SOL     OW16989   7.150   4.247   6.338  0.5872 -0.2396 -0.2226
 5458SOL    HW116990   7.107   4.331   6.325  1.7044  0.5031  0.7416
 5458SOL    HW216991   7.081   4.190   6.372 -0.0704  0.4082 -0.4540
 5459SOL     OW16992   4.441   1.014   1.697  0.0303  0.1449 -0.0205
 5459SOL    HW116993   4.356   1.053   1.679  0.2290  1.0883  1.0050
 5459SOL    HW216994   4.439   0.930   1.650 -1.3678  0.2495 -0.1947
 5460SOL     OW16995   5.732   3.682   1.212  0.1485 -0.1410 -0.4625
 5460SOL    HW116996   5.674   3.687   1.136 -0.4954 -0.6383 -0.0124
 5460SOL    HW216997   5.808   3.634   1.181  0.1728  0.2067 -0.9607
 5461SOL     OW16998   4.060   1.600   4.238  0.1563  0.1596  0.7164
 5461SOL    HW116999   4.061   1.622   4.145  0.6178 -0.0172  0.6730
 5461SOL    HW217000   4.132   1.537   4.248  0.8762  1.0672  1.4051
 5462SOL     OW17001   7.002   2.339   1.114 -0.4437  0.4814 -0.6559
 5462SOL    HW117002   7.096   2.356   1.118 -0.3228 -0.3662  0.6390
 5462SOL    HW217003   6.995   2.254   1.072 -0.5513  0.0781  0.1528
 5463SOL     OW17004   6.242   0.255   3.440  0.4571 -0.2066  0.5871
 5463SOL    HW117005   6.203   0.313   3.505 -0.0158  0.0955  0.0471
 5463SOL    HW217006   6.251   0.309   3.362 -1.0760 -1.1372 -0.2864
 5464SOL     OW17007   1.746   2.327   0.551  0.0152  0.2825 -0.3008
 5464SOL    HW117008   1.824   2.366   0.513  0.5939 -0.0542  0.5300
 5464SOL    HW217009   1.703   2.283   0.478  0.6268  0.4166 -0.7470
 5465SOL     OW17010   3.037   2.990   5.364  0.6736 -0.1674  0.0333
 5465SOL    HW117011   3.109   3.052   5.355  0.8934 -0.4252  0.0165
 5465SOL    HW217012   2.959   3.045   5.369  0.9706  0.1808  1.2219
 5466SOL     OW17013   2.320   2.278   1.178 -0.2762  0.2573 -0.1209
 5466SOL    HW117014   2.281   2.224   1.109 -0.1249  0.6667 -0.5342
 5466SOL    HW217015   2.299   2.233   1.259 -1.1493  0.1982 -0.3763
 5467SOL     OW17016   2.712   0.571   0.645  0.0428 -0.2045  0.1688
 5467SOL    HW117017   2.765   0.646   0.618  0.9957 -0.9855 -0.1875
 5467SOL    HW217018   2.659   0.550   0.568 -1.8373  1.4073  0.9410
 5468SOL     OW17019   1.211   6.266   4.096  0.1451  0.0944  0.5650
 5468SOL    HW117020   1.280   6.212   4.135  0.7030  1.3147  1.3285
 5468SOL    HW217021   1.132   6.213   4.103  0.9341 -1.2208 -0.0766
 5469SOL     OW17022   3.821   5.020   5.061  0.5106  0.0941 -0.0307
 5469SOL    HW117023   3.766   5.041   5.137 -2.0113  1.0444 -1.9503
 5469SOL    HW217024   3.851   5.105   5.029 -0.2264 -0.0881 -1.2695
 5470SOL     OW17025   2.228   5.461   2.728  0.1109 -0.1905  0.2722
 5470SOL    HW117026   2.320   5.463   2.702  0.0111 -0.2683 -0.0910
 5470SOL    HW217027   2.229   5.475   2.822  0.4534  0.5661  0.1650
 5471SOL     OW17028   1.137   2.763   0.971 -0.1116  0.8475 -0.4368
 5471SOL    HW117029   1.119   2.701   0.900 -0.3621 -0.3113  0.6217
 5471SOL    HW217030   1.091   2.843   0.944 -0.6908  0.2408 -1.3031
 5472SOL     OW17031   0.005   5.765   2.656  0.0931 -0.0553  0.2479
 5472SOL    HW117032  -0.021   5.845   2.609  1.4033 -0.3481 -1.0526
 5472SOL    HW217033  -0.075   5.713   2.660 -0.6474  1.0646  0.5924
 5473SOL     OW17034   5.895   5.078   4.226 -0.0624  0.0688  0.2838
 5473SOL    HW117035   5.909   5.080   4.132  2.1706 -1.3352  0.5044
 5473SOL    HW217036   5.837   5.004   4.241 -1.7007  1.2329 -0.0563
 5474SOL     OW17037   0.771   5.302   0.026  0.2158  0.1509  0.0844
 5474SOL    HW117038   0.704   5.324   0.091  1.0984 -0.6439  1.2908
 5474SOL    HW217039   0.723   5.256  -0.043 -0.7227  0.9471  0.1789
 5475SOL     OW17040   6.696   4.507   3.364  1.1251  0.1054  0.5840
 5475SOL    HW117041   6.738   4.576   3.414  0.4034  1.0051  0.0024
 5475SOL    HW217042   6.694   4.540   3.274  1.8936 -1.2213  0.0420
 5476SOL     OW17043   3.807   1.441   1.510  0.4356  0.2101 -0.5712
 5476SOL    HW117044   3.851   1.456   1.594  0.7919  0.5325 -0.8107
 5476SOL    HW217045   3.773   1.527   1.485 -3.2825 -0.5467  1.1902
 5477SOL     OW17046   0.130   5.134   6.473 -0.0225  0.1165  0.1123
 5477SOL    HW117047   0.057   5.126   6.411 -0.2443  1.2514  0.2090
 5477SOL    HW217048   0.110   5.070   6.541 -0.4677 -0.2064 -0.3115
 5478SOL     OW17049   5.231   3.818   3.590  0.5082 -0.3322  0.6725
 5478SOL    HW117050   5.165   3.794   3.655 -0.2828  1.0225  0.3889
 5478SOL    HW217051   5.187   3.878   3.531  0.9846 -2.0774 -1.6175
 5479SOL     OW17052   4.098   6.223   1.572 -0.3542 -0.0171  0.0590
 5479SOL    HW117053   4.018   6.260   1.610  0.2089  0.5338  0.7193
 5479SOL    HW217054   4.067   6.148   1.520 -1.3885  0.7652 -0.4751
 5480SOL     OW17055   1.628   0.366   2.073 -0.3325  0.1695  0.2906
 5480SOL    HW117056   1.598   0.408   1.992  2.0922 -1.2059 -1.4624
 5480SOL    HW217057   1.558   0.305   2.096 -0.4371 -0.4930 -1.6531
 5481SOL     OW17058   0.486   3.724   6.005  0.0673  0.8327  0.1742
 5481SOL    HW117059   0.392   3.705   6.000  0.2886 -0.6931  1.1920
 5481SOL    HW217060   0.506   3.769   5.923 -1.1080 -0.9232 -1.1452
 5482SOL     OW17061   0.732   4.385   0.128  0.1871 -0.1985  0.2048
 5482SOL    HW117062   0.763   4.362   0.216  0.8316 -1.9564 -0.4390
 5482SOL    HW217063   0.794   4.342   0.069  0.9739  2.6138 -1.1686
 5483SOL     OW17064   0.835   6.961   2.985 -0.2003 -0.2967  0.2481
 5483SOL    HW117065   0.858   6.984   2.894 -1.0300  0.5741  0.2423
 5483SOL    HW217066   0.831   6.865   2.985 -0.2267 -0.3055 -0.6409
 5484SOL     OW17067   1.047   2.213   1.508 -0.0896 -0.1079 -0.4628
 5484SOL    HW117068   1.023   2.130   1.549  0.7540  0.0266  0.3538
 5484SOL    HW217069   1.133   2.196   1.469  0.2749  0.4735  0.0610
 5485SOL     OW17070   4.033   4.414   2.884  0.5650 -0.2640 -0.4205
 5485SOL    HW117071   4.034   4.508   2.906 -1.0760  0.0008 -1.3253
 5485SOL    HW217072   4.028   4.370   2.969  3.5468  0.3177  0.1661
 5486SOL     OW17073   4.240   3.797   6.779  0.7125 -0.1956  0.3440
 5486SOL    HW117074   4.213   3.712   6.744 -3.1545  0.8012  0.4514
 5486SOL    HW217075   4.204   3.860   6.718  2.0552  1.4539  1.1732
 5487SOL     OW17076   4.237   2.189   3.284  0.4739  0.0594 -0.3345
 5487SOL    HW117077   4.221   2.222   3.196  1.0600 -0.4936 -0.6525
 5487SOL    HW217078   4.323   2.149   3.280  0.8609  0.7381  0.7060
 5488SOL     OW17079   5.659   1.505   1.852  0.3607  0.7531  0.2428
 5488SOL    HW117080   5.630   1.595   1.840  0.1444  1.0668  2.5872
 5488SOL    HW217081   5.740   1.512   1.902  0.3751 -0.3448  0.4099
 5489SOL     OW17082   0.508   1.825   5.960 -0.5650  0.0966 -0.0360
 5489SOL    HW117083   0.471   1.914   5.958 -1.7876 -0.3684  0.5283
 5489SOL    HW217084   0.453   1.776   5.898  1.1169  0.0664 -1.5831
 5490SOL     OW17085   0.782   1.536   4.066 -0.2250  0.8599 -0.4400
 5490SOL    HW117086   0.826   1.600   4.122  0.7086 -0.6669  0.6461
 5490SOL    HW217087   0.846   1.465   4.057 -2.2464 -1.2661  0.8394
 5491SOL     OW17088   6.975   2.258   6.548  1.2565 -0.1978  0.2312
 5491SOL    HW117089   6.912   2.327   6.568  0.5633 -1.0528  1.1414
 5491SOL    HW217090   6.920   2.184   6.521  1.9702 -0.4456 -0.5650
 5492SOL     OW17091   5.923   4.869   5.236 -0.7030  0.5243 -0.0209
 5492SOL    HW117092   5.864   4.936   5.269 -0.5223  0.6516  0.0448
 5492SOL    HW217093   5.873   4.787   5.243 -0.7618  0.5889  0.3202
 5493SOL     OW17094   1.775   3.982   4.320 -0.2951  0.5989 -0.1894
 5493SOL    HW117095   1.864   3.989   4.287 -0.3465 -0.1396 -0.5107
 5493SOL    HW217096   1.734   4.065   4.298 -0.6660 -0.2258 -3.0226
 5494SOL     OW17097   6.249   6.162   6.873  0.4306  0.0039 -1.0679
 5494SOL    HW117098   6.243   6.190   6.964  1.3187 -1.3055 -0.5925
 5494SOL    HW217099   6.342   6.171   6.851 -0.0075  1.9003 -2.3955
 5495SOL     OW17100   7.199   0.152   5.622  0.3609 -0.3429 -0.7589
 5495SOL    HW117101   7.134   0.218   5.649 -0.5907 -0.9741 -1.4464
 5495SOL    HW217102   7.235   0.119   5.704  0.1657  0.3688 -0.3775
 5496SOL     OW17103   2.896   6.230   0.222  0.3984 -0.5987  0.0852
 5496SOL    HW117104   2.884   6.220   0.127  2.3176 -1.6891 -0.0914
 5496SOL    HW217105   2.856   6.152   0.260 -1.1150  0.2351  0.2865
 5497SOL     OW17106   4.004   2.496   6.251 -0.1324 -0.0963 -0.3631
 5497SOL    HW117107   4.051   2.547   6.184 -0.8585 -0.7297 -1.3853
 5497SOL    HW217108   4.063   2.496   6.326  1.3822 -0.5980 -1.4927
 5498SOL     OW17109   2.278   1.550   2.783 -0.1291 -0.5979 -0.4914
 5498SOL    HW117110   2.281   1.516   2.873 -0.2412  0.6818  0.0280
 5498SOL    HW217111   2.220   1.490   2.737  0.8287 -1.9508 -0.0289
 5499SOL     OW17112   4.266   1.266   2.534 -0.0176  1.0418 -0.4116
 5499SOL    HW117113   4.287   1.181   2.496  1.1087  1.1947 -0.1544
 5499SOL    HW217114   4.345   1.318   2.521 -0.5842  1.9513 -0.2809
 5500SOL     OW17115   5.806   1.587   2.520 -0.3656 -0.4011 -0.4741
 5500SOL    HW117116   5.710   1.586   2.515 -0.3979  1.1627 -0.9509
 5500SOL    HW217117   5.829   1.508   2.569 -1.9624 -0.2743  0.5597
 5501SOL     OW17118   6.425   2.941   6.655 -0.1911  0.1222  0.1498
 5501SOL    HW117119   6.467   2.948   6.569 -1.2457  1.2369 -0.2971
 5501SOL    HW217120   6.477   2.875   6.701 -0.2779 -1.3588 -1.7393
 5502SOL     OW17121   7.032   6.543   4.550 -0.5477 -0.2022 -0.0159
 5502SOL    HW117122   7.065   6.525   4.639  0.8854  1.2265 -0.2142
 5502SOL    HW217123   6.938   6.556   4.562 -0.4501 -0.4144  1.2206
 5503SOL     OW17124   5.938   1.651   1.452 -0.5448 -0.1143 -0.0291
 5503SOL    HW117125   6.006   1.669   1.387 -0.3689 -1.7194 -0.3342
 5503SOL    HW217126   5.943   1.724   1.513 -1.0595  1.7074 -2.0748
 5504SOL     OW17127   4.686   4.048   5.579 -0.3316  0.2167  0.4563
 5504SOL    HW117128   4.686   4.078   5.670 -0.5345 -0.2094  0.5981
 5504SOL    HW217129   4.726   3.961   5.583  0.3458  0.4974  0.0340
 5505SOL     OW17130   0.564   5.561   3.325  0.2690  0.0267 -0.0969
 5505SOL    HW117131   0.492   5.596   3.272 -0.4289  0.1011  0.8657
 5505SOL    HW217132   0.539   5.470   3.342  0.1846  0.1652  0.5704
 5506SOL     OW17133   1.489   2.822   3.139  0.0019  0.0684 -0.3537
 5506SOL    HW117134   1.574   2.781   3.126 -0.3003 -1.1471  1.3069
 5506SOL    HW217135   1.505   2.892   3.201 -0.4708 -1.3365  1.4333
 5507SOL     OW17136   6.001   2.313   4.502 -0.2799 -0.2109  0.1044
 5507SOL    HW117137   6.039   2.382   4.557 -0.3062  0.6405 -0.9242
 5507SOL    HW217138   5.989   2.239   4.562  1.5982 -0.0104  0.7732
 5508SOL     OW17139   3.339   5.549   3.670 -0.3907 -0.0669  0.3549
 5508SOL    HW117140   3.396   5.624   3.686 -0.6593 -0.0950  1.6067
 5508SOL    HW217141   3.350   5.494   3.748 -0.2860 -1.2753 -0.4848
 5509SOL     OW17142   2.610   4.544   0.035  0.0203  0.4145 -0.1415
 5509SOL    HW117143   2.564   4.464   0.062 -0.6424  1.0961  0.8106
 5509SOL    HW217144   2.540   4.601   0.002  0.6121  0.2354 -1.7687
 5510SOL     OW17145   1.773   4.683   3.095 -0.0881 -0.3311  0.2105
 5510SOL    HW117146   1.735   4.726   3.018  1.5620 -0.3425 -0.6499
 5510SOL    HW217147   1.846   4.740   3.120 -0.3435 -0.5589  1.5333
 5511SOL     OW17148   4.716   1.633   1.744 -0.5368 -0.4329  0.0045
 5511SOL    HW117149   4.651   1.624   1.673 -0.9472  0.2929  0.2775
 5511SOL    HW217150   4.673   1.595   1.820 -0.8441  0.4508  0.2941
 5512SOL     OW17151   2.948   1.797   0.561  0.0202 -0.5159 -0.4282
 5512SOL    HW117152   3.006   1.862   0.600 -0.5419  0.0066 -0.4401
 5512SOL    HW217153   2.903   1.757   0.636  0.0691 -0.6029 -0.4453
 5513SOL     OW17154   0.715   1.052   2.329  0.1023  0.1245  0.3703
 5513SOL    HW117155   0.780   1.042   2.260  0.6989  1.4619  0.7060
 5513SOL    HW217156   0.655   0.979   2.316  0.0610  0.4568 -1.7074
 5514SOL     OW17157   2.094   1.844   1.051  0.4796 -0.0173  0.4590
 5514SOL    HW117158   2.186   1.860   1.029  1.2447 -0.8132  2.7170
 5514SOL    HW217159   2.073   1.910   1.117 -1.0413  1.0299 -1.0165
 5515SOL     OW17160   3.011   0.121   3.034  0.2436 -0.2115 -0.6056
 5515SOL    HW117161   2.981   0.030   3.027 -0.6544 -0.0138  0.4295
 5515SOL    HW217162   3.053   0.126   3.120 -1.5889  0.8374  0.2905
 5516SOL     OW17163   5.836   3.330   0.611 -0.0640  0.0857 -0.1015
 5516SOL    HW117164   5.864   3.242   0.635  0.4747  0.5086  0.8725
 5516SOL    HW217165   5.742   3.322   0.597 -0.0107 -0.6545 -0.1054
 5517SOL     OW17166   3.183   5.810   1.253 -0.1569 -0.8166 -0.6017
 5517SOL    HW117167   3.168   5.778   1.164 -4.1590  0.5871 -0.6308
 5517SOL    HW217168   3.167   5.904   1.248  3.9896  0.1893  0.8823
 5518SOL     OW17169   1.038   6.535   4.183  0.2251 -0.0380 -0.5621
 5518SOL    HW117170   1.072   6.612   4.229 -1.1351 -0.7132  1.7288
 5518SOL    HW217171   0.972   6.570   4.124 -1.0650  0.5387  1.1440
 5519SOL     OW17172   6.168   5.579   0.427 -0.0476  0.2209  0.3921
 5519SOL    HW117173   6.079   5.552   0.451 -0.9971  1.2700 -1.6826
 5519SOL    HW217174   6.155   5.653   0.368  2.1840 -0.0913 -0.5674
 5520SOL     OW17175   1.147   7.256   2.431 -0.3612 -0.2251  0.6885
 5520SOL    HW117176   1.077   7.194   2.408 -0.5240 -0.1988  1.0959
 5520SOL    HW217177   1.103   7.341   2.435 -0.2847 -0.1907  0.8259
 5521SOL     OW17178   4.069   5.382   3.200 -0.3552  0.3054  0.3369
 5521SOL    HW117179   4.082   5.471   3.233 -1.1330  0.8569 -0.7931
 5521SOL    HW217180   3.984   5.356   3.234 -0.1837  0.0378  0.5623
 5522SOL     OW17181   3.749   6.252   2.179  0.1496 -0.2225  0.0446
 5522SOL    HW117182   3.700   6.319   2.132  1.0913  0.1059 -0.4845
 5522SOL    HW217183   3.742   6.278   2.271  0.0857  0.3116 -0.1086
 5523SOL     OW17184   4.607   7.236   1.935  0.4361  0.1853  0.0159
 5523SOL    HW117185   4.573   7.198   1.854  0.9599  1.2844 -0.7458
 5523SOL    HW217186   4.689   7.191   1.951  1.3044  1.2753 -1.1550
 5524SOL     OW17187   5.460   3.319   1.321  0.5001  0.0137  0.2097
 5524SOL    HW117188   5.468   3.367   1.403 -0.0178 -0.0845  0.3205
 5524SOL    HW217189   5.519   3.244   1.332  1.0171  0.4161  0.1858
 5525SOL     OW17190   2.420   0.716   6.260  0.3308 -0.3294 -0.5447
 5525SOL    HW117191   2.411   0.795   6.206 -1.3532 -0.7011 -0.8919
 5525SOL    HW217192   2.342   0.664   6.239  0.7027 -1.4544  0.6994
 5526SOL     OW17193   3.023   2.707   0.869 -0.3790  0.0879  0.0154
 5526SOL    HW117194   2.991   2.749   0.948 -0.9807 -0.4649  0.0785
 5526SOL    HW217195   2.944   2.676   0.824 -0.0003 -0.3111 -0.3937
 5527SOL     OW17196   2.075   3.061   5.328 -0.5611  0.0201 -0.3076
 5527SOL    HW117197   2.001   3.083   5.270 -0.7062  0.4893  0.0488
 5527SOL    HW217198   2.152   3.089   5.280 -0.6953  0.6031 -0.1910
 5528SOL     OW17199   4.157   0.818   0.521  0.3610  0.6841  0.2856
 5528SOL    HW117200   4.076   0.767   0.513 -0.1733  1.0081  2.6890
 5528SOL    HW217201   4.130   0.901   0.561  1.8606  0.7387  1.3080
 5529SOL     OW17202   2.314   1.860   1.975  0.4002 -0.1625 -0.5726
 5529SOL    HW117203   2.382   1.849   2.041  0.6528  1.7437 -0.4715
 5529SOL    HW217204   2.232   1.855   2.025  0.4903 -1.1333 -0.5003
 5530SOL     OW17205   5.747   4.718   5.611  0.6521 -0.1824 -0.0191
 5530SOL    HW117206   5.683   4.787   5.600  0.0387 -0.4858  1.4624
 5530SOL    HW217207   5.801   4.746   5.685  1.5008 -0.4875 -0.4981
 5531SOL     OW17208   2.066   3.761   3.753 -0.1000  0.0328  0.4143
 5531SOL    HW117209   2.063   3.673   3.791  1.2212 -0.1646  0.0856
 5531SOL    HW217210   2.113   3.751   3.670  1.0450  1.2245  0.8868
 5532SOL     OW17211   6.012   5.295   4.654 -0.0033  0.1118  0.2917
 5532SOL    HW117212   5.991   5.244   4.732  0.4898  0.3720  0.5979
 5532SOL    HW217213   5.964   5.252   4.583  0.0597 -0.5093  0.6265
 5533SOL     OW17214   0.230   6.413   6.988 -0.4094  0.4448 -0.1948
 5533SOL    HW117215   0.190   6.491   7.028  2.2547  1.1753  1.2304
 5533SOL    HW217216   0.172   6.341   7.015  0.2259  1.1279  3.6897
 5534SOL     OW17217   1.668   5.541   4.541  0.0266 -0.5889 -0.1246
 5534SOL    HW117218   1.585   5.553   4.588 -0.1580  2.2172 -0.9905
 5534SOL    HW217219   1.648   5.476   4.474 -0.4811 -2.4753  1.7396
 5535SOL     OW17220   2.996   1.089   4.026  0.0681  0.3397 -0.4989
 5535SOL    HW117221   3.064   1.154   4.014  0.3152 -0.1437 -1.9475
 5535SOL    HW217222   3.014   1.023   3.959 -1.3780 -0.1698 -0.4202
 5536SOL     OW17223   4.145   5.730   5.294  0.1247 -0.5703  1.1709
 5536SOL    HW117224   4.138   5.825   5.297  1.8356 -0.3615  0.1163
 5536SOL    HW217225   4.239   5.713   5.292 -0.1428 -2.3159  1.6976
 5537SOL     OW17226   5.448   1.023   1.899 -0.0121  0.2689  0.6246
 5537SOL    HW117227   5.504   1.091   1.862  3.0711 -2.1081  0.5348
 5537SOL    HW217228   5.367   1.028   1.848  0.4797  3.1205 -0.0443
 5538SOL     OW17229   3.927   1.961   2.082  0.0948  0.4258  0.2262
 5538SOL    HW117230   4.012   1.943   2.123 -0.6432 -0.6558  1.3666
 5538SOL    HW217231   3.864   1.954   2.154 -1.3097 -2.1127 -1.1197
 5539SOL     OW17232   3.808   1.437   0.165 -0.3097  0.5012 -0.2406
 5539SOL    HW117233   3.889   1.390   0.188  0.3954  1.3754 -0.8544
 5539SOL    HW217234   3.751   1.370   0.129 -0.5282 -0.4630  1.7248
 5540SOL     OW17235   6.394   4.838   6.429  0.8050 -0.1337  0.0037
 5540SOL    HW117236   6.328   4.787   6.476  0.3040  0.1210 -0.4094
 5540SOL    HW217237   6.472   4.833   6.483  0.5399 -0.7197  0.3351
 5541SOL     OW17238   5.596   5.313   4.227  0.3061  0.1783 -0.7037
 5541SOL    HW117239   5.586   5.272   4.141 -1.9552  0.4907 -0.6437
 5541SOL    HW217240   5.639   5.397   4.208 -1.5947  0.9732 -1.8049
 5542SOL     OW17241   1.503   3.888   6.626 -0.2374 -0.7089 -0.1395
 5542SOL    HW117242   1.521   3.965   6.680  2.1309 -0.4928 -1.1323
 5542SOL    HW217243   1.432   3.915   6.568  0.7725  0.8724 -0.7003
 5543SOL     OW17244   7.066   6.489   1.966 -0.3907 -0.0563  0.1147
 5543SOL    HW117245   7.008   6.565   1.975 -0.6919 -0.1096 -1.1923
 5543SOL    HW217246   7.018   6.416   2.004  0.9620  0.7967  3.9740
 5544SOL     OW17247   5.968   5.511   6.218 -0.0719  0.2304  0.2148
 5544SOL    HW117248   6.059   5.509   6.187  0.1305  1.5617  0.6547
 5544SOL    HW217249   5.975   5.527   6.312 -0.7631  2.9062 -0.1135
 5545SOL     OW17250   1.140   3.238   2.976 -0.2366  0.0870 -0.0910
 5545SOL    HW117251   1.228   3.216   3.006  0.7201  1.9674 -1.3527
 5545SOL    HW217252   1.087   3.162   3.001  1.8002 -1.2759  0.3534
 5546SOL     OW17253   3.511   3.597   0.866 -0.2253 -0.6912  0.4116
 5546SOL    HW117254   3.488   3.504   0.861 -1.7252 -0.3031 -1.0838
 5546SOL    HW217255   3.604   3.601   0.846 -0.3829 -1.7910 -0.6053
 5547SOL     OW17256   2.464   6.084   2.563 -0.1352 -0.8121  0.1608
 5547SOL    HW117257   2.472   6.168   2.518  0.4080  0.5477  2.6450
 5547SOL    HW217258   2.490   6.019   2.497  0.9934  1.0838 -1.3603
 5548SOL     OW17259   5.105   0.970   1.954 -0.0737  0.2533  0.0198
 5548SOL    HW117260   5.141   0.883   1.972 -1.0086 -0.4116 -1.1225
 5548SOL    HW217261   5.147   0.997   1.872  0.7000  1.1872  0.7054
 5549SOL     OW17262   2.845   1.876   4.785  0.3711 -0.2752 -0.0718
 5549SOL    HW117263   2.829   1.810   4.852 -2.5497 -0.4939 -0.8567
 5549SOL    HW217264   2.841   1.828   4.702  0.4586  0.5483 -0.5652
 5550SOL     OW17265   0.100   0.468   2.113 -0.6069 -0.3210  0.4760
 5550SOL    HW117266   0.026   0.442   2.058 -2.3927  2.6632  1.2665
 5550SOL    HW217267   0.139   0.543   2.068  0.9129 -0.8040  0.9355
 5551SOL     OW17268   2.675   4.506   6.606 -0.0476 -0.4351 -0.0432
 5551SOL    HW117269   2.650   4.505   6.513 -2.8726  0.1671  0.6256
 5551SOL    HW217270   2.664   4.416   6.635 -1.4731 -0.1945  0.2195
 5552SOL     OW17271   3.869   0.563   5.082 -0.1606 -0.3771 -0.0998
 5552SOL    HW117272   3.936   0.507   5.043 -1.4875 -1.4230 -0.9506
 5552SOL    HW217273   3.815   0.591   5.009  0.2275  1.7553  0.3598
 5553SOL     OW17274   3.524   6.367   2.095  0.0052  0.1593  0.1061
 5553SOL    HW117275   3.435   6.335   2.113  0.3471 -0.9879 -0.1316
 5553SOL    HW217276   3.529   6.451   2.141 -1.5129  0.7172 -0.6779
 5554SOL     OW17277   0.265   3.792   6.765  0.3541  0.4925  0.1126
 5554SOL    HW117278   0.291   3.731   6.834  0.3561 -1.6089 -1.6214
 5554SOL    HW217279   0.174   3.815   6.787  0.4116  0.0140  0.9078
 5555SOL     OW17280   5.038   6.917   1.597  0.4885  0.6570  0.0702
 5555SOL    HW117281   5.063   6.895   1.686 -0.9433  0.1960  0.3941
 5555SOL    HW217282   4.948   6.948   1.605  0.7556  1.7844 -1.0603
 5556SOL     OW17283   2.417   0.430   4.484 -0.2695  0.2430 -0.5866
 5556SOL    HW117284   2.432   0.419   4.390  2.6054  1.2853 -0.3510
 5556SOL    HW217285   2.394   0.523   4.494 -1.2128 -0.0074 -0.2782
 5557SOL     OW17286   6.011   5.644   0.011 -0.7896 -0.4189  0.1188
 5557SOL    HW117287   5.933   5.650  -0.044 -0.0864  0.1165 -0.8496
 5557SOL    HW217288   6.081   5.679  -0.043 -0.0646  0.0932  1.3476
 5558SOL     OW17289   3.010   4.324   3.778 -0.5404 -0.6688  0.5820
 5558SOL    HW117290   2.957   4.397   3.811 -0.0180 -0.1207  0.2469
 5558SOL    HW217291   3.025   4.269   3.855  0.5221  0.5044  1.2575
 5559SOL     OW17292   3.975   5.234   6.898  0.1986 -0.1446  0.1077
 5559SOL    HW117293   3.958   5.159   6.955  0.5515  0.3851  0.9342
 5559SOL    HW217294   4.038   5.202   6.834  0.1232 -0.6417  0.2810
 5560SOL     OW17295   0.759   6.660   4.513 -0.2753 -0.5219  0.1458
 5560SOL    HW117296   0.817   6.585   4.528  2.6956  0.9636 -2.6378
 5560SOL    HW217297   0.709   6.636   4.435  1.4574  0.6637 -1.4058
 5561SOL     OW17298   0.728   0.124   1.857 -0.3564  0.5183 -0.2753
 5561SOL    HW117299   0.733   0.029   1.854  1.6476  0.5517  0.1678
 5561SOL    HW217300   0.811   0.151   1.897  0.0572  2.5317 -2.2640
 5562SOL     OW17301   3.352   0.382   2.696  0.0109 -0.5841 -0.8562
 5562SOL    HW117302   3.293   0.352   2.627 -0.6048 -0.1770 -0.5200
 5562SOL    HW217303   3.337   0.321   2.769 -0.9116  0.2255 -0.3345
 5563SOL     OW17304   2.202   0.490   0.924  0.8698 -0.0168 -0.1645
 5563SOL    HW117305   2.140   0.432   0.968  0.2508  1.7954  1.4607
 5563SOL    HW217306   2.287   0.463   0.957  0.7244 -0.7447 -0.3449
 5564SOL     OW17307   6.283   6.684   1.034  0.0523 -0.0518  0.6003
 5564SOL    HW117308   6.352   6.683   1.100 -0.8421  0.6207  1.5623
 5564SOL    HW217309   6.322   6.729   0.959  1.1612 -1.0638  0.5479
 5565SOL     OW17310   0.179   7.221   0.403  0.0422 -0.2485 -0.6690
 5565SOL    HW117311   0.207   7.224   0.312  0.4337  0.9696 -0.5336
 5565SOL    HW217312   0.123   7.298   0.413  2.3239  1.3244  0.8204
 5566SOL     OW17313   5.725   0.677   0.046  0.1559  0.1050 -0.2361
 5566SOL    HW117314   5.790   0.680   0.116  0.9511 -1.1187 -0.8825
 5566SOL    HW217315   5.641   0.685   0.091  0.6674 -0.3773  0.8315
 5567SOL     OW17316   1.898   5.429   1.543 -0.5313  0.0585  0.3532
 5567SOL    HW117317   1.913   5.340   1.512 -1.2291  0.2690 -0.6355
 5567SOL    HW217318   1.982   5.472   1.533  0.0062 -0.6729  1.5198
 5568SOL     OW17319   2.790   2.684   3.463 -0.2465 -0.1030 -0.4916
 5568SOL    HW117320   2.816   2.606   3.511  4.8276  1.7409  0.4236
 5568SOL    HW217321   2.753   2.742   3.529  0.8503  0.1062 -0.0411
 5569SOL     OW17322   5.850   5.920   3.496 -0.5750 -0.8238 -0.5305
 5569SOL    HW117323   5.813   5.929   3.408 -0.6747 -1.4823 -0.5632
 5569SOL    HW217324   5.863   5.826   3.507  0.4440 -0.6707 -0.2545
 5570SOL     OW17325   5.429   1.701   1.532  0.3514 -0.0241  0.6348
 5570SOL    HW117326   5.521   1.677   1.538 -0.0629 -1.8786  0.3270
 5570SOL    HW217327   5.419   1.737   1.443  0.5208 -1.1125  0.1651
 5571SOL     OW17328   1.860   4.344   2.591 -0.2711  0.1900  0.2120
 5571SOL    HW117329   1.868   4.259   2.633 -0.9892 -0.5338 -1.0316
 5571SOL    HW217330   1.921   4.340   2.517 -0.0313  0.9042  0.3604
 5572SOL     OW17331   4.172   2.866   6.340 -0.1234  0.3087  0.5476
 5572SOL    HW117332   4.087   2.903   6.361 -0.9453 -1.8403  1.2433
 5572SOL    HW217333   4.228   2.889   6.414 -0.4015  0.7537  0.6202
 5573SOL     OW17334   6.741   2.516   4.832  0.2916  0.0341 -0.5232
 5573SOL    HW117335   6.758   2.595   4.780  2.1662  1.1545  1.6032
 5573SOL    HW217336   6.797   2.449   4.792  0.5112  0.4483 -0.9222
 5574SOL     OW17337   3.843   1.642   0.902 -0.1253 -0.0297 -0.3376
 5574SOL    HW117338   3.748   1.629   0.901 -0.1989  0.4114  0.3362
 5574SOL    HW217339   3.874   1.603   0.820 -1.1557  1.8185 -1.6707
 5575SOL     OW17340   0.457   2.137   6.663  0.9150  0.8088  0.1123
 5575SOL    HW117341   0.549   2.110   6.673  0.7793 -0.0640 -0.8965
 5575SOL    HW217342   0.457   2.193   6.585  0.4073 -0.1192 -0.5615
 5576SOL     OW17343   2.822   0.361   1.006 -0.7271 -0.1310  0.2875
 5576SOL    HW117344   2.821   0.332   0.914 -0.6521 -2.5287  0.9665
 5576SOL    HW217345   2.830   0.456   1.001  0.5794 -0.2825 -2.1777
 5577SOL     OW17346   7.160   7.163   3.693  0.1194 -0.1627  0.2695
 5577SOL    HW117347   7.247   7.142   3.658  0.3034  3.1471 -1.8175
 5577SOL    HW217348   7.176   7.236   3.753 -1.2055  1.0916 -0.8171
 5578SOL     OW17349   3.967   3.437   0.167 -0.0452  0.1156 -0.1827
 5578SOL    HW117350   3.955   3.530   0.191  0.1152  0.3617 -1.0332
 5578SOL    HW217351   3.912   3.390   0.229  0.8224  0.6882  1.0669
 5579SOL     OW17352   6.346   3.584   4.395 -0.3482  0.1080  0.7238
 5579SOL    HW117353   6.312   3.674   4.393  0.0570  0.2617 -0.9926
 5579SOL    HW217354   6.430   3.589   4.349 -0.9516 -1.3680 -0.6673
 5580SOL     OW17355   1.585   1.819   3.934  0.0712 -0.3326 -1.0582
 5580SOL    HW117356   1.604   1.725   3.924  1.3578 -0.3313  0.9470
 5580SOL    HW217357   1.669   1.858   3.956 -0.3910  1.3792 -2.1553
 5581SOL     OW17358   6.704   5.600   6.617 -0.1274 -0.5135  0.3287
 5581SOL    HW117359   6.759   5.557   6.682  1.4173  0.8405  0.0149
 5581SOL    HW217360   6.767   5.636   6.553 -1.4068  0.6888 -0.3147
 5582SOL     OW17361   5.886   3.908   4.516  0.4355  0.5490  0.1341
 5582SOL    HW117362   5.859   3.999   4.500  1.8850  1.1889  1.0477
 5582SOL    HW217363   5.929   3.911   4.601  1.1332 -0.8600 -0.1472
 5583SOL     OW17364   1.882   4.500   2.820  0.7451 -0.0102 -0.0814
 5583SOL    HW117365   1.856   4.455   2.740  1.8592 -1.5013  0.3588
 5583SOL    HW217366   1.837   4.584   2.815  0.3770 -0.2678 -2.0151
 5584SOL     OW17367   6.890   1.623   0.049 -0.1663  0.1165  0.1737
 5584SOL    HW117368   6.810   1.676   0.040 -2.4251 -3.2222 -2.2478
 5584SOL    HW217369   6.885   1.587   0.138 -1.3489  0.0970  0.1235
 5585SOL     OW17370   1.232   1.356   2.013 -0.2143 -0.0776 -0.2139
 5585SOL    HW117371   1.324   1.362   2.039 -0.4201  1.2699  0.2725
 5585SOL    HW217372   1.217   1.435   1.962 -1.1602 -0.1813 -0.1014
 5586SOL     OW17373   6.904   4.107   5.948  0.2271  0.5007  0.3682
 5586SOL    HW117374   6.891   4.038   5.882 -0.8707  1.7734 -0.7953
 5586SOL    HW217375   6.863   4.072   6.027 -1.3062  0.2511 -0.5076
 5587SOL     OW17376   7.201   1.137   1.334  0.3718  0.5957  0.4874
 5587SOL    HW117377   7.134   1.164   1.396  0.8304  0.1149  1.2137
 5587SOL    HW217378   7.186   1.043   1.322 -2.3586  1.2904 -3.3865
 5588SOL     OW17379   7.101   3.405   3.711 -0.2780 -0.8982  0.1081
 5588SOL    HW117380   7.178   3.349   3.719  0.5146  0.1055 -0.2813
 5588SOL    HW217381   7.136   3.489   3.682 -1.4409 -0.1960  0.6939
 5589SOL     OW17382   0.870   0.876   1.660 -0.1385 -0.7350  0.3799
 5589SOL    HW117383   0.885   0.968   1.637 -1.7733 -0.6650 -0.5190
 5589SOL    HW217384   0.916   0.865   1.744 -0.4445  1.0615  0.8317
 5590SOL     OW17385   0.636   3.429   0.704 -0.6927  0.4181 -0.4889
 5590SOL    HW117386   0.649   3.347   0.751  0.0129  0.8285  0.0666
 5590SOL    HW217387   0.601   3.403   0.619  0.2082 -0.5170 -0.6005
 5591SOL     OW17388   0.360   5.463   5.027  0.5858 -0.3656 -0.5108
 5591SOL    HW117389   0.453   5.475   5.007  0.8698 -3.3776 -1.5510
 5591SOL    HW217390   0.315   5.524   4.968  1.8546  0.9885 -0.1395
 5592SOL     OW17391   2.578   4.408   0.397  0.6419 -0.3339 -0.3353
 5592SOL    HW117392   2.543   4.350   0.465  0.8384  0.5679  0.5587
 5592SOL    HW217393   2.673   4.402   0.408  0.6605  0.2798 -0.1169
 5593SOL     OW17394   2.180   1.731   0.630  0.4113  0.2785  0.4824
 5593SOL    HW117395   2.089   1.726   0.661 -1.1236  1.5075 -3.2192
 5593SOL    HW217396   2.211   1.640   0.632 -0.4953 -0.0391  2.7271
 5594SOL     OW17397   6.812   6.875   1.486  0.5294  0.2298 -0.0857
 5594SOL    HW117398   6.825   6.797   1.431  2.5129 -1.4608  2.4901
 5594SOL    HW217399   6.893   6.925   1.475  1.6435 -0.9003  2.2393
 5595SOL     OW17400   3.559   4.526   3.350 -0.4081  0.3120 -0.2316
 5595SOL    HW117401   3.610   4.606   3.340  1.0754 -0.6189 -0.3953
 5595SOL    HW217402   3.489   4.533   3.285  1.5163  0.1070 -2.4029
 5596SOL     OW17403   3.593   0.309   1.662 -0.4672 -0.0460 -0.4194
 5596SOL    HW117404   3.501   0.282   1.664 -0.4716 -0.0840 -1.0590
 5596SOL    HW217405   3.599   0.370   1.588  0.0462 -0.1271 -0.4484
 5597SOL     OW17406   4.245   7.242   5.192  0.6020 -0.7117 -0.4331
 5597SOL    HW117407   4.289   7.191   5.124 -0.1122 -1.0372 -0.6613
 5597SOL    HW217408   4.314   7.297   5.228  0.9091 -0.2303 -1.6984
 5598SOL     OW17409   7.032   5.869   1.021 -0.1845  0.2003 -0.4022
 5598SOL    HW117410   7.068   5.957   1.030  1.3526 -0.3511 -0.9146
 5598SOL    HW217411   6.974   5.859   1.096 -0.8025  1.8265 -0.6132
 5599SOL     OW17412   6.436   3.164   4.511 -0.4373 -0.0486 -0.0045
 5599SOL    HW117413   6.469   3.112   4.437 -2.7486 -1.1618 -0.3684
 5599SOL    HW217414   6.405   3.098   4.574 -1.0600  0.8849  0.6851
 5600SOL     OW17415   6.693   5.836   7.196  0.3019 -0.6271  0.0044
 5600SOL    HW117416   6.723   5.787   7.120 -0.0967  0.9302 -1.1996
 5600SOL    HW217417   6.757   5.815   7.265  0.1584 -2.7534 -0.4526
 5601SOL     OW17418   4.220   1.006   3.099  0.0283 -0.2653 -0.3303
 5601SOL    HW117419   4.138   0.958   3.106 -0.1038  0.0617  0.4949
 5601SOL    HW217420   4.246   1.023   3.190  0.9006 -0.1847 -0.5838
 5602SOL     OW17421   3.195   2.702   6.793  0.2540 -0.0958  0.1641
 5602SOL    HW117422   3.130   2.646   6.751 -1.0334  2.1230 -1.0351
 5602SOL    HW217423   3.150   2.736   6.871  1.1760 -1.0202  1.1292
 5603SOL     OW17424   4.498   6.943   3.492 -0.1775  0.2482 -0.1497
 5603SOL    HW117425   4.460   7.025   3.522 -1.0449 -0.3364  0.3523
 5603SOL    HW217426   4.582   6.969   3.453  0.6194  1.1234  1.9896
 5604SOL     OW17427   3.399   6.774   1.252 -0.2539  0.0894 -0.3299
 5604SOL    HW117428   3.323   6.716   1.257  0.5014 -0.8402  1.4848
 5604SOL    HW217429   3.474   6.716   1.264  0.6128  1.2690  0.1835
 5605SOL     OW17430   5.654   1.308   4.928  0.1176  0.2066  0.5914
 5605SOL    HW117431   5.655   1.324   4.834  2.6761 -0.4801  0.4215
 5605SOL    HW217432   5.652   1.213   4.937 -1.7065  0.2736  1.3068
 5606SOL     OW17433   5.777   7.061   7.023  0.0988  0.1930 -0.0853
 5606SOL    HW117434   5.768   7.082   6.930 -0.9281 -1.5744 -0.4305
 5606SOL    HW217435   5.743   7.138   7.069  1.0300  1.2706 -1.1224
 5607SOL     OW17436   2.725   1.225   0.159 -0.2588  0.1135  0.0211
 5607SOL    HW117437   2.739   1.136   0.190 -2.0730 -0.1125  0.3237
 5607SOL    HW217438   2.798   1.242   0.100  0.2217 -1.5003  0.1032
 5608SOL     OW17439   4.877   3.226   0.423  0.3543  0.7178  0.0326
 5608SOL    HW117440   4.822   3.243   0.346 -1.2098  0.8862  1.1397
 5608SOL    HW217441   4.889   3.313   0.462  1.6698  0.7202 -0.3414
 5609SOL     OW17442   4.368   2.824   0.531 -0.0014 -0.5710  0.4925
 5609SOL    HW117443   4.392   2.764   0.460  1.6970 -0.5363  0.9975
 5609SOL    HW217444   4.413   2.906   0.510 -0.3696 -0.2164  1.0504
 5610SOL     OW17445   3.094   1.436   5.834 -0.3516 -0.0106 -0.0732
 5610SOL    HW117446   3.100   1.346   5.802  0.8229 -0.0035  0.0531
 5610SOL    HW217447   3.087   1.428   5.929 -1.9300  0.0126 -0.1626
 5611SOL     OW17448   3.937   6.267   0.486  0.0308  0.6301  0.0962
 5611SOL    HW117449   3.941   6.171   0.482  0.3420  0.6693 -0.8185
 5611SOL    HW217450   3.952   6.295   0.396 -3.5396  1.4210 -0.3894
 5612SOL     OW17451   1.959   2.551   3.969  0.2427  0.5619  0.2665
 5612SOL    HW117452   1.873   2.534   3.932 -0.1107  0.8373  0.9441
 5612SOL    HW217453   2.005   2.600   3.900 -0.1317  0.3989 -0.1030
 5613SOL     OW17454   3.968   4.651   1.319  0.3668  0.3976  0.3226
 5613SOL    HW117455   3.998   4.675   1.407 -0.8682  0.8463  0.6599
 5613SOL    HW217456   4.037   4.682   1.260  0.6199  1.2805  1.0527
 5614SOL     OW17457   6.337   1.674   4.499  0.0350 -0.1811  0.3851
 5614SOL    HW117458   6.349   1.762   4.533 -1.5429  0.2476 -0.0974
 5614SOL    HW217459   6.340   1.618   4.577 -0.8641  0.5055  0.9297
 5615SOL     OW17460   6.277   6.657   5.254  0.4714  0.4341  0.0455
 5615SOL    HW117461   6.358   6.686   5.213 -0.1399  0.8752 -0.8992
 5615SOL    HW217462   6.294   6.566   5.279  1.2054  0.4719 -0.2876
 5616SOL     OW17463   2.121   5.445   4.481 -0.0105 -0.0573  0.3641
 5616SOL    HW117464   2.173   5.412   4.408 -0.0650  1.3492 -0.3483
 5616SOL    HW217465   2.065   5.512   4.442  1.7620  2.6221  2.0264
 5617SOL     OW17466   1.715   2.133   1.055  0.1419  0.3613 -0.2014
 5617SOL    HW117467   1.717   2.132   0.959  0.6680 -0.4265 -0.1889
 5617SOL    HW217468   1.803   2.160   1.081 -0.6712  3.1264  0.0754
 5618SOL     OW17469   2.768   1.037   3.712 -0.0332  0.0897 -0.1637
 5618SOL    HW117470   2.724   1.016   3.795  0.7768 -1.4580 -0.0887
 5618SOL    HW217471   2.742   0.966   3.653  0.2921  0.5770 -0.9007
 5619SOL     OW17472   3.195   3.127   6.958  0.2766  0.2605  0.2745
 5619SOL    HW117473   3.283   3.159   6.981  2.0168 -2.5117 -1.9503
 5619SOL    HW217474   3.204   3.092   6.869 -3.7833  2.1748 -1.1523
 5620SOL     OW17475   2.064   4.699   3.348 -0.0418 -0.2465 -0.3908
 5620SOL    HW117476   2.042   4.771   3.289 -1.3758 -1.4621 -1.4315
 5620SOL    HW217477   2.013   4.718   3.428  1.5753  1.2649  0.3511
 5621SOL     OW17478   1.301   1.104   1.621  0.4655  0.5175 -0.2581
 5621SOL    HW117479   1.310   1.029   1.563  0.2439 -0.7767  1.3211
 5621SOL    HW217480   1.390   1.140   1.627  1.0525 -1.0528  0.8019
 5622SOL     OW17481   3.242   0.729   5.195  0.3900  0.0927  0.1954
 5622SOL    HW117482   3.308   0.797   5.211  0.1692 -0.0376  1.7672
 5622SOL    HW217483   3.290   0.660   5.149  0.7190  1.0895 -1.0291
 5623SOL     OW17484   0.127   1.331   1.913  0.2749  0.0213  0.1213
 5623SOL    HW117485   0.082   1.413   1.893  2.2166  1.2925  0.6069
 5623SOL    HW217486   0.219   1.356   1.918  1.0049 -2.3385 -0.3481
 5624SOL     OW17487   0.771   3.862   1.574 -0.1958 -0.0872 -0.1698
 5624SOL    HW117488   0.855   3.906   1.559  0.0824 -0.2082  0.9788
 5624SOL    HW217489   0.745   3.889   1.662 -1.2948 -0.1782 -0.4518
 5625SOL     OW17490   2.330   4.629   2.727  0.1111  0.1572  0.1174
 5625SOL    HW117491   2.282   4.678   2.660 -0.1177 -0.3569 -0.1064
 5625SOL    HW217492   2.377   4.561   2.677  0.6021  0.2909  0.3948
 5626SOL     OW17493   3.214   0.569   1.279  0.2020 -0.1006  0.1753
 5626SOL    HW117494   3.296   0.616   1.265  0.2510  0.1293  1.2094
 5626SOL    HW217495   3.241   0.483   1.310  0.1053 -0.7911 -1.5046
 5627SOL     OW17496   4.813   5.676   4.900 -0.4102 -0.1725 -0.2870
 5627SOL    HW117497   4.768   5.598   4.868 -0.6563 -0.6344  1.1088
 5627SOL    HW217498   4.742   5.737   4.922 -0.3915 -0.7879  1.6383
 5628SOL     OW17499   1.701   1.076   2.803 -0.1652  0.3057  0.1157
 5628SOL    HW117500   1.680   1.081   2.897  1.2564 -1.7759  0.6400
 5628SOL    HW217501   1.623   1.038   2.763  1.0982 -4.5212  1.5453
 5629SOL     OW17502   6.928   4.499   5.300 -0.2151 -0.7608 -0.2892
 5629SOL    HW117503   6.873   4.485   5.377 -0.8172 -1.1392 -0.7769
 5629SOL    HW217504   6.881   4.456   5.229  0.6209 -0.9202 -0.7582
 5630SOL     OW17505   4.448   2.696   2.717 -0.0850  0.3339 -0.3807
 5630SOL    HW117506   4.451   2.602   2.734 -0.4593  0.1133 -1.4585
 5630SOL    HW217507   4.509   2.734   2.780 -0.3155 -0.5776  0.4108
 5631SOL     OW17508   0.175   2.971   0.883 -0.3105 -0.4232 -0.4633
 5631SOL    HW117509   0.252   2.970   0.826 -1.3506  1.2363 -1.9793
 5631SOL    HW217510   0.209   3.003   0.967  0.4760  1.5802 -1.4782
 5632SOL     OW17511   1.670   0.129   1.482 -0.6438 -0.5409 -0.6227
 5632SOL    HW117512   1.585   0.094   1.458 -0.0125 -1.1236 -2.1592
 5632SOL    HW217513   1.689   0.195   1.416  0.4729 -1.0719 -0.8801
 5633SOL     OW17514   6.036   3.064   5.846  0.3500 -0.1286 -0.2613
 5633SOL    HW117515   6.023   3.115   5.926  0.9317 -0.3913  0.0082
 5633SOL    HW217516   6.128   3.038   5.849 -0.2884 -2.5560  0.4253
 5634SOL     OW17517   5.827   6.683   6.431  0.4613 -0.1029  0.3787
 5634SOL    HW117518   5.761   6.657   6.494  0.4158 -1.9206 -0.3491
 5634SOL    HW217519   5.910   6.671   6.477  0.4402 -1.6228  0.0845
 5635SOL     OW17520   5.855   3.968   1.074 -0.1838 -0.1969 -0.4334
 5635SOL    HW117521   5.777   3.917   1.049 -1.0535 -0.2968  2.1061
 5635SOL    HW217522   5.929   3.913   1.047 -1.0802 -2.2013  0.9081
 5636SOL     OW17523   7.069   3.003   2.636  0.2647  0.1114  0.4036
 5636SOL    HW117524   7.160   3.033   2.633  0.5054 -0.6530 -1.4388
 5636SOL    HW217525   7.075   2.911   2.662  0.1326 -0.2256 -0.6996
 5637SOL     OW17526   4.552   3.674   7.212 -0.3557  0.7207 -0.1780
 5637SOL    HW117527   4.465   3.708   7.191 -0.7888 -0.2487  0.0088
 5637SOL    HW217528   4.557   3.590   7.167 -0.4155 -0.3239  1.6377
 5638SOL     OW17529   1.755   2.784   2.594  0.3093  0.2960  0.1265
 5638SOL    HW117530   1.745   2.877   2.615  1.8684  0.7428 -0.9281
 5638SOL    HW217531   1.703   2.772   2.515 -2.3237 -0.4771  1.8467
 5639SOL     OW17532   3.060   1.255   5.112  0.0975  0.1663  0.4288
 5639SOL    HW117533   3.153   1.279   5.113  0.0671  0.3207 -0.0705
 5639SOL    HW217534   3.060   1.160   5.129  0.4425 -0.0829 -0.8004
 5640SOL     OW17535   3.499   1.774   2.315 -0.0262  0.4748 -1.0976
 5640SOL    HW117536   3.410   1.741   2.331 -0.3553  1.5352 -0.6020
 5640SOL    HW217537   3.555   1.697   2.325 -0.6673  0.2025  0.9618
 5641SOL     OW17538   5.887   7.017   2.168  0.3667 -0.2526  0.3441
 5641SOL    HW117539   5.940   7.028   2.090  0.9170 -2.6482  0.3197
 5641SOL    HW217540   5.799   6.999   2.134  0.3122  0.0749  0.3093
 5642SOL     OW17541   0.042   5.892   4.941 -0.2160 -0.5272  0.0625
 5642SOL    HW117542   0.065   5.897   4.848  0.3041  3.6527  0.2395
 5642SOL    HW217543   0.125   5.872   4.985 -0.1164 -0.7695 -0.2249
 5643SOL     OW17544   6.809   6.578   5.307  1.0542  0.2047  0.2067
 5643SOL    HW117545   6.875   6.583   5.238 -1.5760 -0.5138 -2.6197
 5643SOL    HW217546   6.774   6.666   5.314 -0.3858 -0.1944 -1.3297
 5644SOL     OW17547   6.191   4.813   5.250 -0.9208 -0.0631  0.3779
 5644SOL    HW117548   6.237   4.893   5.278 -1.8528  0.1101  1.4849
 5644SOL    HW217549   6.098   4.833   5.265 -1.1282 -1.5541  1.2060
 5645SOL     OW17550   0.053   1.336   2.593 -0.3425  0.3412 -0.3217
 5645SOL    HW117551   0.007   1.286   2.660  1.8674  0.9836  1.8118
 5645SOL    HW217552   0.138   1.294   2.585 -0.6307  0.0845 -3.0674
 5646SOL     OW17553   0.435   6.450   2.225 -0.0748 -0.4924  0.1352
 5646SOL    HW117554   0.364   6.387   2.233 -1.1568  0.8797  2.1766
 5646SOL    HW217555   0.470   6.459   2.314  0.9165  0.8027 -0.3469
 5647SOL     OW17556   3.495   5.979   0.095  0.3875 -0.3544 -0.1652
 5647SOL    HW117557   3.411   5.937   0.112  0.3159 -0.4299 -0.6879
 5647SOL    HW217558   3.479   6.032   0.016  0.6414  0.1687  0.1328
 5648SOL     OW17559   2.982   4.297   3.053 -0.1767  0.0361  0.1671
 5648SOL    HW117560   2.907   4.348   3.082  0.0800 -0.1775  1.2582
 5648SOL    HW217561   3.057   4.355   3.064  0.0624 -0.4065  1.0167
 5649SOL     OW17562   6.835   4.052   3.478  0.1746  0.4409 -0.0189
 5649SOL    HW117563   6.884   4.126   3.515 -0.3705  0.6917  0.2179
 5649SOL    HW217564   6.743   4.073   3.497  0.0643 -0.6795  0.7629
 5650SOL     OW17565   5.738   4.396   5.958 -0.2808 -0.1217 -0.1613
 5650SOL    HW117566   5.669   4.453   5.926  0.1217  0.7921  0.5493
 5650SOL    HW217567   5.789   4.373   5.881  0.0811  1.2250 -0.3437
 5651SOL     OW17568   3.690   2.810   1.389  0.0384 -0.2986  0.2017
 5651SOL    HW117569   3.730   2.885   1.344 -0.0310  0.1147  0.8024
 5651SOL    HW217570   3.660   2.753   1.319 -1.2318  0.9370 -0.3159
 5652SOL     OW17571   2.129   5.729   0.466 -0.8989 -0.3184 -0.0168
 5652SOL    HW117572   2.054   5.771   0.507 -1.3605  0.3669 -1.4818
 5652SOL    HW217573   2.131   5.765   0.377 -1.6485 -3.7158 -1.6099
 5653SOL     OW17574   0.625   6.061   6.834  0.1686  0.2361  0.0074
 5653SOL    HW117575   0.599   5.988   6.778 -1.4346  0.4227  0.4799
 5653SOL    HW217576   0.573   6.135   6.804  0.7926  0.8616  0.4163
 5654SOL     OW17577   5.254   4.789   2.757  0.1265  0.5760  0.6169
 5654SOL    HW117578   5.256   4.705   2.710  0.4289 -0.6647  2.7315
 5654SOL    HW217579   5.346   4.814   2.764 -0.0367  1.9730 -1.3957
 5655SOL     OW17580   2.579   3.633   2.461  0.1151 -0.2845  0.1574
 5655SOL    HW117581   2.600   3.583   2.382  2.7243 -1.6774  1.5897
 5655SOL    HW217582   2.494   3.600   2.489 -0.7448  0.0587 -1.8645
 5656SOL     OW17583   4.998   4.028   7.173  0.0108 -0.3068  0.3534
 5656SOL    HW117584   4.983   3.952   7.117 -0.0954  0.7129 -1.0529
 5656SOL    HW217585   4.941   4.096   7.137  2.1073  1.2659 -0.1632
 5657SOL     OW17586   5.539   0.465   1.617 -0.0856  0.1538 -0.0573
 5657SOL    HW117587   5.478   0.539   1.615 -0.4834 -0.0988  1.4588
 5657SOL    HW217588   5.519   0.419   1.699  0.2429 -1.5683 -0.9040
 5658SOL     OW17589   5.791   0.813   6.717 -0.1470  0.0302 -0.0433
 5658SOL    HW117590   5.814   0.900   6.749  1.9811  0.7662 -3.0950
 5658SOL    HW217591   5.703   0.824   6.680 -0.9713  0.1489  1.8474
 5659SOL     OW17592   4.675   6.666   6.883  0.6459  0.1595  0.0624
 5659SOL    HW117593   4.751   6.632   6.836  1.7002  1.1943  0.9367
 5659SOL    HW217594   4.646   6.593   6.937  1.3486 -0.0996  0.1053
 5660SOL     OW17595   1.078   1.883   5.864 -0.3194 -0.3548 -0.1707
 5660SOL    HW117596   0.985   1.859   5.868 -0.1463 -1.0343 -0.0310
 5660SOL    HW217597   1.086   1.960   5.920 -0.7252 -0.5577  0.1710
 5661SOL     OW17598   3.199   1.116   0.934  0.6088  0.1572  0.0643
 5661SOL    HW117599   3.223   1.077   0.850  0.3928  0.0774  0.0379
 5661SOL    HW217600   3.147   1.048   0.978  0.0063  0.5090 -0.0894
 5662SOL     OW17601   5.638   6.457   3.566 -0.2327  0.4855 -0.4733
 5662SOL    HW117602   5.688   6.417   3.495  1.0396  2.3655 -0.7132
 5662SOL    HW217603   5.547   6.459   3.534 -0.1473 -1.1314 -0.8791
 5663SOL     OW17604   3.731   0.654   5.678  0.7731 -0.1409  0.0747
 5663SOL    HW117605   3.737   0.750   5.683  0.5419 -0.0750 -0.7791
 5663SOL    HW217606   3.643   0.634   5.709  1.2332 -0.1855  1.4184
 5664SOL     OW17607   7.012   6.607   5.158 -0.2622 -0.1396  0.5189
 5664SOL    HW117608   7.066   6.685   5.168 -0.1243 -0.3188  1.2203
 5664SOL    HW217609   6.973   6.616   5.071  1.5403 -0.4225 -0.3636
 5665SOL     OW17610   3.610   0.393   2.568  0.8205 -0.6828  0.3057
 5665SOL    HW117611   3.520   0.392   2.601  0.7946  0.6643  0.3410
 5665SOL    HW217612   3.646   0.309   2.594 -0.6644 -1.5769 -0.3762
 5666SOL     OW17613   5.019   4.116   1.076 -0.0875 -0.1153 -0.2435
 5666SOL    HW117614   4.930   4.083   1.082  0.3346 -1.0963  0.9796
 5666SOL    HW217615   5.049   4.089   0.989 -0.3107 -1.5828  0.1160
 5667SOL     OW17616   3.029   3.977   0.819  0.1398 -0.2486  0.0781
 5667SOL    HW117617   3.072   4.001   0.901 -0.1406  1.4624 -0.2405
 5667SOL    HW217618   3.099   3.981   0.754 -0.1891  1.2544 -0.2215
 5668SOL     OW17619   6.265   6.025   3.325 -0.5937  0.4312 -0.1372
 5668SOL    HW117620   6.297   6.106   3.363 -0.6446 -0.3312  1.6406
 5668SOL    HW217621   6.274   5.960   3.395  0.5802 -1.3886 -1.8695
 5669SOL     OW17622   6.661   3.376   6.424 -0.2438 -0.5399  0.8052
 5669SOL    HW117623   6.649   3.471   6.427  0.0339 -0.4268 -0.7683
 5669SOL    HW217624   6.740   3.364   6.371 -0.8223 -1.6713  0.1758
 5670SOL     OW17625   6.274   6.304   3.444 -0.6164  0.6966  0.1115
 5670SOL    HW117626   6.200   6.328   3.501  0.5165  1.4093  1.3358
 5670SOL    HW217627   6.348   6.296   3.504  0.4806  0.7739 -1.1980
 5671SOL     OW17628   2.385   6.236   5.356 -0.4124 -0.0697  0.0091
 5671SOL    HW117629   2.393   6.258   5.263  1.0078  0.8329  0.3121
 5671SOL    HW217630   2.440   6.158   5.366 -0.2705  0.0496  0.1552
 5672SOL     OW17631   1.221   5.749   0.874  0.0837  0.7695  0.0492
 5672SOL    HW117632   1.313   5.740   0.899  0.9081  0.7245 -2.7547
 5672SOL    HW217633   1.199   5.839   0.897  0.4528  0.4848  1.6945
 5673SOL     OW17634   1.998   1.647   4.228  0.4054 -0.0155  0.3720
 5673SOL    HW117635   1.966   1.639   4.318 -0.5573  0.5587  0.0896
 5673SOL    HW217636   1.963   1.570   4.183 -1.5828  1.1651 -0.2099
 5674SOL     OW17637   3.881   3.016   4.251  0.6759 -0.6212 -0.0326
 5674SOL    HW117638   3.906   3.107   4.266 -0.5884 -0.3023  0.2750
 5674SOL    HW217639   3.892   3.004   4.156  1.1681 -0.2553 -0.0255
 5675SOL     OW17640   0.448   1.730   3.118 -0.4254 -0.8046 -0.1612
 5675SOL    HW117641   0.380   1.723   3.051  0.1763 -3.0985 -0.6424
 5675SOL    HW217642   0.529   1.742   3.068 -0.3205  0.7200  0.3459
 5676SOL     OW17643   5.582   6.096   3.533  0.2795  0.4354 -0.1077
 5676SOL    HW117644   5.673   6.124   3.549  0.1198  0.7043  0.3506
 5676SOL    HW217645   5.562   6.127   3.445  0.2341  1.4318  0.2479
 5677SOL     OW17646   3.538   3.350   4.568 -0.5017  0.1048 -0.1112
 5677SOL    HW117647   3.548   3.372   4.475 -0.9880  1.5246  0.1488
 5677SOL    HW217648   3.449   3.316   4.576 -1.0595  1.5531  0.0941
 5678SOL     OW17649   0.322   1.016   0.800  0.1177  0.3091 -0.0124
 5678SOL    HW117650   0.341   1.086   0.737 -0.5961  1.7535  1.2925
 5678SOL    HW217651   0.406   0.973   0.816  0.4851  0.5611 -1.1882
 5679SOL     OW17652   1.986   6.632   5.633 -0.1880  0.0104  0.4205
 5679SOL    HW117653   2.081   6.626   5.624 -0.3723 -2.3999 -0.4891
 5679SOL    HW217654   1.961   6.705   5.577  1.0916  0.5726  0.5445
 5680SOL     OW17655   5.061   3.179   3.956 -0.4247 -0.3754  0.0090
 5680SOL    HW117656   5.106   3.124   4.020  0.8195  0.6140  0.0324
 5680SOL    HW217657   5.014   3.117   3.900  0.2332 -1.3970  0.5460
 5681SOL     OW17658   3.751   3.546   4.613  0.5043 -0.1666 -0.3093
 5681SOL    HW117659   3.768   3.564   4.521 -0.3146  2.3278 -0.0472
 5681SOL    HW217660   3.666   3.503   4.615  0.7550 -0.6981 -0.7141
 5682SOL     OW17661   5.155   0.468   6.469 -0.1945  0.1646 -0.4962
 5682SOL    HW117662   5.086   0.438   6.528  0.4238  1.4337  0.9257
 5682SOL    HW217663   5.160   0.562   6.484  0.8279  0.3265 -1.7030
 5683SOL     OW17664   2.951   4.958   0.708 -0.9419 -0.5682 -0.5532
 5683SOL    HW117665   2.897   4.928   0.781 -1.4588 -1.6919 -1.3830
 5683SOL    HW217666   3.017   4.891   0.697 -1.7329 -1.1617 -2.0248
 5684SOL     OW17667   5.330   1.023   3.839 -0.5693 -0.3568  0.3544
 5684SOL    HW117668   5.363   1.069   3.762 -2.8198 -0.1603 -0.5886
 5684SOL    HW217669   5.401   0.964   3.864  0.7540  0.5822 -1.0033
 5685SOL     OW17670   0.195   6.130   0.087 -0.3661 -0.1626 -0.8102
 5685SOL    HW117671   0.285   6.110   0.062 -0.1685 -0.8450  0.3841
 5685SOL    HW217672   0.202   6.212   0.137 -0.2154 -0.9001  0.4074
 5686SOL     OW17673   1.114   2.927   1.490 -0.5230  0.0443  0.4091
 5686SOL    HW117674   1.067   2.846   1.511  1.2354 -0.5789  2.2461
 5686SOL    HW217675   1.105   2.981   1.568 -1.4193  1.5415 -0.6922
 5687SOL     OW17676   5.849   6.567   2.993 -0.2862 -0.1580 -0.1890
 5687SOL    HW117677   5.865   6.483   2.951  0.7699  0.3536 -0.8539
 5687SOL    HW217678   5.776   6.605   2.946  0.3937  0.0709 -1.0804
 5688SOL     OW17679   2.872   1.466   4.405  0.7658 -0.1219 -0.2319
 5688SOL    HW117680   2.781   1.466   4.431 -0.0256  0.7640 -2.6912
 5688SOL    HW217681   2.915   1.405   4.466 -0.5220  2.6034  3.7579
 5689SOL     OW17682   3.506   5.134   6.424  0.0969  0.3088  0.1369
 5689SOL    HW117683   3.444   5.062   6.411  0.5981  0.0806 -1.0406
 5689SOL    HW217684   3.535   5.124   6.515 -2.0832  0.8275  0.9757
 5690SOL     OW17685   3.754   0.381   0.869  0.0810  0.4054 -0.0046
 5690SOL    HW117686   3.759   0.409   0.960 -0.8978 -0.7481  0.4273
 5690SOL    HW217687   3.759   0.286   0.872 -0.0520  0.3436 -1.1566
 5691SOL     OW17688   3.175   1.000   7.008  0.4508 -0.0200 -0.1465
 5691SOL    HW117689   3.266   1.030   7.001  0.0810  0.7522 -2.1879
 5691SOL    HW217690   3.127   1.077   7.039  0.6970 -0.9373  2.8142
 5692SOL     OW17691   3.781   0.540   3.809  0.1621 -0.2837  0.0366
 5692SOL    HW117692   3.876   0.540   3.808  0.2416  0.1014  2.1808
 5692SOL    HW217693   3.757   0.454   3.843 -0.0114  0.8993  3.3452
 5693SOL     OW17694   6.268   1.328   0.002  0.3715  0.1987 -0.2434
 5693SOL    HW117695   6.360   1.305  -0.002  0.6172  1.1904 -0.6006
 5693SOL    HW217696   6.228   1.261   0.057  1.7472  1.1824  2.0890
 5694SOL     OW17697   6.025   1.169   2.969 -0.1665  0.7974  0.3520
 5694SOL    HW117698   6.013   1.240   3.033  1.2039  0.7893  0.6591
 5694SOL    HW217699   6.117   1.144   2.979 -0.5314 -0.7692 -0.0223
 5695SOL     OW17700   7.006   3.204   0.113 -0.2653  0.6320  0.3476
 5695SOL    HW117701   7.053   3.233   0.192 -0.4488  0.3207  0.5733
 5695SOL    HW217702   6.992   3.284   0.063  1.7891  0.5602 -0.4404
 5696SOL     OW17703   5.640   1.945   6.268 -0.2757  0.4280 -0.2087
 5696SOL    HW117704   5.547   1.922   6.273 -0.0870 -0.1432  1.0667
 5696SOL    HW217705   5.674   1.892   6.196 -0.6953 -0.2483  0.0807
 5697SOL     OW17706   6.505   2.229   4.744  0.3926  0.1729  0.1122
 5697SOL    HW117707   6.579   2.173   4.721 -0.2484  0.0603 -1.9932
 5697SOL    HW217708   6.440   2.212   4.675 -1.7650 -0.0096  2.0418
 5698SOL     OW17709   7.004   1.252   0.563 -0.3790  0.3018  0.2366
 5698SOL    HW117710   7.025   1.168   0.602 -0.5090  0.0036 -0.3278
 5698SOL    HW217711   6.909   1.260   0.573 -0.6075 -0.3945 -1.2119
 5699SOL     OW17712   5.623   3.833   0.630  0.1847 -0.1188  0.0973
 5699SOL    HW117713   5.571   3.884   0.692 -0.3502 -2.6979  1.9305
 5699SOL    HW217714   5.705   3.882   0.620 -1.2391  2.3572 -0.3164
 5700SOL     OW17715   4.058   6.900   2.351 -0.1659 -0.0150  0.8866
 5700SOL    HW117716   4.140   6.907   2.303 -0.6161 -2.2495 -0.3657
 5700SOL    HW217717   3.991   6.895   2.282 -1.3499  1.3397  1.8733
 5701SOL     OW17718   6.541   6.387   4.390 -0.2813  0.1109 -0.2558
 5701SOL    HW117719   6.516   6.406   4.480 -0.7203 -2.0805  0.1438
 5701SOL    HW217720   6.485   6.314   4.365  1.0270 -0.4379 -1.7219
 5702SOL     OW17721   0.086   4.785   4.331 -0.0535 -0.6789  0.3650
 5702SOL    HW117722   0.085   4.818   4.241  0.5605 -1.4351  0.0641
 5702SOL    HW217723   0.024   4.840   4.378 -0.9898 -0.7782 -0.7054
 5703SOL     OW17724   5.403   5.888   7.238 -0.1992 -0.1378 -0.0778
 5703SOL    HW117725   5.448   5.972   7.247 -0.8726  0.1070  1.1799
 5703SOL    HW217726   5.448   5.845   7.165  0.4374  1.1263 -0.4673
 5704SOL     OW17727   0.174   2.114   3.135  0.4702 -0.2617 -0.5107
 5704SOL    HW117728   0.135   2.171   3.068  0.0679  0.5931  0.4200
 5704SOL    HW217729   0.256   2.083   3.096  1.1810  1.7260 -0.6999
 5705SOL     OW17730   6.559   7.027   5.188 -0.0177  0.2349 -0.3180
 5705SOL    HW117731   6.607   7.088   5.244  0.2771  0.8413 -1.2133
 5705SOL    HW217732   6.618   7.010   5.115 -0.4821 -0.3885 -0.5575
 5706SOL     OW17733   6.436   2.282   2.235 -0.4346  0.2913  0.0958
 5706SOL    HW117734   6.506   2.239   2.285 -0.5667 -0.5902 -0.4466
 5706SOL    HW217735   6.424   2.367   2.277  0.4939  0.1725  0.6147
 5707SOL     OW17736   5.708   3.581   0.786 -0.0044 -0.4801 -0.0898
 5707SOL    HW117737   5.666   3.515   0.731  0.2247 -0.6550 -0.0561
 5707SOL    HW217738   5.689   3.664   0.742 -3.8110 -0.0163  1.9282
 5708SOL     OW17739   1.470   2.787   3.596  0.1028 -0.3365  0.1575
 5708SOL    HW117740   1.378   2.813   3.583  0.4697  1.3602  0.6650
 5708SOL    HW217741   1.486   2.724   3.526 -1.9318 -2.0676  1.1233
 5709SOL     OW17742   0.049   2.445   4.781  0.0258 -0.0641  0.0370
 5709SOL    HW117743   0.041   2.406   4.694  1.0856 -0.3334  0.0452
 5709SOL    HW217744   0.024   2.536   4.769 -0.5376 -0.2705 -0.3971
 5710SOL     OW17745   0.201   3.580   6.589  0.4173 -0.1115 -0.0278
 5710SOL    HW117746   0.208   3.627   6.672 -1.0989  0.6030 -0.2705
 5710SOL    HW217747   0.277   3.610   6.539  0.7979  0.2236  0.7257
 5711SOL     OW17748   5.674   2.101   3.772  0.7570 -0.2160 -0.3072
 5711SOL    HW117749   5.648   2.090   3.681  0.7063  1.6222 -0.5664
 5711SOL    HW217750   5.622   2.176   3.803  1.4280 -0.2337  0.9513
 5712SOL     OW17751   4.478   2.848   3.629 -0.1993  0.5403  0.6852
 5712SOL    HW117752   4.471   2.867   3.536  0.5889 -0.3610  0.4225
 5712SOL    HW217753   4.412   2.904   3.670 -1.5490 -0.0721 -0.5545
 5713SOL     OW17754   0.512   6.766   7.097  0.2974 -0.0363 -0.2326
 5713SOL    HW117755   0.594   6.730   7.064  0.5410  0.9318 -0.7258
 5713SOL    HW217756   0.482   6.702   7.162 -0.0065 -1.8419 -2.0147
 5714SOL     OW17757   3.990   2.892   6.122  0.4007 -0.6486  0.2572
 5714SOL    HW117758   3.914   2.875   6.176 -0.1012  1.0419  0.1435
 5714SOL    HW217759   4.059   2.837   6.159 -0.2602 -0.4718  1.8134
 5715SOL     OW17760   3.973   1.299   5.038 -0.0023  0.1541  0.7427
 5715SOL    HW117761   3.962   1.209   5.007  2.0593  0.0994  0.0083
 5715SOL    HW217762   3.914   1.306   5.113 -1.1013 -1.4122  0.0851
 5716SOL     OW17763   1.230   3.973   3.902 -0.5906 -0.0756  0.2608
 5716SOL    HW117764   1.273   4.056   3.884 -0.7386 -0.1516 -0.4616
 5716SOL    HW217765   1.259   3.949   3.990 -0.6249  0.7832  0.5085
 5717SOL     OW17766   1.771   3.659   7.016 -0.0810 -0.3610 -0.3713
 5717SOL    HW117767   1.806   3.577   6.984  3.2562  0.6114  0.4045
 5717SOL    HW217768   1.760   3.646   7.110  1.6578  0.3623 -0.0245
 5718SOL     OW17769   5.122   5.176   6.052  0.3017  0.2509 -0.6490
 5718SOL    HW117770   5.054   5.154   5.988 -0.1441 -1.2417  0.2732
 5718SOL    HW217771   5.203   5.146   6.012  0.0513 -0.4916 -0.6150
 5719SOL     OW17772   5.249   1.601   5.089 -0.3461  0.6427 -0.2016
 5719SOL    HW117773   5.167   1.568   5.052  0.1678  0.8363 -1.5991
 5719SOL    HW217774   5.298   1.522   5.113 -0.4871  0.4947 -0.3954
 5720SOL     OW17775   3.939   0.400   5.593 -0.9461 -0.1072  0.1496
 5720SOL    HW117776   3.884   0.378   5.517 -0.5621 -2.3408  0.4610
 5720SOL    HW217777   3.911   0.488   5.618 -0.7798  0.9051 -2.8425
 5721SOL     OW17778   5.641   1.354   2.139 -0.2079  0.0322 -0.3975
 5721SOL    HW117779   5.655   1.443   2.172  0.0427  0.1228 -0.7434
 5721SOL    HW217780   5.555   1.357   2.098 -0.4007 -0.0077  0.0011
 5722SOL     OW17781   6.694   3.209   1.514  0.0494  0.5008  0.2978
 5722SOL    HW117782   6.715   3.210   1.607 -0.2516  1.0956  0.3685
 5722SOL    HW217783   6.741   3.284   1.478 -0.0755  0.4514  0.0279
 5723SOL     OW17784   1.271   3.913   2.215 -0.1263  0.3379  0.5063
 5723SOL    HW117785   1.228   3.846   2.269 -0.2228  0.0251  0.0537
 5723SOL    HW217786   1.324   3.862   2.153  0.4655  0.7064  0.7036
 5724SOL     OW17787   4.570   0.683   4.878  0.7217  0.0240 -0.0282
 5724SOL    HW117788   4.556   0.753   4.814 -0.5305 -0.2005 -0.0225
 5724SOL    HW217789   4.624   0.619   4.831  1.6856  0.8653 -0.1052
 5725SOL     OW17790   6.332   2.746   5.029 -0.3715 -0.0309  0.7922
 5725SOL    HW117791   6.354   2.838   5.046  1.3444 -0.5192  1.4127
 5725SOL    HW217792   6.357   2.733   4.938 -0.7410  0.1487  0.6637
 5726SOL     OW17793   2.654   2.443   6.992  0.1454  0.1716 -0.3732
 5726SOL    HW117794   2.726   2.428   6.932  1.7914  1.3376  1.1883
 5726SOL    HW217795   2.654   2.366   7.050 -0.1834 -0.0472 -0.6601
 5727SOL     OW17796   3.533   0.983   1.254 -0.0672  0.1175  0.3997
 5727SOL    HW117797   3.589   0.934   1.194  1.2208  0.9241  0.9054
 5727SOL    HW217798   3.499   0.917   1.315 -1.2569 -0.6874 -1.0546
 5728SOL     OW17799   3.270   0.698   0.303 -0.7243  0.4486  0.4466
 5728SOL    HW117800   3.207   0.698   0.231 -1.0307 -0.5572  0.6962
 5728SOL    HW217801   3.240   0.767   0.362 -0.3274  1.4454 -0.5041
 5729SOL     OW17802   2.294   7.180   6.174  0.2492  0.1404  0.0036
 5729SOL    HW117803   2.313   7.222   6.090  1.0609 -0.9296 -0.3711
 5729SOL    HW217804   2.222   7.120   6.154  2.8029 -2.9023 -0.9188
 5730SOL     OW17805   2.122   0.697   6.259  0.8130 -0.2822  0.3155
 5730SOL    HW117806   2.108   0.620   6.203  1.3092 -0.6789  0.7234
 5730SOL    HW217807   2.040   0.746   6.254  0.5377 -0.7702 -0.0569
 5731SOL     OW17808   2.073   3.097   2.987 -0.3527 -0.2104  0.1174
 5731SOL    HW117809   2.029   3.015   2.964  0.4510 -0.2040 -1.5440
 5731SOL    HW217810   2.051   3.157   2.916  1.0520  0.2657  0.0570
 5732SOL     OW17811   6.902   4.447   6.145  0.4391 -0.5141 -0.4876
 5732SOL    HW117812   6.902   4.538   6.117  1.1901 -0.3442  0.0385
 5732SOL    HW217813   6.936   4.449   6.234  0.1335 -1.2718 -0.3440
 5733SOL     OW17814   2.635   5.740   0.866 -0.3037 -0.0325 -0.5152
 5733SOL    HW117815   2.674   5.677   0.926 -2.0620  0.0140  0.7475
 5733SOL    HW217816   2.605   5.687   0.792 -0.9261 -0.5557  0.1023
 5734SOL     OW17817   3.308   0.382   4.111 -0.4152 -0.3872 -0.4122
 5734SOL    HW117818   3.239   0.344   4.057  0.8521 -1.4821 -1.3408
 5734SOL    HW217819   3.378   0.403   4.049 -0.1240  1.2824  0.4156
 5735SOL     OW17820   3.078   7.033   7.179  0.3220  0.2505  0.2620
 5735SOL    HW117821   3.128   6.954   7.200 -0.0881 -0.1557 -0.2509
 5735SOL    HW217822   2.987   7.004   7.179  0.1601  0.7506  0.1648
 5736SOL     OW17823   7.152   6.078   2.836 -0.0653 -0.2060 -0.1109
 5736SOL    HW117824   7.244   6.064   2.816  0.0640 -0.3784  0.5768
 5736SOL    HW217825   7.134   6.168   2.808 -0.1619 -0.7389 -1.9016
 5737SOL     OW17826   4.222   3.077   2.947  0.2552 -0.6745  0.2451
 5737SOL    HW117827   4.155   3.072   3.016  1.3935  1.2430  1.5819
 5737SOL    HW217828   4.174   3.104   2.869 -0.4573  1.7404  1.4256
 5738SOL     OW17829   3.726   7.081   2.694 -0.3230 -0.2022  0.3478
 5738SOL    HW117830   3.679   7.018   2.640  0.6491 -0.3777 -0.3077
 5738SOL    HW217831   3.818   7.061   2.681  0.0139  1.3946  0.0660
 5739SOL     OW17832   1.314   2.633   5.932 -0.5918 -0.0471 -0.2018
 5739SOL    HW117833   1.255   2.686   5.878 -1.5258 -2.6575 -1.9417
 5739SOL    HW217834   1.267   2.551   5.945  1.7791 -1.4122  0.2250
 5740SOL     OW17835   3.391   7.065   2.765  0.3303  0.1093  0.9891
 5740SOL    HW117836   3.461   7.074   2.700  0.8538  0.5587  1.5980
 5740SOL    HW217837   3.310   7.063   2.714  0.7347  0.3920  0.3245
 5741SOL     OW17838   6.174   3.420   4.726 -0.0979 -0.0920 -0.1383
 5741SOL    HW117839   6.108   3.411   4.795  0.4613  0.1963  0.4407
 5741SOL    HW217840   6.251   3.456   4.770 -0.0043  0.9060 -1.0682
 5742SOL     OW17841   1.411   3.093   6.293  0.0542 -0.7560  0.5592
 5742SOL    HW117842   1.442   3.002   6.287  1.4393 -0.3269  0.8366
 5742SOL    HW217843   1.372   3.111   6.208 -0.2660 -1.6116  0.5085
 5743SOL     OW17844   6.550   6.765   3.804 -0.4264  0.1850  0.2497
 5743SOL    HW117845   6.548   6.851   3.848  0.0029  0.2915  0.0632
 5743SOL    HW217846   6.636   6.762   3.762 -0.2476 -0.5345  0.6491
 5744SOL     OW17847   3.648   3.742   6.367  0.0829 -0.2148  0.4073
 5744SOL    HW117848   3.614   3.714   6.452 -0.1338 -0.8568  0.1098
 5744SOL    HW217849   3.734   3.702   6.362  0.5508  0.6998  0.7789
 5745SOL     OW17850   3.912   6.154   0.170 -0.4010  0.2756  0.1633
 5745SOL    HW117851   3.884   6.217   0.103  1.0886  1.0700  0.2317
 5745SOL    HW217852   3.832   6.108   0.195 -1.4158  1.6513 -0.4144
 5746SOL     OW17853   3.709   0.036   1.972  0.2517 -0.3672 -0.2665
 5746SOL    HW117854   3.704  -0.056   1.997 -0.6185 -0.2071  0.2209
 5746SOL    HW217855   3.793   0.067   2.007  0.6774 -1.0372 -0.6860
 5747SOL     OW17856   2.727   5.516   4.275  0.2673  0.2006 -0.0869
 5747SOL    HW117857   2.723   5.429   4.313  0.7612  0.2453  0.0834
 5747SOL    HW217858   2.695   5.506   4.185  0.9709 -0.2872 -0.2873
 5748SOL     OW17859   4.336   3.250   4.046  0.0948 -0.0894 -0.1364
 5748SOL    HW117860   4.283   3.186   4.093  0.1014 -0.1547 -0.2186
 5748SOL    HW217861   4.274   3.318   4.018  0.2343  0.4306  0.7840
 5749SOL     OW17862   6.102   6.225   1.569 -0.0888  0.0750 -0.7990
 5749SOL    HW117863   6.124   6.136   1.596  1.4105  0.4960 -0.5729
 5749SOL    HW217864   6.079   6.270   1.651 -1.5134 -0.2563 -0.9880
 5750SOL     OW17865   0.567   4.295   4.252  0.0650  0.6208 -0.5506
 5750SOL    HW117866   0.621   4.220   4.226  1.2277  1.0958  0.4271
 5750SOL    HW217867   0.619   4.371   4.226  0.1344  1.0875  0.9051
 5751SOL     OW17868   3.224   0.902   3.414  0.3357  0.0637 -0.3551
 5751SOL    HW117869   3.242   0.823   3.363  0.1915 -1.1535  1.3734
 5751SOL    HW217870   3.168   0.871   3.486 -0.4608  1.9176 -0.1287
 5752SOL     OW17871   2.948   2.003   4.406  0.1439  0.2975 -0.3322
 5752SOL    HW117872   3.037   1.985   4.435 -0.6955  0.6045  2.8337
 5752SOL    HW217873   2.911   1.917   4.385  1.3241  0.2368 -2.3916
 5753SOL     OW17874   0.247   6.750   6.920 -0.2442  0.3595 -0.1706
 5753SOL    HW117875   0.316   6.777   6.981  0.1602  2.4057 -1.4027
 5753SOL    HW217876   0.289   6.751   6.834 -0.7735 -2.5225 -0.5650
 5754SOL     OW17877   4.142   4.898   2.064 -0.4101 -0.6114 -0.3668
 5754SOL    HW117878   4.122   4.849   1.984 -0.4866 -0.9295 -0.1596
 5754SOL    HW217879   4.112   4.987   2.047 -0.7863 -0.7726 -0.5496
 5755SOL     OW17880   4.227   6.936   0.471 -0.2026  0.2986 -0.2984
 5755SOL    HW117881   4.169   6.873   0.514 -0.4962 -0.8122 -2.1907
 5755SOL    HW217882   4.169   6.989   0.417  0.2466  1.0554 -0.0436
 5756SOL     OW17883   2.778   2.126   1.894  0.7973  0.3728 -0.0373
 5756SOL    HW117884   2.685   2.125   1.873  0.3059 -0.8548  1.9584
 5756SOL    HW217885   2.782   2.111   1.988  2.9227  3.2056  0.4539
 5757SOL     OW17886   0.118   0.687   1.023 -0.0807 -0.2346  0.2229
 5757SOL    HW117887   0.158   0.765   1.061 -0.5262 -0.5509  1.3940
 5757SOL    HW217888   0.188   0.648   0.970  0.1338  0.9590 -0.4069
 5758SOL     OW17889   4.893   5.950   5.779  0.0516  0.0434  0.5035
 5758SOL    HW117890   4.956   5.952   5.850  0.8580  0.6568 -0.2064
 5758SOL    HW217891   4.860   6.040   5.773  1.0471  0.3495 -0.7945
 5759SOL     OW17892   5.407   0.650   0.481  0.1566  0.2738  0.1620
 5759SOL    HW117893   5.427   0.631   0.573 -0.5046  0.6798  0.3995
 5759SOL    HW217894   5.312   0.661   0.480  0.1759  0.3795 -0.5543
 5760SOL     OW17895   1.316   6.033   4.215  0.3576  0.0212 -0.2116
 5760SOL    HW117896   1.369   5.989   4.148  2.0414  0.1678  0.9559
 5760SOL    HW217897   1.379   6.087   4.263 -0.5227 -1.0423  2.2924
 5761SOL     OW17898   4.840   5.395   1.758  0.3638 -0.0939  0.1141
 5761SOL    HW117899   4.838   5.308   1.718 -0.4107  0.4151 -1.0240
 5761SOL    HW217900   4.778   5.390   1.831 -0.6619 -0.1569 -0.7342
 5762SOL     OW17901   3.724   1.247   3.278 -0.1670 -0.1215  0.3821
 5762SOL    HW117902   3.681   1.172   3.318 -0.9301 -0.0885 -0.3393
 5762SOL    HW217903   3.803   1.212   3.237  0.0266 -0.3392  0.9294
 5763SOL     OW17904   6.730   6.365   4.187  0.0720  0.0631  0.2932
 5763SOL    HW117905   6.669   6.392   4.255  0.8560 -0.2073  1.1373
 5763SOL    HW217906   6.703   6.275   4.165 -0.1217  0.1135  0.3246
 5764SOL     OW17907   4.709   5.165   4.623  0.0476 -0.3516 -0.3955
 5764SOL    HW117908   4.782   5.116   4.659  0.1600 -0.1398 -0.3337
 5764SOL    HW217909   4.750   5.237   4.574 -0.1332  0.1381  0.1685
 5765SOL     OW17910   3.969   0.833   3.606 -0.6121  0.0116  0.7275
 5765SOL    HW117911   4.005   0.764   3.550 -0.6067 -0.7320  1.6180
 5765SOL    HW217912   4.032   0.841   3.678 -1.2686  0.0230  1.3163
 5766SOL     OW17913   4.796   1.120   0.999  0.2543 -0.1715  0.1350
 5766SOL    HW117914   4.837   1.037   1.023 -1.9474 -1.7512 -1.2539
 5766SOL    HW217915   4.865   1.167   0.951  1.9365 -0.5842  2.0022
 5767SOL     OW17916   4.265   0.106   5.604  1.0855 -0.6642  0.4743
 5767SOL    HW117917   4.178   0.089   5.568  1.0468 -0.5576  0.5187
 5767SOL    HW217918   4.253   0.180   5.664  1.1162 -0.9546  0.8399
 5768SOL     OW17919   2.535   2.782   0.061 -0.0717  0.5425 -0.4992
 5768SOL    HW117920   2.605   2.733   0.019  0.4083  0.8784 -0.0994
 5768SOL    HW217921   2.475   2.805  -0.010  0.5921  0.8756 -0.9562
 5769SOL     OW17922   4.329   6.123   1.176  0.1195 -0.2251 -0.1204
 5769SOL    HW117923   4.420   6.094   1.182  0.6617  1.3671  0.0610
 5769SOL    HW217924   4.278   6.044   1.161  1.4148 -1.2843  0.9158
 5770SOL     OW17925   0.187   0.597   0.342 -0.2619 -0.0532 -0.4616
 5770SOL    HW117926   0.245   0.637   0.278 -0.4340 -0.2816 -0.7662
 5770SOL    HW217927   0.130   0.540   0.290  0.7931 -1.6765  0.0609
 5771SOL     OW17928   2.833   0.733   6.825  0.5749 -0.5367  0.7712
 5771SOL    HW117929   2.802   0.689   6.905  2.9452 -2.9944  0.4883
 5771SOL    HW217930   2.924   0.754   6.843  1.2729 -1.4714 -1.3616
 5772SOL     OW17931   4.361   0.742   5.598  0.2005  0.4461  0.2973
 5772SOL    HW117932   4.428   0.709   5.658  0.0317 -1.1027 -0.3201
 5772SOL    HW217933   4.389   0.831   5.577  2.0816 -0.1655  0.0544
 5773SOL     OW17934   0.327   2.182   3.582 -0.1849  0.7412 -0.8282
 5773SOL    HW117935   0.418   2.166   3.558 -0.3281  0.0786 -0.9472
 5773SOL    HW217936   0.324   2.274   3.607  0.8442  0.3982  0.6793
 5774SOL     OW17937   7.071   3.124   5.252 -0.1502  0.8816 -0.2429
 5774SOL    HW117938   7.086   3.217   5.238  0.1932  0.9693  0.6350
 5774SOL    HW217939   7.078   3.112   5.347  0.1762 -0.0990 -0.3734
 5775SOL     OW17940   6.470   2.284   6.376 -0.2907 -0.1884  0.4701
 5775SOL    HW117941   6.409   2.236   6.320 -0.0996 -1.4662  1.3163
 5775SOL    HW217942   6.534   2.320   6.316 -2.0914  1.6096 -0.5132
 5776SOL     OW17943   6.208   3.608   4.964  0.2366 -0.3264 -0.3792
 5776SOL    HW117944   6.127   3.556   4.958 -0.2875  0.5205 -0.8381
 5776SOL    HW217945   6.185   3.682   5.019  0.5236  0.2325 -0.9902
 5777SOL     OW17946   1.816   4.001   6.061  0.5133  0.1062 -0.0705
 5777SOL    HW117947   1.727   3.999   6.026  1.2359 -2.1824 -2.1472
 5777SOL    HW217948   1.831   3.911   6.092  1.5565  0.9001  1.8950
 5778SOL     OW17949   5.429   6.086   5.152  0.0496  0.0009  0.2113
 5778SOL    HW117950   5.504   6.139   5.180 -0.3583  1.5817 -1.5022
 5778SOL    HW217951   5.459   6.045   5.071 -0.6414 -0.0452 -0.0224
 5779SOL     OW17952   2.420   5.385   0.316 -0.5207  0.6288  0.4089
 5779SOL    HW117953   2.389   5.459   0.368 -0.7401  1.2211 -0.5624
 5779SOL    HW217954   2.485   5.343   0.373 -0.5866  1.3990  1.0800
 5780SOL     OW17955   6.801   4.795   2.449  0.1719  0.6195 -0.0410
 5780SOL    HW117956   6.889   4.758   2.448  0.1386  0.4991  0.7650
 5780SOL    HW217957   6.759   4.760   2.370  0.2139 -0.8812  0.5718
 5781SOL     OW17958   1.327   0.313   1.870  0.3998  0.1559 -0.2169
 5781SOL    HW117959   1.233   0.303   1.887  0.4432  1.0224  0.6421
 5781SOL    HW217960   1.358   0.224   1.853 -0.5634 -0.1455 -0.4630
 5782SOL     OW17961   1.205   6.364   5.615 -0.0855  0.5667  0.1422
 5782SOL    HW117962   1.202   6.413   5.533 -0.7343 -0.0443 -0.2073
 5782SOL    HW217963   1.120   6.321   5.621  0.9080 -1.5395 -0.1988
 5783SOL     OW17964   3.797   1.290   5.703  0.2363  0.4465  0.3749
 5783SOL    HW117965   3.798   1.341   5.784  1.5085  1.2439 -0.1282
 5783SOL    HW217966   3.873   1.232   5.710 -0.7412 -0.8537  0.5869
 5784SOL     OW17967   5.498   4.800   0.242 -0.4202 -0.1162  0.1886
 5784SOL    HW117968   5.570   4.837   0.190 -1.1057 -0.3522 -0.9570
 5784SOL    HW217969   5.484   4.865   0.311  0.0079  0.5848 -0.3634
 5785SOL     OW17970   5.069   5.768   6.824  0.1329 -0.3759  0.0356
 5785SOL    HW117971   4.994   5.738   6.877  0.2035 -1.8823 -0.6641
 5785SOL    HW217972   5.030   5.805   6.745  0.1152 -0.8448 -0.1756
 5786SOL     OW17973   2.140   1.722   4.891  0.1084 -0.2612 -0.4910
 5786SOL    HW117974   2.120   1.637   4.854 -2.7906  0.0919  0.0299
 5786SOL    HW217975   2.069   1.738   4.954  2.2319  1.2032  1.7261
 5787SOL     OW17976   6.013   3.629   4.619  0.1869 -0.1963 -0.0342
 5787SOL    HW117977   6.025   3.545   4.663  0.4391 -0.5488 -0.7641
 5787SOL    HW217978   5.924   3.657   4.644  0.0130 -0.7884  0.0215
 5788SOL     OW17979   3.002   5.881   6.240  0.3893  0.2506  0.1431
 5788SOL    HW117980   2.922   5.876   6.292  0.0657 -0.3521 -0.4019
 5788SOL    HW217981   3.006   5.973   6.212 -0.0997  0.2889  0.1877
 5789SOL     OW17982   3.141   4.226   1.664  0.0948  0.2068  0.4809
 5789SOL    HW117983   3.142   4.150   1.605 -0.9367  1.2290 -0.9152
 5789SOL    HW217984   3.085   4.199   1.737 -0.2520 -0.3881  0.0073
 5790SOL     OW17985   3.081   3.342   4.805  0.2117 -0.6125  0.1206
 5790SOL    HW117986   3.155   3.404   4.802  0.8155 -1.1311  2.1032
 5790SOL    HW217987   3.014   3.388   4.856  0.4053 -1.2878  1.0195
 5791SOL     OW17988   2.936   2.254   4.406  0.0857 -0.0491  0.4417
 5791SOL    HW117989   2.856   2.273   4.358  0.5955  1.6799  0.2208
 5791SOL    HW217990   2.945   2.159   4.400 -1.5759 -0.2054 -0.0952
 5792SOL     OW17991   6.686   6.239   0.431 -0.5904  0.1599  0.2965
 5792SOL    HW117992   6.602   6.202   0.402 -0.6045  1.0290 -0.8419
 5792SOL    HW217993   6.712   6.184   0.505 -2.4823  0.2697  1.0873
 5793SOL     OW17994   4.121   0.259   4.168 -0.0064  0.3754 -0.7141
 5793SOL    HW117995   4.135   0.199   4.240 -1.8536  2.2153  1.3438
 5793SOL    HW217996   4.026   0.255   4.152 -0.1116  2.3148 -0.8299
 5794SOL     OW17997   3.937   0.551   4.104  0.5159 -0.4101  0.0330
 5794SOL    HW117998   3.981   0.636   4.096 -0.4239  0.1156  0.1866
 5794SOL    HW217999   3.877   0.563   4.178  0.6931 -1.3632  0.3477
 5795SOL     OW18000   2.449   2.094   0.051 -0.4762  0.1849 -0.4273
 5795SOL    HW118001   2.390   2.169   0.046  0.5353  0.9939 -0.6438
 5795SOL    HW218002   2.530   2.130   0.087 -0.4728 -1.1313  0.9536
 5796SOL     OW18003   6.837   2.532   6.968 -0.3548  0.0287 -0.3180
 5796SOL    HW118004   6.846   2.624   6.991  0.5091 -0.1036 -0.0630
 5796SOL    HW218005   6.898   2.487   7.027  0.0813 -0.5796 -1.2111
 5797SOL     OW18006   4.051   5.041   5.487 -0.1061  0.1745  0.5859
 5797SOL    HW118007   4.074   4.972   5.550 -0.2047 -0.4360 -0.0366
 5797SOL    HW218008   3.962   5.067   5.511 -0.3972 -0.5258  0.2928
 5798SOL     OW18009   5.992   4.373   1.712 -0.0187 -0.0277  0.5494
 5798SOL    HW118010   5.955   4.313   1.777 -2.2625  0.3889 -0.2427
 5798SOL    HW218011   5.977   4.329   1.628  1.0074  0.3390  0.1616
 5799SOL     OW18012   3.247   1.104   5.484  0.0825 -0.2317 -0.5235
 5799SOL    HW118013   3.271   1.127   5.574  0.1063  0.3265 -0.6697
 5799SOL    HW218014   3.273   1.012   5.475  0.2399 -0.2405 -0.0180
 5800SOL     OW18015   3.324   0.116   5.391 -0.7800  0.5252 -0.2331
 5800SOL    HW118016   3.386   0.127   5.318 -0.4884 -0.7914 -0.2086
 5800SOL    HW218017   3.239   0.140   5.353 -0.6437 -0.2019 -1.0401
 5801SOL     OW18018   1.433   3.425   6.090 -0.1719 -0.3966 -0.0253
 5801SOL    HW118019   1.501   3.388   6.146 -1.0871 -0.4592  1.0804
 5801SOL    HW218020   1.450   3.519   6.091  1.0977 -0.5798 -1.4119
 5802SOL     OW18021   1.698   4.371   4.178 -0.5333 -0.1614 -0.3277
 5802SOL    HW118022   1.694   4.361   4.083 -0.1587 -1.9498 -0.2108
 5802SOL    HW218023   1.640   4.303   4.211  1.1652 -1.2014  0.7115
 5803SOL     OW18024   1.995   4.455   1.192  0.3318  0.4148  0.3021
 5803SOL    HW118025   2.068   4.467   1.252  0.6848  0.4368 -0.1226
 5803SOL    HW218026   2.034   4.463   1.105 -0.3036  1.1604  0.0714
 5804SOL     OW18027   5.556   0.261   1.836  0.1493 -0.0439  0.6914
 5804SOL    HW118028   5.482   0.228   1.886  0.8436 -0.6959  1.3152
 5804SOL    HW218029   5.616   0.297   1.901  0.8374 -0.4435  0.2954
 5805SOL     OW18030   2.444   3.692   5.702 -0.6226 -0.0178  0.6565
 5805SOL    HW118031   2.401   3.777   5.710 -1.9453 -0.7117  1.3066
 5805SOL    HW218032   2.377   3.629   5.730 -0.0173 -1.3615 -0.7863
 5806SOL     OW18033   1.747   0.241   3.712  0.1944 -0.4212 -0.6736
 5806SOL    HW118034   1.808   0.312   3.730  0.5671  0.1936 -3.8332
 5806SOL    HW218035   1.698   0.231   3.793  2.5862  0.9282  1.0758
 5807SOL     OW18036   0.540   0.516   1.161 -0.0800 -0.0587  0.0671
 5807SOL    HW118037   0.579   0.447   1.214  2.1349  1.0199 -0.0307
 5807SOL    HW218038   0.522   0.475   1.077 -0.4987 -0.9521  0.5812
 5808SOL     OW18039   3.029   7.061   3.902 -0.3341  0.0521  0.3101
 5808SOL    HW118040   3.116   7.027   3.883 -0.7195 -2.3156  2.2217
 5808SOL    HW218041   3.041   7.116   3.980 -0.2962  1.3068 -0.5569
 5809SOL     OW18042   4.033   6.229   1.101  0.0719 -0.0904  0.0977
 5809SOL    HW118043   4.073   6.143   1.102  0.3403  0.0306 -0.3536
 5809SOL    HW218044   4.075   6.276   1.174  0.8155  0.0636 -0.4201
 5810SOL     OW18045   5.102   1.497   0.784 -0.0050 -0.1900 -0.1459
 5810SOL    HW118046   5.054   1.514   0.703 -0.3522 -0.3920  0.0173
 5810SOL    HW218047   5.188   1.469   0.755 -0.0630 -0.0670 -0.4436
 5811SOL     OW18048   7.017   2.949   4.396  0.2116 -0.0035 -0.4877
 5811SOL    HW118049   6.947   2.945   4.461 -1.2865 -0.6781 -2.0526
 5811SOL    HW218050   7.089   2.993   4.440 -1.9445  2.7866  0.5232
 5812SOL     OW18051   0.011   3.846   1.059  0.4830 -0.1395  0.0578
 5812SOL    HW118052   0.072   3.772   1.063 -0.2922 -0.8830 -1.1912
 5812SOL    HW218053  -0.072   3.808   1.033  0.3786  1.3058 -2.0393
 5813SOL     OW18054   3.280   2.691   3.066 -0.1044 -0.2585 -0.0997
 5813SOL    HW118055   3.202   2.675   3.013 -0.6882 -1.2581  1.0228
 5813SOL    HW218056   3.350   2.704   3.002 -1.3119  1.5002 -1.1516
 5814SOL     OW18057   5.520   5.711   5.798 -0.9178  0.2239 -0.2796
 5814SOL    HW118058   5.534   5.751   5.712  1.0661  0.5862  0.1684
 5814SOL    HW218059   5.474   5.778   5.849 -0.0955  0.8846 -0.3887
 5815SOL     OW18060   0.646   4.687   3.064 -0.3985  0.3548 -0.0928
 5815SOL    HW118061   0.703   4.735   3.004  1.0443 -1.9366 -0.7029
 5815SOL    HW218062   0.670   4.719   3.151  1.3324 -0.0034 -0.3965
 5816SOL     OW18063   6.306   0.953   5.960  0.1401 -0.3211  0.0850
 5816SOL    HW118064   6.293   0.883   5.896  0.7596 -0.3196 -0.0523
 5816SOL    HW218065   6.239   0.938   6.026  0.6093 -1.3868  0.3476
 5817SOL     OW18066   1.438   2.650   7.209 -0.1087 -0.3494  0.0359
 5817SOL    HW118067   1.483   2.599   7.277 -0.0474 -1.0715 -0.5282
 5817SOL    HW218068   1.356   2.603   7.194 -0.0235 -0.3228 -0.5392
 5818SOL     OW18069   4.440   3.172   1.360  0.5469  0.4834  0.5960
 5818SOL    HW118070   4.425   3.085   1.397  0.3000  0.5462  0.6411
 5818SOL    HW218071   4.527   3.197   1.392  1.2917 -0.3824 -0.6232
 5819SOL     OW18072   0.120   6.715   5.586 -0.0071  0.0106  0.3870
 5819SOL    HW118073   0.161   6.796   5.616  0.6826  0.5832 -1.8554
 5819SOL    HW218074   0.153   6.647   5.644  1.6577  0.9395  0.5876
 5820SOL     OW18075   3.094   4.765   5.393  0.6263  0.3369 -0.6377
 5820SOL    HW118076   3.109   4.822   5.318 -1.8812  0.2714 -1.2927
 5820SOL    HW218077   3.105   4.823   5.469  0.7988  1.0276 -1.1814
 5821SOL     OW18078   4.347   0.303   2.809 -0.1513 -0.1153 -0.3555
 5821SOL    HW118079   4.329   0.346   2.893  0.6502 -1.0898  0.3495
 5821SOL    HW218080   4.273   0.326   2.753  0.0676  1.8398  0.1053
 5822SOL     OW18081   0.987   2.959   4.131  0.7651  0.1953 -0.4097
 5822SOL    HW118082   1.066   2.911   4.106  1.1629  0.8523 -0.4358
 5822SOL    HW218083   0.917   2.894   4.124  1.2855 -0.3727 -0.4704
 5823SOL     OW18084   1.666   0.620   5.634  0.3034  0.2824  0.0058
 5823SOL    HW118085   1.570   0.613   5.628  0.2590  0.5486  0.3389
 5823SOL    HW218086   1.699   0.544   5.586 -0.0678  0.4793 -0.5676
 5824SOL     OW18087   5.232   0.967   2.963  0.4931 -0.5352 -0.0190
 5824SOL    HW118088   5.273   1.053   2.963 -1.2480  0.3181 -1.1311
 5824SOL    HW218089   5.146   0.981   3.002 -0.3809 -1.4628 -1.5365
 5825SOL     OW18090   4.311   4.385   4.260 -0.1767 -0.0293  0.2097
 5825SOL    HW118091   4.392   4.351   4.298 -1.3552 -3.0184  0.3344
 5825SOL    HW218092   4.276   4.443   4.328  1.5676  0.9325  0.3529
 5826SOL     OW18093   6.456   2.330   0.178  0.6481  0.2419  0.3281
 5826SOL    HW118094   6.446   2.333   0.083  1.7291 -1.3076  0.1160
 5826SOL    HW218095   6.531   2.386   0.196  1.1273 -0.3267  0.1264
 5827SOL     OW18096   6.175   2.761   5.433 -0.2412 -0.6480 -0.5075
 5827SOL    HW118097   6.148   2.791   5.346  1.0741 -0.8176 -1.0035
 5827SOL    HW218098   6.270   2.776   5.435 -0.2971 -0.3578  1.0252
 5828SOL     OW18099   0.382   0.122   3.309  0.5027  0.0236 -0.5801
 5828SOL    HW118100   0.395   0.028   3.302  0.4461 -0.1061  0.7335
 5828SOL    HW218101   0.305   0.140   3.255 -0.3946 -0.9413  0.3273
 5829SOL     OW18102   1.964   4.458   5.776 -0.0357  0.1404 -0.4457
 5829SOL    HW118103   2.009   4.515   5.838 -0.5894  0.2778 -0.1570
 5829SOL    HW218104   1.873   4.488   5.778 -0.0048  0.3312 -1.5408
 5830SOL     OW18105   1.682   5.028   7.215  0.1986 -0.4307  0.4376
 5830SOL    HW118106   1.616   5.013   7.283  0.9363 -1.9327  0.8693
 5830SOL    HW218107   1.704   5.121   7.222 -0.5448 -0.3178  1.4952
 5831SOL     OW18108   0.832   2.484   7.238  0.3710  0.2829  0.1960
 5831SOL    HW118109   0.774   2.409   7.227  1.3692 -0.2301 -2.0909
 5831SOL    HW218110   0.773   2.560   7.236 -0.3529 -0.2802 -1.0783
 5832SOL     OW18111   3.103   2.695   7.103  0.2288 -0.5860 -0.4377
 5832SOL    HW118112   3.184   2.656   7.137 -0.2942  0.7020  2.5721
 5832SOL    HW218113   3.050   2.620   7.076  1.1498 -1.6672  0.6368
 5833SOL     OW18114   7.043   4.785   0.398  0.1758 -0.5324  0.7566
 5833SOL    HW118115   7.060   4.777   0.492  1.1250 -0.1375  0.6310
 5833SOL    HW218116   7.126   4.816   0.362  0.0114 -1.2877 -0.2997
 5834SOL     OW18117   0.004   1.453   0.560 -0.0022 -0.0379 -0.5658
 5834SOL    HW118118   0.039   1.460   0.472 -0.9659 -0.9665 -1.0565
 5834SOL    HW218119  -0.075   1.399   0.550 -0.1286 -0.1666  0.8581
 5835SOL     OW18120   0.172   5.221   5.639  0.1438  0.0837  0.4154
 5835SOL    HW118121   0.186   5.136   5.598  0.3475 -0.4700  1.5640
 5835SOL    HW218122   0.128   5.274   5.573 -2.6657 -1.8347  0.5805
 5836SOL     OW18123   6.089   3.359   3.796  0.1251  0.0884  0.4041
 5836SOL    HW118124   6.007   3.340   3.750 -0.2645 -0.0648  1.1474
 5836SOL    HW218125   6.061   3.391   3.882  0.8502 -0.0914  0.7106
 5837SOL     OW18126   1.978   5.511   0.207  0.5346  0.7056 -0.2777
 5837SOL    HW118127   2.003   5.597   0.240  0.6569  0.8096 -0.6334
 5837SOL    HW218128   2.038   5.450   0.250 -0.4210  0.6310  1.0239
 5838SOL     OW18129   0.422   0.548   5.123 -0.4117  0.0580 -0.0965
 5838SOL    HW118130   0.378   0.508   5.198 -0.8562  0.1465 -0.3130
 5838SOL    HW218131   0.374   0.628   5.106  0.0479  0.3354 -0.1146
 5839SOL     OW18132   5.245   2.105   0.352 -0.5009 -0.5192 -0.0042
 5839SOL    HW118133   5.267   2.193   0.381  0.9864 -1.0254  0.4722
 5839SOL    HW218134   5.264   2.049   0.427  1.3172 -1.5903 -1.2007
 5840SOL     OW18135   4.720   7.181   6.037  0.4883 -0.2964 -0.4286
 5840SOL    HW118136   4.751   7.099   5.999 -0.3336 -0.7206 -0.1906
 5840SOL    HW218137   4.625   7.172   6.041  0.4299  0.4451  0.1125
 5841SOL     OW18138   0.148   6.687   2.231 -0.1383  0.5445 -0.3055
 5841SOL    HW118139   0.222   6.670   2.172  0.3034  2.3774 -0.3358
 5841SOL    HW218140   0.186   6.680   2.319 -0.0416  0.9692 -0.3113
 5842SOL     OW18141   4.645   3.286   4.367  0.5211 -0.3672  0.1526
 5842SOL    HW118142   4.579   3.228   4.404  0.7087 -0.1164  0.8982
 5842SOL    HW218143   4.677   3.336   4.442  0.0610  1.0024 -0.5419
 5843SOL     OW18144   6.770   0.382   5.450 -0.0617  0.6958  0.1107
 5843SOL    HW118145   6.716   0.448   5.492  0.2189  0.3639  1.0161
 5843SOL    HW218146   6.716   0.347   5.379  0.9152  4.1540 -2.5917
 5844SOL     OW18147   4.614   3.958   4.048  0.0421 -0.2459 -0.1364
 5844SOL    HW118148   4.590   4.030   4.107 -1.5461 -0.2370 -0.7661
 5844SOL    HW218149   4.566   3.883   4.081 -0.1149 -0.4679 -0.8600
 5845SOL     OW18150   2.043   0.395   5.831  0.5521 -0.3311  0.5397
 5845SOL    HW118151   2.049   0.434   5.918 -1.3690 -1.8032  1.4146
 5845SOL    HW218152   2.023   0.303   5.847 -2.2148 -0.2055 -1.3869
 5846SOL     OW18153   3.604   4.427   1.268  0.3285  0.0115 -0.0449
 5846SOL    HW118154   3.598   4.509   1.219  0.2227  0.3600  0.5446
 5846SOL    HW218155   3.548   4.367   1.220 -0.7623  0.6992  0.3255
 5847SOL     OW18156   2.626   0.860   5.350 -0.3552  0.0579  0.3386
 5847SOL    HW118157   2.687   0.896   5.285  1.5806 -2.3531  0.6402
 5847SOL    HW218158   2.596   0.936   5.400  1.4598  1.4989 -0.6217
 5848SOL     OW18159   2.306   6.373   5.906 -0.2227  0.6494  0.3357
 5848SOL    HW118160   2.298   6.467   5.924  0.9852  0.1920  4.3190
 5848SOL    HW218161   2.396   6.362   5.875 -0.6878  0.8876 -1.1359
 5849SOL     OW18162   1.351   2.366   2.236  0.0301  0.1228 -0.2342
 5849SOL    HW118163   1.286   2.302   2.209 -2.1539  2.3468 -0.5322
 5849SOL    HW218164   1.420   2.360   2.170  0.3066 -2.3656  0.1643
 5850SOL     OW18165   0.936   5.970   5.092 -0.8627 -0.2142 -0.0910
 5850SOL    HW118166   0.965   6.025   5.020 -1.8972 -0.5460 -0.7972
 5850SOL    HW218167   1.016   5.933   5.128 -0.3828 -2.7065 -3.2341
 5851SOL     OW18168   2.543   3.720   6.326  0.3745  0.2219  0.6750
 5851SOL    HW118169   2.565   3.762   6.243 -1.5760  1.7550  0.8609
 5851SOL    HW218170   2.560   3.786   6.392 -2.2515  0.6606  1.0210
 5852SOL     OW18171   4.161   1.891   2.171 -0.5677  0.2297  0.0361
 5852SOL    HW118172   4.235   1.951   2.161 -1.1050  0.8557 -0.3171
 5852SOL    HW218173   4.201   1.805   2.187  0.2002  0.8264  1.4696
 5853SOL     OW18174   3.933   3.456   3.481 -0.3201  0.2728  0.1735
 5853SOL    HW118175   3.852   3.405   3.485 -0.7602  1.0151  1.0237
 5853SOL    HW218176   3.905   3.544   3.459  0.0212  0.9876  2.3715
 5854SOL     OW18177   2.121   0.177   0.978  0.2974  0.2991 -0.1166
 5854SOL    HW118178   2.075   0.112   1.032  1.2559  0.2343  0.6456
 5854SOL    HW218179   2.200   0.131   0.947 -0.0104  0.4792 -1.2177
 5855SOL     OW18180   5.114   7.241   5.443  0.7202  0.3871 -0.7660
 5855SOL    HW118181   5.193   7.243   5.498  1.3049  0.8054 -1.6031
 5855SOL    HW218182   5.075   7.328   5.453 -0.1590 -0.1009  0.3549
 5856SOL     OW18183   1.048   2.136   0.607 -0.4983  0.0026  0.3887
 5856SOL    HW118184   1.067   2.196   0.535 -1.0403  1.0760  1.1056
 5856SOL    HW218185   1.023   2.055   0.565  1.4661 -0.1442 -0.5991
 5857SOL     OW18186   0.468   1.109   1.421  0.2841 -0.0176 -0.5847
 5857SOL    HW118187   0.384   1.147   1.396 -1.0850 -2.3587  0.0781
 5857SOL    HW218188   0.464   1.103   1.516  0.9189 -0.7063 -0.5938
 5858SOL     OW18189   0.071   3.182   1.129 -0.3700  0.3566  0.4242
 5858SOL    HW118190   0.066   3.173   1.224 -0.2673  0.8094  0.4742
 5858SOL    HW218191   0.159   3.152   1.106 -0.6724 -0.5274  0.3758
 5859SOL     OW18192   4.021   3.878   2.189 -0.3889  0.1340  0.2711
 5859SOL    HW118193   3.953   3.929   2.145  0.2585 -0.3353 -1.3514
 5859SOL    HW218194   4.003   3.890   2.282 -1.4955  1.6236 -0.0862
 5860SOL     OW18195   5.224   1.533   2.065 -0.4214  0.0210  0.0233
 5860SOL    HW118196   5.272   1.452   2.087  1.2790  1.2306  1.0492
 5860SOL    HW218197   5.202   1.571   2.150  1.7648  2.2660 -0.2986
 5861SOL     OW18198   3.877   2.194   1.950  0.1688  0.0510 -0.4700
 5861SOL    HW118199   3.897   2.116   1.898 -0.4707 -0.1829 -0.3844
 5861SOL    HW218200   3.904   2.171   2.039  0.2927  0.0529 -0.5071
 5862SOL     OW18201   5.180   0.064   6.461  0.8814 -0.2202 -0.0876
 5862SOL    HW118202   5.194   0.032   6.372  0.6391 -0.4409 -0.0458
 5862SOL    HW218203   5.219  -0.004   6.516  1.2302  0.0218 -0.0302
 5863SOL     OW18204   3.899   2.012   7.162  0.1396 -0.5147 -0.0869
 5863SOL    HW118205   3.833   1.946   7.180 -1.2050  1.0469  1.0786
 5863SOL    HW218206   3.861   2.066   7.092  1.0933 -0.7705 -0.8327
 5864SOL     OW18207   5.454   3.685   1.070 -0.7736  0.0867  0.0843
 5864SOL    HW118208   5.397   3.758   1.093 -0.5584  0.7099 -1.2331
 5864SOL    HW218209   5.413   3.648   0.991 -0.5518 -0.8483  0.3987
 5865SOL     OW18210   4.192   2.633   2.655  0.1381 -0.4857 -0.3122
 5865SOL    HW118211   4.279   2.669   2.670 -0.2645 -0.3161  1.9112
 5865SOL    HW218212   4.207   2.556   2.600  1.5151  0.3589 -1.1759
 5866SOL     OW18213   3.638   5.923   3.492  0.7031 -0.0730 -0.2657
 5866SOL    HW118214   3.711   5.983   3.473 -0.3013  0.9010 -1.2401
 5866SOL    HW218215   3.602   5.902   3.406 -0.4159 -0.2021  0.2215
 5867SOL     OW18216   1.687   6.037   2.504 -0.2047  0.3444  0.4054
 5867SOL    HW118217   1.612   6.087   2.471  0.5433  1.6269  0.5865
 5867SOL    HW218218   1.733   6.099   2.562  0.4758 -0.7219  1.0305
 5868SOL     OW18219   5.025   7.198   6.658 -0.4466  0.6577 -0.2084
 5868SOL    HW118220   4.937   7.237   6.660  0.0269  1.7676 -0.2314
 5868SOL    HW218221   5.069   7.243   6.585  0.3342  0.5496  0.1873
 5869SOL     OW18222   0.939   0.214   1.994 -0.4157  0.4738 -0.7547
 5869SOL    HW118223   0.940   0.169   2.079 -0.4311 -0.5821 -1.2877
 5869SOL    HW218224   0.939   0.307   2.016 -1.7612  0.2447  0.4263
 5870SOL     OW18225   2.200   6.734   2.450 -0.0164 -0.1481 -0.1322
 5870SOL    HW118226   2.159   6.684   2.380 -0.5851 -1.1287  0.8584
 5870SOL    HW218227   2.179   6.825   2.430 -2.3075 -0.5693  0.0570
 5871SOL     OW18228   4.768   0.829   5.023  0.0281 -0.0032 -0.3228
 5871SOL    HW118229   4.696   0.769   5.002 -1.1138  1.5657 -1.1165
 5871SOL    HW218230   4.843   0.794   4.976 -0.5265 -0.9990 -0.4932
 5872SOL     OW18231   3.737   5.938   0.203 -0.0233  0.1005 -0.1234
 5872SOL    HW118232   3.663   5.975   0.155  0.3426  0.4091 -0.4554
 5872SOL    HW218233   3.716   5.844   0.210 -0.8766  0.3363  0.5956
 5873SOL     OW18234   1.741   1.362   5.153 -0.1300  0.0648 -0.1748
 5873SOL    HW118235   1.801   1.401   5.216 -0.1147 -0.2049 -0.0196
 5873SOL    HW218236   1.773   1.390   5.067 -0.7126  1.2358 -0.0321
 5874SOL     OW18237   1.402   2.886   1.109 -0.1257 -0.5103 -0.0435
 5874SOL    HW118238   1.432   2.815   1.052  0.8896 -0.1430  0.0133
 5874SOL    HW218239   1.313   2.905   1.079 -1.0561 -2.8425  0.9388
 5875SOL     OW18240   2.973   6.339   4.185  0.0958  0.0137  0.2136
 5875SOL    HW118241   2.984   6.264   4.127  0.5284 -0.4118  0.8319
 5875SOL    HW218242   2.999   6.414   4.132 -2.5860  0.0661 -1.1994
 5876SOL     OW18243   4.655   2.708   2.425  0.1247  0.1158 -0.3472
 5876SOL    HW118244   4.700   2.636   2.470  0.1767 -0.9325 -1.9920
 5876SOL    HW218245   4.716   2.781   2.430  0.4373 -0.1890  0.6123
 5877SOL     OW18246   1.792   6.485   4.359  0.5510  0.0097  0.5781
 5877SOL    HW118247   1.741   6.466   4.280  1.4611 -1.1049  0.2212
 5877SOL    HW218248   1.822   6.575   4.348  2.4392 -0.7967 -1.4120
 5878SOL     OW18249   6.751   1.259   0.671 -0.6896 -0.0923  0.0621
 5878SOL    HW118250   6.776   1.176   0.713  0.0445  0.0739 -0.0293
 5878SOL    HW218251   6.763   1.325   0.739  2.4117  0.4660 -0.8735
 5879SOL     OW18252   6.624   4.508   5.015 -0.3631 -0.2104  0.0382
 5879SOL    HW118253   6.619   4.588   5.069  0.6003  0.9136 -1.4580
 5879SOL    HW218254   6.533   4.479   5.008 -0.9268  1.5347 -0.4911
 5880SOL     OW18255   0.249   5.999   0.914  0.0621 -0.0343  0.0364
 5880SOL    HW118256   0.247   6.087   0.953 -0.2935 -0.4672  1.0156
 5880SOL    HW218257   0.271   6.015   0.822  0.6198  1.0334  0.3341
 5881SOL     OW18258   0.728   1.784   1.749 -0.0325  0.1636 -0.4434
 5881SOL    HW118259   0.793   1.818   1.809  0.8710 -0.4880 -1.0235
 5881SOL    HW218260   0.751   1.822   1.664 -1.4152  1.2446 -0.3845
 5882SOL     OW18261   4.444   6.606   6.575 -0.1470  0.0779  0.2829
 5882SOL    HW118262   4.384   6.675   6.603  0.6208  0.0179  2.2689
 5882SOL    HW218263   4.514   6.652   6.528 -0.2935  0.4957  0.4723
 5883SOL     OW18264   2.293   6.797   2.143  0.8371  0.0431 -0.3978
 5883SOL    HW118265   2.382   6.797   2.177  0.8163 -0.4618 -0.3372
 5883SOL    HW218266   2.258   6.883   2.166  0.6905 -0.4134  1.1896
 5884SOL     OW18267   2.043   4.390   3.986 -0.3817 -0.4779  0.4463
 5884SOL    HW118268   2.064   4.354   4.072  0.0229 -1.3921 -0.0191
 5884SOL    HW218269   2.119   4.444   3.964  0.1730 -1.3882  0.0604
 5885SOL     OW18270   4.847   4.946   0.749  0.2348 -0.5994  0.4618
 5885SOL    HW118271   4.841   4.951   0.653 -0.8344 -1.1152  0.4829
 5885SOL    HW218272   4.907   5.016   0.773 -0.8150  0.6830 -0.4775
 5886SOL     OW18273   4.497   3.967   2.422  0.1420 -0.1625  0.0122
 5886SOL    HW118274   4.403   3.970   2.403 -0.3462 -1.4374  1.9510
 5886SOL    HW218275   4.502   3.956   2.517  2.2313 -1.0177 -0.1454
 5887SOL     OW18276   0.105   4.217   3.071  0.4561  0.0554 -0.0947
 5887SOL    HW118277   0.110   4.303   3.111 -2.5658 -0.3354  1.4101
 5887SOL    HW218278   0.108   4.156   3.145 -3.5596 -0.7551 -0.3881
 5888SOL     OW18279   2.686   1.980   5.347  0.0097  0.2030 -0.1827
 5888SOL    HW118280   2.723   1.920   5.411 -0.0375  0.1087 -0.2430
 5888SOL    HW218281   2.744   2.056   5.349 -1.4732  1.3666  1.9196
 5889SOL     OW18282   4.971   2.693   4.724  0.1005  0.3590 -0.2242
 5889SOL    HW118283   4.880   2.719   4.711  0.2377  1.5054  0.8967
 5889SOL    HW218284   5.015   2.716   4.642 -0.1652  2.0674  0.0827
 5890SOL     OW18285   0.841   4.166   5.694 -0.0442 -0.1127 -0.5517
 5890SOL    HW118286   0.920   4.126   5.658 -0.2493 -0.3958 -0.6865
 5890SOL    HW218287   0.778   4.164   5.622  0.2338  1.3059 -0.8763
 5891SOL     OW18288   5.988   2.611   3.708 -0.0074  0.0651  0.4463
 5891SOL    HW118289   6.009   2.702   3.730  1.1077 -0.6912  2.7984
 5891SOL    HW218290   6.073   2.568   3.698 -0.5170 -0.7377 -0.7624
 5892SOL     OW18291   5.686   6.794   4.202 -0.1648  0.0939 -0.5631
 5892SOL    HW118292   5.731   6.817   4.121  0.6105 -0.3251 -0.2597
 5892SOL    HW218293   5.681   6.698   4.201  0.0569  0.0730 -0.0125
 5893SOL     OW18294   3.199   7.031   6.750  0.1610 -0.2445 -0.1711
 5893SOL    HW118295   3.255   7.060   6.821  2.3487  0.0381 -1.9136
 5893SOL    HW218296   3.259   7.003   6.681 -1.8587 -1.7656 -1.4419
 5894SOL     OW18297   1.468   4.272   2.362 -0.1960 -0.2470 -0.4682
 5894SOL    HW118298   1.468   4.196   2.420 -4.1735  0.1188  0.2569
 5894SOL    HW218299   1.455   4.347   2.421 -0.6796  0.5290 -1.5319
 5895SOL     OW18300   0.360   3.415   3.366  0.7153  0.4352 -0.5636
 5895SOL    HW118301   0.286   3.476   3.367 -1.0481 -1.5862  0.1671
 5895SOL    HW218302   0.369   3.387   3.457  0.4527 -1.4874 -1.0795
 5896SOL     OW18303   3.310   3.358   2.943 -0.1381  0.1237  0.1621
 5896SOL    HW118304   3.233   3.301   2.938  0.2704 -0.4448  0.2974
 5896SOL    HW218305   3.376   3.306   2.989  1.2023 -0.3773 -2.1905
 5897SOL     OW18306   0.185   3.749   5.988 -0.4293 -0.2984 -0.1705
 5897SOL    HW118307   0.196   3.757   5.893 -0.9190  1.2699 -0.1149
 5897SOL    HW218308   0.178   3.839   6.019  0.3218 -0.7578  1.4409
 5898SOL     OW18309   1.252   7.201   3.072 -0.2156  0.0622  0.1640
 5898SOL    HW118310   1.341   7.207   3.040  0.2662  0.0243  1.4261
 5898SOL    HW218311   1.235   7.107   3.079 -0.0897  0.0708  0.6088
 5899SOL     OW18312   0.945   6.139   4.101  0.2755 -0.0865  0.2574
 5899SOL    HW118313   0.922   6.106   4.188  1.0499  0.2044  0.5767
 5899SOL    HW218314   0.899   6.080   4.041  0.4835 -0.8692  0.8450
 5900SOL     OW18315   5.256   2.234   2.593  0.7766 -0.4837 -0.2493
 5900SOL    HW118316   5.298   2.319   2.579 -0.0850 -0.0668 -0.3943
 5900SOL    HW218317   5.181   2.235   2.534  1.6680 -2.0313 -1.4533
 5901SOL     OW18318   5.474   3.942   2.531  0.0737  0.2969  0.3896
 5901SOL    HW118319   5.472   4.023   2.582  2.4258  0.7565 -0.1046
 5901SOL    HW218320   5.538   3.887   2.577 -0.1143 -0.5268 -0.3076
 5902SOL     OW18321   6.496   6.641   5.633 -0.0661  0.0517 -0.0086
 5902SOL    HW118322   6.487   6.701   5.558 -1.1799  0.4087  0.3990
 5902SOL    HW218323   6.576   6.671   5.677  0.4107  0.0529 -0.8543
 5903SOL     OW18324   2.829   1.409   3.794 -0.1867  0.2339  0.0134
 5903SOL    HW118325   2.791   1.408   3.706 -1.2815  2.0693  0.4153
 5903SOL    HW218326   2.895   1.478   3.792  2.2425 -1.9463 -0.2463
 5904SOL     OW18327   0.934   7.040   6.110 -0.4738 -0.1799 -0.4008
 5904SOL    HW118328   0.931   6.946   6.130 -0.5919 -0.0669  0.1075
 5904SOL    HW218329   0.942   7.043   6.015  3.2278 -0.8029 -0.2767
 5905SOL     OW18330   0.400   6.586   1.273 -0.3939 -0.3449  0.2983
 5905SOL    HW118331   0.479   6.533   1.264  0.0644  0.4921 -0.9103
 5905SOL    HW218332   0.336   6.542   1.218 -0.2174 -0.0411 -0.1587
 5906SOL     OW18333   5.708   5.390   3.691  0.2104  0.2729 -0.2775
 5906SOL    HW118334   5.789   5.342   3.708 -0.6067 -0.8355  0.6880
 5906SOL    HW218335   5.724   5.477   3.727  0.7912 -0.1148  0.4510
 5907SOL     OW18336   1.688   3.170   2.866 -0.2046  0.1022  0.0891
 5907SOL    HW118337   1.723   3.148   2.953 -0.8870 -1.2917  0.0314
 5907SOL    HW218338   1.618   3.232   2.885 -0.5046 -0.3671  0.5714
 5908SOL     OW18339   1.797   0.845   5.502 -0.0469 -0.7285 -0.0244
 5908SOL    HW118340   1.727   0.787   5.532 -2.5296  1.7232 -0.5933
 5908SOL    HW218341   1.824   0.807   5.418 -0.6998 -1.7519  0.2002
 5909SOL     OW18342   4.807   0.224   0.194 -0.0607 -0.0023  0.0725
 5909SOL    HW118343   4.805   0.151   0.133  2.1430 -1.0198  1.1007
 5909SOL    HW218344   4.720   0.224   0.234  0.3464 -3.2831  1.3268
 5910SOL     OW18345   5.967   7.221   5.351  0.1475 -0.5770  0.5021
 5910SOL    HW118346   5.878   7.236   5.384 -0.2494 -0.1456 -0.7201
 5910SOL    HW218347   5.977   7.126   5.352 -0.5731 -0.6721  0.0662
 5911SOL     OW18348   2.484   0.063   4.687 -0.1705 -0.2341 -0.4152
 5911SOL    HW118349   2.445   0.053   4.600 -0.1260  0.4218 -0.5176
 5911SOL    HW218350   2.522   0.151   4.686  1.8932 -1.0936 -0.5326
 5912SOL     OW18351   1.119   5.594   3.522  0.1574 -0.5751  0.0431
 5912SOL    HW118352   1.099   5.676   3.476 -0.0562 -1.0725 -0.7695
 5912SOL    HW218353   1.212   5.580   3.504  0.6597  0.3958  1.6727
 5913SOL     OW18354   2.087   0.311   2.232  0.0700  0.3228  0.7297
 5913SOL    HW118355   2.161   0.252   2.247 -0.8025 -0.6818  1.3577
 5913SOL    HW218356   2.031   0.264   2.170 -0.7844  0.3326  1.4605
 5914SOL     OW18357   6.075   5.967   5.710 -0.4273 -0.3196 -0.4357
 5914SOL    HW118358   6.004   5.937   5.768 -1.4993  0.4920 -1.2868
 5914SOL    HW218359   6.036   5.964   5.622  1.0662 -1.2205 -1.1066
 5915SOL     OW18360   4.362   1.323   1.419 -0.1261  0.0768 -0.8147
 5915SOL    HW118361   4.281   1.363   1.450 -0.7802  0.1131 -2.4480
 5915SOL    HW218362   4.411   1.301   1.498 -0.8724  1.8005  0.1759
 5916SOL     OW18363   0.314   0.555   4.599 -0.3811 -0.1168  0.1065
 5916SOL    HW118364   0.350   0.473   4.633 -1.0987 -0.6029 -0.2686
 5916SOL    HW218365   0.227   0.531   4.566 -0.4807  0.7352 -0.2847
 5917SOL     OW18366   0.040   4.119   2.288  0.0464  0.0297 -0.3940
 5917SOL    HW118367   0.077   4.099   2.202  1.4992 -2.0134  0.6470
 5917SOL    HW218368  -0.052   4.092   2.281 -0.6396  2.4039 -2.0633
 5918SOL     OW18369   6.566   5.264   1.831 -0.3575  0.0911  0.2994
 5918SOL    HW118370   6.515   5.312   1.895  0.8806  0.1526  1.2958
 5918SOL    HW218371   6.534   5.174   1.836 -1.5703  0.4627 -0.4063
 5919SOL     OW18372   4.517   1.288   0.116  0.1395 -0.1637 -0.3344
 5919SOL    HW118373   4.469   1.371   0.109 -2.1195 -1.3700 -0.0105
 5919SOL    HW218374   4.451   1.220   0.103  1.4914 -1.9798  1.5152
 5920SOL     OW18375   2.785   6.250   3.639 -0.3991 -0.4308 -0.2411
 5920SOL    HW118376   2.761   6.338   3.608  1.5403 -0.6337 -2.5735
 5920SOL    HW218377   2.747   6.191   3.574  0.5360 -1.1391 -0.1648
 5921SOL     OW18378   5.000   1.569   3.966  0.8886  0.2079 -0.6740
 5921SOL    HW118379   5.001   1.610   4.052  0.5369 -1.3063  0.0779
 5921SOL    HW218380   5.022   1.477   3.982 -1.9309 -0.7683 -1.8248
 5922SOL     OW18381   0.038   4.110   4.445  0.0488 -0.2821 -0.1931
 5922SOL    HW118382  -0.025   4.044   4.415 -1.8644  1.2165  0.2761
 5922SOL    HW218383   0.041   4.175   4.374 -0.8933  0.8991  0.7962
 5923SOL     OW18384   1.297   5.055   3.243 -0.0361  0.0603 -0.0266
 5923SOL    HW118385   1.334   5.105   3.316 -2.1955  1.5023  0.1633
 5923SOL    HW218386   1.349   5.081   3.167  0.4738  0.6570  0.5186
 5924SOL     OW18387   0.507   0.937   2.992 -0.3582  0.0860 -0.2049
 5924SOL    HW118388   0.486   0.986   2.912  1.8259  1.4770 -0.0324
 5924SOL    HW218389   0.496   1.001   3.062  2.2802  0.3610  0.0587
 5925SOL     OW18390   1.783   4.986   4.823  0.0184 -0.3400  0.1435
 5925SOL    HW118391   1.798   5.021   4.911  0.1559  0.6559 -0.2541
 5925SOL    HW218392   1.810   4.895   4.828  0.2870 -0.2189  1.0672
 5926SOL     OW18393   5.852   0.600   5.454 -0.3204  0.1279  0.5395
 5926SOL    HW118394   5.804   0.527   5.495  2.1573 -2.3011 -0.5273
 5926SOL    HW218395   5.796   0.627   5.381 -0.4480 -2.2279 -0.3457
 5927SOL     OW18396   1.076   4.837   1.537  0.6192 -0.2819  0.4039
 5927SOL    HW118397   0.991   4.856   1.497  0.7264 -1.0005 -0.1924
 5927SOL    HW218398   1.107   4.921   1.570  0.2571  0.2245 -0.5279
 5928SOL     OW18399   5.272   4.530   6.141  0.3658  0.2569  0.5305
 5928SOL    HW118400   5.197   4.590   6.139 -0.6686 -0.9753  0.9081
 5928SOL    HW218401   5.339   4.576   6.192 -0.7055  0.7386  1.5399
 5929SOL     OW18402   2.852   3.292   4.311 -0.3814 -0.3739 -0.0199
 5929SOL    HW118403   2.786   3.355   4.282 -0.4599 -0.8085 -0.7915
 5929SOL    HW218404   2.856   3.304   4.406  0.3090  1.4855 -0.2327
 5930SOL     OW18405   1.245   4.874   0.363 -0.2686  0.0401  0.6159
 5930SOL    HW118406   1.302   4.950   0.364  0.4798 -0.4425 -1.0898
 5930SOL    HW218407   1.305   4.799   0.356 -1.0621 -0.4732 -1.3580
 5931SOL     OW18408   3.995   4.938   6.317 -0.4971  0.0954 -0.0093
 5931SOL    HW118409   4.018   4.916   6.408  1.6081  0.7284 -0.3393
 5931SOL    HW218410   3.915   4.990   6.325 -0.7692 -0.4825  1.4108
 5932SOL     OW18411   6.776   3.981   2.302 -0.2180  0.0121 -0.1853
 5932SOL    HW118412   6.694   4.016   2.336 -0.6951  0.7080 -1.9235
 5932SOL    HW218413   6.817   4.055   2.257  0.1738 -0.8945 -1.3958
 5933SOL     OW18414   6.728   5.909   2.355 -0.3325 -0.0879  0.0196
 5933SOL    HW118415   6.688   5.994   2.337 -0.2325 -0.4321 -2.0402
 5933SOL    HW218416   6.655   5.846   2.350  0.0943 -0.5110 -2.1004
 5934SOL     OW18417   5.465   1.356   2.727 -0.1149  0.8931 -0.0482
 5934SOL    HW118418   5.496   1.392   2.644  2.3340  2.2889  1.3627
 5934SOL    HW218419   5.442   1.432   2.780 -0.1661  0.1231  1.0811
 5935SOL     OW18420   2.031   3.318   5.664  0.4048  0.5765  0.1437
 5935SOL    HW118421   2.109   3.364   5.633  0.8540  0.7344  1.4397
 5935SOL    HW218422   2.064   3.241   5.708 -0.3160 -0.6551 -1.3713
 5936SOL     OW18423   7.219   4.007   6.678 -0.3281 -0.2723 -0.9272
 5936SOL    HW118424   7.234   4.099   6.654 -0.9778 -0.1127 -0.7474
 5936SOL    HW218425   7.168   4.012   6.759 -0.6523 -0.7890 -1.0990
 5937SOL     OW18426   1.729   0.242   6.432 -0.5283 -0.0251 -0.3951
 5937SOL    HW118427   1.683   0.297   6.369 -1.7836 -0.6619 -0.0725
 5937SOL    HW218428   1.688   0.262   6.516  0.0855 -0.3030 -0.0167
 5938SOL     OW18429   0.038   5.517   2.056 -0.1958  0.1146  0.2247
 5938SOL    HW118430   0.000   5.535   2.142 -0.9093  0.6992 -0.2055
 5938SOL    HW218431   0.006   5.587   2.000  0.9306  0.2100 -0.3366
 5939SOL     OW18432   7.227   4.974   1.270  0.2724 -0.1826  0.3699
 5939SOL    HW118433   7.293   5.043   1.263  0.2890 -0.3132 -1.1417
 5939SOL    HW218434   7.183   4.973   1.184 -1.0632 -0.7298  1.0234
 5940SOL     OW18435   0.488   3.299   2.931 -0.5339 -0.5431  0.0016
 5940SOL    HW118436   0.508   3.389   2.959 -1.6155 -0.5115  0.7309
 5940SOL    HW218437   0.404   3.307   2.886 -1.5119 -1.4410  1.6058
 5941SOL     OW18438   1.821   1.934   5.579 -0.1193 -0.1590  1.0265
 5941SOL    HW118439   1.735   1.968   5.552  0.1136  0.3522  0.9142
 5941SOL    HW218440   1.882   2.005   5.558  0.6087 -1.2417 -0.6971
 5942SOL     OW18441   4.561   3.443   3.843 -0.1812  0.1955 -0.2165
 5942SOL    HW118442   4.567   3.408   3.932  1.2023  2.5135  0.7027
 5942SOL    HW218443   4.652   3.443   3.811 -0.4797  0.6103 -1.1103
 5943SOL     OW18444   7.226   6.810   4.568 -0.2236  0.4984  0.0010
 5943SOL    HW118445   7.165   6.735   4.566  1.2406 -0.7357 -0.2082
 5943SOL    HW218446   7.273   6.800   4.650 -1.9399  2.8653  1.3649
 5944SOL     OW18447   4.073   4.233   0.210  0.4083 -0.1777  0.2419
 5944SOL    HW118448   4.090   4.279   0.128 -1.5259 -2.5115 -1.6111
 5944SOL    HW218449   3.995   4.275   0.245  0.6280  0.1387  0.3591
 5945SOL     OW18450   0.635   2.545   0.867  0.2322 -0.5835  0.1961
 5945SOL    HW118451   0.658   2.617   0.809 -2.8556 -0.3215 -0.8887
 5945SOL    HW218452   0.712   2.488   0.867  1.8878  1.5248 -0.7401
 5946SOL     OW18453   5.556   4.017   0.808  0.0722 -0.0200 -0.2882
 5946SOL    HW118454   5.614   4.079   0.852 -0.1247  0.2722 -0.4419
 5946SOL    HW218455   5.550   3.943   0.869  0.3277  0.0975 -0.1188
 5947SOL     OW18456   1.157   2.328   5.008 -0.0947 -0.3383  0.5879
 5947SOL    HW118457   1.233   2.370   5.048  0.9331 -1.3029 -0.3017
 5947SOL    HW218458   1.146   2.373   4.924  0.1540 -0.9155  0.2444
 5948SOL     OW18459   3.389   0.080   6.265 -0.1070 -0.5208 -0.1210
 5948SOL    HW118460   3.353   0.150   6.319 -0.9303 -0.2558 -0.9861
 5948SOL    HW218461   3.408   0.122   6.181  1.9096 -0.7308  0.1735
 5949SOL     OW18462   4.600   6.597   5.155  0.3295  0.7176 -0.2466
 5949SOL    HW118463   4.652   6.616   5.076  2.4628 -0.1932  0.8599
 5949SOL    HW218464   4.609   6.503   5.167  0.1161  0.8571  1.1326
 5950SOL     OW18465   0.056   3.031   3.754 -0.6981  0.1428  1.0043
 5950SOL    HW118466   0.057   3.086   3.833  0.8742  0.9266  0.4630
 5950SOL    HW218467   0.075   3.091   3.682  0.3988 -0.9837  0.3203
 5951SOL     OW18468   5.741   5.284   2.897  0.2970 -0.3557  0.5937
 5951SOL    HW118469   5.715   5.318   2.812  0.7423  2.3686  1.4425
 5951SOL    HW218470   5.683   5.327   2.960  1.7465 -0.1502  1.8632
 5952SOL     OW18471   0.119   2.730   3.737  0.5227 -0.0740  0.4552
 5952SOL    HW118472   0.030   2.696   3.746  0.4261  0.1264  0.2807
 5952SOL    HW218473   0.107   2.824   3.722  0.8564  0.4626  3.1065
 5953SOL     OW18474   6.138   0.171   5.685  0.0356  0.3370 -0.2651
 5953SOL    HW118475   6.107   0.253   5.645  0.5258  1.1356  0.9381
 5953SOL    HW218476   6.068   0.146   5.745 -0.4577 -0.5654 -1.1951
 5954SOL     OW18477   5.338   5.487   4.328  0.1137 -0.1539  0.0203
 5954SOL    HW118478   5.354   5.556   4.393 -2.0274  1.4097 -1.0008
 5954SOL    HW218479   5.271   5.432   4.368  0.4638 -0.5556  0.0592
 5955SOL     OW18480   1.962   0.233   4.150 -0.5006  0.3050 -1.0935
 5955SOL    HW118481   2.010   0.284   4.085 -1.4751  2.3208 -0.3178
 5955SOL    HW218482   1.891   0.291   4.178 -0.7251 -0.8899  1.0066
 5956SOL     OW18483   2.971   1.330   3.310 -0.4505 -0.1755  0.0845
 5956SOL    HW118484   3.052   1.339   3.260  0.3510  0.1532  1.3677
 5956SOL    HW218485   2.988   1.256   3.369 -1.1710 -0.2295  0.2332
 5957SOL     OW18486   2.491   3.099   2.368 -0.1551 -0.1296  0.3116
 5957SOL    HW118487   2.426   3.039   2.404 -0.3570  0.6978  1.3906
 5957SOL    HW218488   2.574   3.070   2.405 -0.1115 -0.3121  0.0750
 5958SOL     OW18489   3.186   1.976   2.807 -0.6371  0.4066 -0.1050
 5958SOL    HW118490   3.253   2.014   2.750  0.9136  1.1365  2.0770
 5958SOL    HW218491   3.225   1.978   2.894 -3.1732 -0.0276  1.1188
 5959SOL     OW18492   4.645   2.351   2.287  0.4967  0.4578 -0.0542
 5959SOL    HW118493   4.699   2.419   2.246  2.4999 -0.7662  0.4268
 5959SOL    HW218494   4.592   2.316   2.215  1.5646  0.5879 -0.9278
 5960SOL     OW18495   1.569   1.620   0.297  0.0221 -0.3756  0.0931
 5960SOL    HW118496   1.570   1.592   0.389  2.9681 -2.2058 -0.3658
 5960SOL    HW218497   1.507   1.561   0.255  1.2194 -1.8903  0.3597
 5961SOL     OW18498   7.188   0.903   3.443 -0.6396  0.5777 -0.4138
 5961SOL    HW118499   7.111   0.906   3.500 -1.2405  3.7820 -1.1666
 5961SOL    HW218500   7.259   0.939   3.496  0.1693 -1.4529 -0.0430
 5962SOL     OW18501   2.851   6.000   2.340  0.0551  0.2770  0.6006
 5962SOL    HW118502   2.877   5.913   2.311  1.2803  0.5419  0.8645
 5962SOL    HW218503   2.755   5.998   2.337  0.0689 -0.3087 -1.6505
 5963SOL     OW18504   6.923   6.783   6.008 -0.1305  0.0396 -0.1016
 5963SOL    HW118505   6.983   6.743   6.071 -0.8670 -0.8724  0.0431
 5963SOL    HW218506   6.838   6.747   6.030 -0.6488  0.8808 -0.6677
 5964SOL     OW18507   6.373   1.611   5.464  0.4290 -0.7450 -0.1157
 5964SOL    HW118508   6.368   1.610   5.559 -0.2154  0.3657 -0.1171
 5964SOL    HW218509   6.282   1.616   5.435  0.6453 -0.4234 -0.7678
 5965SOL     OW18510   0.291   2.614   6.221 -0.2639 -0.0608 -0.4673
 5965SOL    HW118511   0.384   2.590   6.224  0.3610  2.0694 -0.5907
 5965SOL    HW218512   0.248   2.551   6.278  1.9547  1.4954  3.3259
 5966SOL     OW18513   4.645   2.731   6.630  0.5209  0.1111  0.1053
 5966SOL    HW118514   4.701   2.800   6.665  1.3699  0.4233 -1.7586
 5966SOL    HW218515   4.702   2.655   6.623  0.0048 -0.3313  0.6525
 5967SOL     OW18516   1.432   0.029   2.711  0.0735  0.6282 -0.8649
 5967SOL    HW118517   1.346  -0.012   2.708  0.0898  0.5533 -0.4107
 5967SOL    HW218518   1.454   0.032   2.805 -0.6708  3.2182 -0.7007
 5968SOL     OW18519   3.750   0.729   2.350  0.7457  0.0990  0.1401
 5968SOL    HW118520   3.693   0.663   2.311  0.6558  0.2381  0.0363
 5968SOL    HW218521   3.709   0.813   2.328  1.2913  0.2239 -0.4148
 5969SOL     OW18522   1.551   5.566   0.543 -0.1819 -0.0819 -0.5298
 5969SOL    HW118523   1.622   5.585   0.605 -0.7881  1.1030 -0.1622
 5969SOL    HW218524   1.474   5.608   0.582 -0.9386 -0.7298 -1.2827
 5970SOL     OW18525   0.702   3.730   3.825 -0.1837 -0.5609 -0.0149
 5970SOL    HW118526   0.670   3.708   3.737  0.7325 -1.1411 -0.2201
 5970SOL    HW218527   0.651   3.674   3.884 -0.2491 -0.7547 -0.2520
 5971SOL     OW18528   6.901   2.944   6.746 -0.1756  0.6118 -0.0367
 5971SOL    HW118529   6.872   2.859   6.713  0.1731  0.8317 -0.9620
 5971SOL    HW218530   6.822   2.985   6.782 -0.6736  0.5170 -0.9821
 5972SOL     OW18531   6.532   1.596   3.749  0.1572  0.4543  0.5388
 5972SOL    HW118532   6.541   1.686   3.782 -0.4783  1.4586 -1.8186
 5972SOL    HW218533   6.493   1.548   3.823 -0.9957  2.4944  1.3553
 5973SOL     OW18534   0.028   3.384   5.016 -0.0847  0.2189  0.4052
 5973SOL    HW118535  -0.015   3.426   4.942  0.9626 -0.2149 -0.4788
 5973SOL    HW218536   0.120   3.410   5.008 -0.1825  1.3688  2.4137
 5974SOL     OW18537   0.129   6.834   4.232 -0.9060  0.3026  0.0703
 5974SOL    HW118538   0.172   6.834   4.146  1.0523 -2.0740  0.9308
 5974SOL    HW218539   0.036   6.822   4.212 -0.2446 -3.4432 -1.8097
 5975SOL     OW18540   6.743   6.691   5.737  0.0046  0.3753 -0.2021
 5975SOL    HW118541   6.798   6.627   5.691 -2.5818 -1.3396 -1.1389
 5975SOL    HW218542   6.776   6.691   5.827  2.7363  0.9447 -1.0917
 5976SOL     OW18543   3.465   5.235   0.955  0.0374 -0.4946 -0.5666
 5976SOL    HW118544   3.384   5.271   0.920  0.6398  1.1389 -0.3881
 5976SOL    HW218545   3.507   5.192   0.880  0.2424  0.9800 -1.3246
 5977SOL     OW18546   1.716   3.707   3.279  0.4040  0.0418 -0.6038
 5977SOL    HW118547   1.701   3.682   3.370  3.8929  1.2689  0.4818
 5977SOL    HW218548   1.670   3.640   3.228 -1.1329 -1.0594  2.0165
 5978SOL     OW18549   4.098   4.223   6.893 -0.3865  0.1070 -0.0967
 5978SOL    HW118550   4.021   4.256   6.846 -2.1514 -1.8755  1.2564
 5978SOL    HW218551   4.072   4.223   6.985  1.1361 -0.9042  0.3670
 5979SOL     OW18552   3.671   4.912   3.687 -0.1472 -0.2128  0.1587
 5979SOL    HW118553   3.669   4.817   3.683  1.0765 -0.2191 -1.3095
 5979SOL    HW218554   3.666   4.933   3.781 -2.6961 -1.5946  0.4118
 5980SOL     OW18555   7.231   0.191   0.935  0.0348 -0.3681 -0.1080
 5980SOL    HW118556   7.269   0.266   0.890  0.2198  0.1408  0.8556
 5980SOL    HW218557   7.145   0.180   0.895 -0.1080  0.5450 -0.0838
 5981SOL     OW18558   7.204   6.192   3.105  0.4513  0.8233 -0.0770
 5981SOL    HW118559   7.150   6.160   3.033  0.0023  1.0736  0.1517
 5981SOL    HW218560   7.241   6.113   3.144  0.2372  0.6542 -0.2159
 5982SOL     OW18561   0.060   4.713   1.122  0.0733  0.2134  0.1135
 5982SOL    HW118562   0.109   4.762   1.188  2.2519  0.3306 -1.4636
 5982SOL    HW218563   0.035   4.779   1.057 -1.2649 -0.0314  0.3622
 5983SOL     OW18564   5.302   0.594   5.665  0.0520 -0.4938 -0.4297
 5983SOL    HW118565   5.276   0.544   5.742 -0.4589 -0.0218 -0.2908
 5983SOL    HW218566   5.394   0.616   5.682  0.5046 -1.9769 -0.8288
 5984SOL     OW18567   5.424   5.896   4.311  0.2910 -0.3171 -0.5186
 5984SOL    HW118568   5.361   5.864   4.246 -0.2833 -2.2893  0.9227
 5984SOL    HW218569   5.502   5.843   4.297  0.7959  0.4627 -0.7183
 5985SOL     OW18570   4.251   6.804   3.443 -1.0900  0.0676 -0.2369
 5985SOL    HW118571   4.220   6.767   3.360 -0.9624  1.5245 -0.9683
 5985SOL    HW218572   4.336   6.842   3.422 -0.5786 -0.4512  0.8234
 5986SOL     OW18573   2.439   5.782   3.763  0.1775  0.1106  0.4852
 5986SOL    HW118574   2.534   5.790   3.761  0.1232  0.7545 -0.1320
 5986SOL    HW218575   2.407   5.868   3.736 -0.5776 -0.1024  0.6684
 5987SOL     OW18576   2.738   2.391   3.234  0.5644  0.1910  0.1173
 5987SOL    HW118577   2.705   2.406   3.323  0.6482 -2.4173  0.6717
 5987SOL    HW218578   2.661   2.362   3.185  0.5534  1.4606 -0.6627
 5988SOL     OW18579   4.241   0.873   7.188  0.1967  0.2721 -0.0545
 5988SOL    HW118580   4.181   0.800   7.204  0.1921  0.0643 -0.9723
 5988SOL    HW218581   4.240   0.923   7.270 -0.3652 -0.3458  0.3285
 5989SOL     OW18582   1.762   6.359   2.142  0.5112  0.2663 -0.1101
 5989SOL    HW118583   1.677   6.397   2.120  1.2603  1.3601 -1.2209
 5989SOL    HW218584   1.766   6.365   2.238 -0.9913 -0.5647  0.0288
 5990SOL     OW18585   0.249   4.797   4.033 -0.0750 -0.2177 -0.3090
 5990SOL    HW118586   0.161   4.831   4.046 -0.3137 -0.7774 -0.4103
 5990SOL    HW218587   0.272   4.824   3.944 -0.2171 -0.2219 -0.3477
 5991SOL     OW18588   1.541   0.503   6.345 -0.6426 -0.1172  0.3998
 5991SOL    HW118589   1.625   0.522   6.385  0.0471 -1.0960 -0.5217
 5991SOL    HW218590   1.543   0.546   6.260 -1.2946  0.3015  0.5863
 5992SOL     OW18591   0.420   2.454   0.555  0.5592 -0.4221 -0.0488
 5992SOL    HW118592   0.511   2.468   0.582 -0.9726  4.2896  4.3644
 5992SOL    HW218593   0.382   2.402   0.625 -0.6455 -0.3313 -0.6054
 5993SOL     OW18594   2.998   3.175   7.138  0.1490 -0.7238 -0.1307
 5993SOL    HW118595   3.064   3.149   7.074  0.2968 -1.1414  0.1849
 5993SOL    HW218596   2.983   3.096   7.190 -0.1910 -0.4735  0.1591
 5994SOL     OW18597   0.212   5.660   3.891  0.3222 -0.2533 -0.6382
 5994SOL    HW118598   0.228   5.641   3.983 -0.8859 -1.7701 -0.6885
 5994SOL    HW218599   0.292   5.634   3.846  0.7618  0.1081 -0.0673
 5995SOL     OW18600   0.573   6.459   6.243  0.2377 -0.4428 -0.3026
 5995SOL    HW118601   0.635   6.386   6.241  0.5610 -0.1590 -1.0021
 5995SOL    HW218602   0.513   6.437   6.314  1.3785 -0.5222  0.6804
 5996SOL     OW18603   3.974   3.921   2.461 -0.1422  0.1913 -0.2154
 5996SOL    HW118604   4.051   3.872   2.491 -0.3571 -0.9108 -1.3721
 5996SOL    HW218605   3.943   3.967   2.539  0.4411 -1.0497  0.7838
 5997SOL     OW18606   5.593   1.551   0.623  0.3535  0.0359 -0.1338
 5997SOL    HW118607   5.507   1.590   0.603  0.8460  1.3418  0.1860
 5997SOL    HW218608   5.644   1.624   0.660  1.5947 -0.7320 -0.2919
 5998SOL     OW18609   0.062   5.935   7.163 -0.3404  0.0053 -0.0811
 5998SOL    HW118610   0.045   5.980   7.246  0.2096  0.7418 -0.3540
 5998SOL    HW218611  -0.021   5.893   7.141 -0.9188  1.0103  0.1244
 5999SOL     OW18612   3.000   0.016   4.728 -0.5016  0.1336 -0.3405
 5999SOL    HW118613   3.019  -0.058   4.671 -4.5927 -2.0236  0.7657
 5999SOL    HW218614   3.081   0.068   4.726  2.9257 -4.5278 -0.7651
 6000SOL     OW18615   6.077   2.557   6.613  0.0168 -0.1997 -0.6745
 6000SOL    HW118616   6.153   2.519   6.658 -0.9068  0.9200  2.0230
 6000SOL    HW218617   6.038   2.483   6.566  0.0699 -1.9621  1.8314
 6001SOL     OW18618   3.076   2.090   5.503 -0.6387  0.0156  0.1960
 6001SOL    HW118619   3.094   2.017   5.563 -0.0506  1.1569  1.4528
 6001SOL    HW218620   3.116   2.166   5.545  0.1303  0.8047 -1.8558
 6002SOL     OW18621   2.321   1.842   0.881 -0.3198 -0.0047  0.1927
 6002SOL    HW118622   2.300   1.817   0.791  0.5065  2.5129 -0.7936
 6002SOL    HW218623   2.412   1.869   0.877 -0.3605  0.4267  1.7395
 6003SOL     OW18624   4.190   5.704   1.175  0.1540 -0.0562  0.4901
 6003SOL    HW118625   4.181   5.618   1.134  1.0572  0.5694 -1.0757
 6003SOL    HW218626   4.129   5.701   1.249 -1.5009 -1.2502 -0.8333
 6004SOL     OW18627   5.137   4.062   3.415  0.1573  0.8763 -0.5442
 6004SOL    HW118628   5.195   4.044   3.341  0.7655  0.9089 -0.0855
 6004SOL    HW218629   5.127   4.158   3.415  1.9802  1.1266  0.7274
 6005SOL     OW18630   5.308   1.576   2.338 -0.2414  0.0847 -0.2207
 6005SOL    HW118631   5.278   1.542   2.423 -0.5234 -0.2280 -0.4464
 6005SOL    HW218632   5.404   1.573   2.345 -0.2494 -1.3710 -0.4707
 6006SOL     OW18633   6.275   6.226   4.066  0.7164  0.2678 -0.0797
 6006SOL    HW118634   6.256   6.141   4.027 -1.3915  1.1818 -1.2314
 6006SOL    HW218635   6.340   6.208   4.133 -1.2789 -2.6178  1.2491
 6007SOL     OW18636   3.859   5.804   4.961 -0.3167  0.1083  0.1785
 6007SOL    HW118637   3.848   5.873   5.027  1.7262  0.2786  0.3926
 6007SOL    HW218638   3.915   5.739   5.002  1.0900  0.2670 -1.3966
 6008SOL     OW18639   4.902   3.675   4.245  0.3559  0.4390 -0.2239
 6008SOL    HW118640   4.853   3.595   4.226  1.4717 -0.7735  1.6387
 6008SOL    HW218641   4.838   3.735   4.281 -0.1775 -0.3064  0.0980
 6009SOL     OW18642   4.024   4.273   5.833 -0.2928 -0.6462 -0.5075
 6009SOL    HW118643   3.944   4.300   5.787 -0.2373 -0.5842 -0.5682
 6009SOL    HW218644   3.995   4.255   5.922 -0.2870 -0.1376 -0.3990
 6010SOL     OW18645   2.111   5.740   6.593  0.4566  0.0242  0.1229
 6010SOL    HW118646   2.097   5.834   6.600  2.2342  0.5088 -1.7818
 6010SOL    HW218647   2.203   5.728   6.615  0.0409 -1.4125  1.1949
 6011SOL     OW18648   1.451   0.033   0.817  0.1834 -0.3947 -0.1456
 6011SOL    HW118649   1.527   0.048   0.760  0.2422 -2.7004 -0.7584
 6011SOL    HW218650   1.488  -0.010   0.894 -0.2346  0.4922  0.5613
 6012SOL     OW18651   6.060   5.963   2.438 -0.7781  0.3680  0.2648
 6012SOL    HW118652   6.130   6.012   2.480 -1.4411  0.6099  1.1311
 6012SOL    HW218653   6.070   5.980   2.345 -0.8747  2.0242  0.5274
 6013SOL     OW18654   3.665   4.925   4.862  0.2231 -0.0831 -0.1507
 6013SOL    HW118655   3.724   4.950   4.933  0.4227 -0.5694 -0.1338
 6013SOL    HW218656   3.708   4.848   4.823 -1.0894 -1.3166  0.7565
 6014SOL     OW18657   4.171   5.626   5.969  0.2064 -0.5336  0.2475
 6014SOL    HW118658   4.231   5.552   5.980  1.9002  0.2036 -2.8672
 6014SOL    HW218659   4.210   5.696   6.022  0.8348 -0.7214  0.0430
 6015SOL     OW18660   5.092   6.763   3.653  0.4289  0.1356 -0.3025
 6015SOL    HW118661   5.179   6.800   3.667  0.4191  0.4907 -1.0932
 6015SOL    HW218662   5.092   6.739   3.560 -0.3364  0.1953 -0.3195
 6016SOL     OW18663   0.150   7.251   5.225 -0.1895  0.6457 -0.7082
 6016SOL    HW118664   0.191   7.247   5.138 -0.5201  0.5950 -0.8658
 6016SOL    HW218665   0.180   7.334   5.261  1.1968 -0.0327 -0.2298
 6017SOL     OW18666   5.144   0.730   6.754  0.1042 -0.6995  0.3191
 6017SOL    HW118667   5.145   0.737   6.849 -0.3013  0.8911  0.2324
 6017SOL    HW218668   5.052   0.736   6.730  0.2325 -0.7277 -0.2023
 6018SOL     OW18669   2.336   0.384   6.343  0.4206 -0.1420  0.1413
 6018SOL    HW118670   2.306   0.298   6.314  0.3775  0.6799 -2.4396
 6018SOL    HW218671   2.428   0.388   6.317 -0.2175  1.4860 -2.1982
 6019SOL     OW18672   3.453   6.793   0.122 -0.1659  0.1701  0.6300
 6019SOL    HW118673   3.532   6.783   0.174  0.8161  1.2190 -0.5849
 6019SOL    HW218674   3.385   6.814   0.185  0.8862  0.9774  1.5364
 6020SOL     OW18675   1.648   0.616   1.825  0.4427 -0.3139 -0.0578
 6020SOL    HW118676   1.567   0.606   1.775 -0.0341 -2.4176  1.0295
 6020SOL    HW218677   1.717   0.616   1.759 -0.3990  1.5224 -1.0030
 6021SOL     OW18678   0.066   5.412   2.839  0.5704 -0.2970 -0.3330
 6021SOL    HW118679   0.090   5.400   2.930 -0.2437  1.2359  0.1229
 6021SOL    HW218680  -0.025   5.381   2.834 -0.8678  3.2888  0.4192
 6022SOL     OW18681   3.205   1.965   3.801 -0.1635 -0.1021  0.1132
 6022SOL    HW118682   3.167   1.958   3.888 -0.7132 -0.5496 -0.1574
 6022SOL    HW218683   3.230   2.057   3.793  1.1109 -0.3193  1.2418
 6023SOL     OW18684   4.805   3.767   7.185  0.4324 -0.0325 -0.3726
 6023SOL    HW118685   4.802   3.787   7.092  0.4306 -2.7695 -1.0355
 6023SOL    HW218686   4.718   3.734   7.206  0.1105  1.4735  0.8924
 6024SOL     OW18687   2.911   3.958   6.354 -0.4356  0.5942  0.1367
 6024SOL    HW118688   2.955   4.034   6.391  1.4264 -0.5901  0.5224
 6024SOL    HW218689   2.842   3.994   6.298  0.2668  2.5383  0.4540
 6025SOL     OW18690   2.737   7.130   0.165  0.1157  0.4542  0.3308
 6025SOL    HW118691   2.785   7.204   0.127 -0.8214  0.8726 -0.0917
 6025SOL    HW218692   2.674   7.106   0.097 -2.5723  2.1087  2.0548
 6026SOL     OW18693   6.090   1.470   2.573 -0.4646  1.3465 -0.0573
 6026SOL    HW118694   6.177   1.461   2.535 -1.0951 -1.2729 -1.1099
 6026SOL    HW218695   6.030   1.459   2.499 -1.7207 -2.4150  1.2736
 6027SOL     OW18696   0.750   6.516   5.329 -0.3563 -0.4113 -0.5576
 6027SOL    HW118697   0.773   6.431   5.291 -3.1586 -1.3068 -0.4360
 6027SOL    HW218698   0.772   6.579   5.260  0.9452 -1.2744 -0.9842
 6028SOL     OW18699   6.227   3.402   0.374  0.4001  0.4086 -0.5375
 6028SOL    HW118700   6.302   3.350   0.344  0.2335 -0.5755  0.6673
 6028SOL    HW218701   6.154   3.340   0.375  0.6044  0.0697  2.8108
 6029SOL     OW18702   4.505   3.095   0.211 -0.0306  0.0702  0.3065
 6029SOL    HW118703   4.411   3.097   0.194  0.4392  1.9895 -2.8070
 6029SOL    HW218704   4.539   3.028   0.153  0.4923 -1.3641  2.1797
 6030SOL     OW18705   2.827   6.359   1.936 -0.1814  0.0160 -0.0914
 6030SOL    HW118706   2.838   6.274   1.979 -1.0368 -0.6775 -1.2011
 6030SOL    HW218707   2.852   6.343   1.845  0.0867  1.0815 -0.2218
 6031SOL     OW18708   1.857   1.548   6.144 -0.5908  0.2140 -0.0606
 6031SOL    HW118709   1.822   1.471   6.190 -2.1359 -0.4730 -2.2349
 6031SOL    HW218710   1.783   1.581   6.093 -0.1986  3.6272  1.2621
 6032SOL     OW18711   4.644   6.392   4.875 -0.2806  0.5940  0.2129
 6032SOL    HW118712   4.686   6.376   4.791 -0.6146 -0.2952  0.2091
 6032SOL    HW218713   4.656   6.311   4.925  1.1080  1.5501  1.5660
 6033SOL     OW18714   6.568   2.499   6.918 -0.1481  0.2342  0.1321
 6033SOL    HW118715   6.656   2.494   6.954 -0.8667 -1.2386  1.8825
 6033SOL    HW218716   6.555   2.416   6.873 -0.7197  0.3613  0.0494
 6034SOL     OW18717   6.876   0.983   3.876 -0.6817  0.8003  0.0405
 6034SOL    HW118718   6.787   0.998   3.846 -0.5842 -0.2073 -0.8477
 6034SOL    HW218719   6.931   1.023   3.809 -0.4548  1.5746  0.6755
 6035SOL     OW18720   6.115   2.817   0.662  0.4372  0.0813 -0.1710
 6035SOL    HW118721   6.148   2.820   0.752  1.2393  1.4012 -0.4676
 6035SOL    HW218722   6.063   2.737   0.658  1.2795 -0.5844  1.1574
 6036SOL     OW18723   0.104   0.719   6.057  0.2371 -0.3410 -0.2518
 6036SOL    HW118724   0.166   0.764   6.115  1.0920 -0.6275 -0.9179
 6036SOL    HW218725   0.018   0.750   6.085  0.7748  1.4982 -0.5096
 6037SOL     OW18726   5.339   2.008   7.081 -0.6777 -0.0181 -0.4920
 6037SOL    HW118727   5.286   2.081   7.048 -0.5897  0.6470  0.7667
 6037SOL    HW218728   5.311   1.998   7.172  1.3081  0.3137  0.1893
 6038SOL     OW18729   1.213   7.141   5.960 -0.1837  0.1240  0.2651
 6038SOL    HW118730   1.207   7.167   5.868 -0.6519  1.0516  0.5434
 6038SOL    HW218731   1.145   7.074   5.972  0.2222 -0.3747 -0.1742
 6039SOL     OW18732   5.942   1.943   0.690 -0.1588  0.5921  0.1030
 6039SOL    HW118733   5.968   2.013   0.630  1.1157  2.6935  2.9065
 6039SOL    HW218734   6.021   1.890   0.701 -0.9687 -1.1294 -1.5736
 6040SOL     OW18735   3.226   6.854   0.278 -0.4480  0.2478 -1.2947
 6040SOL    HW118736   3.184   6.794   0.340  2.2073 -0.3439  0.1104
 6040SOL    HW218737   3.184   6.939   0.294  1.0326  0.4603  2.4956
 6041SOL     OW18738   0.581   3.460   4.935 -0.1149  0.2530  0.0465
 6041SOL    HW118739   0.575   3.406   4.857 -1.7454  3.1308 -2.0045
 6041SOL    HW218740   0.675   3.476   4.947  0.1869 -0.5393 -1.1168
 6042SOL     OW18741   0.928   6.738   7.250 -0.1600  0.1075  0.6818
 6042SOL    HW118742   0.896   6.794   7.320 -0.9793  0.4750  0.0367
 6042SOL    HW218743   0.934   6.651   7.289 -2.5577 -0.1154  0.7031
 6043SOL     OW18744   2.021   6.313   3.055 -0.1492  0.7564 -0.5528
 6043SOL    HW118745   1.937   6.275   3.082 -0.9073  2.2232 -0.7040
 6043SOL    HW218746   2.015   6.404   3.083  1.8519  0.6444  0.3776
 6044SOL     OW18747   0.731   1.196   3.718 -0.2983 -0.2409  0.4623
 6044SOL    HW118748   0.734   1.152   3.633 -0.8653  1.5525 -0.5352
 6044SOL    HW218749   0.659   1.153   3.765  0.0114 -1.2366  0.0433
 6045SOL     OW18750   5.813   7.155   1.485  0.0775 -0.4074  0.3999
 6045SOL    HW118751   5.849   7.068   1.469  0.5440 -0.3699  1.1773
 6045SOL    HW218752   5.866   7.213   1.429 -0.8668 -0.7155 -0.8605
 6046SOL     OW18753   2.767   1.045   5.126  0.3554 -0.2365 -0.0494
 6046SOL    HW118754   2.673   1.061   5.116  0.4242  1.4264  1.4032
 6046SOL    HW218755   2.801   1.049   5.037 -0.9143 -0.7162 -0.5839
 6047SOL     OW18756   0.623   0.943   6.597  0.4044  0.5451  0.0024
 6047SOL    HW118757   0.530   0.937   6.573  0.7153  0.4461 -1.2190
 6047SOL    HW218758   0.622   0.977   6.686 -0.8926 -1.9767  1.0688
 6048SOL     OW18759   6.909   2.877   4.153  0.2177  0.1762  0.2871
 6048SOL    HW118760   6.850   2.803   4.167 -0.2073  0.5177  0.3569
 6048SOL    HW218761   6.948   2.893   4.239  1.1378 -0.6485  0.0271
 6049SOL     OW18762   4.615   3.149   1.957 -0.0304 -0.4547 -0.6198
 6049SOL    HW118763   4.617   3.077   2.019  0.5279  0.0983  0.0087
 6049SOL    HW218764   4.579   3.223   2.006  0.2780 -0.0490 -0.9949
 6050SOL     OW18765   4.183   3.616   2.585  0.4340 -0.0090  0.1452
 6050SOL    HW118766   4.162   3.555   2.656  0.8936  0.8902  1.0709
 6050SOL    HW218767   4.228   3.561   2.520  1.7841 -0.5035  1.4137
 6051SOL     OW18768   6.582   4.150   5.754  1.0073 -0.7564 -0.1345
 6051SOL    HW118769   6.526   4.089   5.706 -2.1724  0.2614  1.9910
 6051SOL    HW218770   6.633   4.094   5.813  1.0327 -1.5809 -0.9010
 6052SOL     OW18771   5.973   1.130   6.471  0.4323 -0.7808  0.7193
 6052SOL    HW118772   5.943   1.061   6.412 -0.2000 -1.3002  1.6214
 6052SOL    HW218773   5.932   1.210   6.439  0.2520 -1.0265  0.3407
 6053SOL     OW18774   0.208   3.875   3.898  0.3005 -0.2753 -0.0148
 6053SOL    HW118775   0.113   3.871   3.907  0.1028  1.0333 -1.2456
 6053SOL    HW218776   0.241   3.846   3.983 -1.2138  1.0562  1.0842
 6054SOL     OW18777   4.568   2.074   3.535 -0.3776  0.4194 -0.1047
 6054SOL    HW118778   4.650   2.043   3.495 -0.0015 -0.3256  1.1823
 6054SOL    HW218779   4.591   2.158   3.574  0.3115 -0.6019  1.8244
 6055SOL     OW18780   6.328   5.657   6.314 -0.1959 -0.2899  0.5569
 6055SOL    HW118781   6.385   5.586   6.344 -1.9055 -1.3230  1.5603
 6055SOL    HW218782   6.291   5.694   6.395 -1.5211 -0.1775 -0.0647
 6056SOL     OW18783   5.069   3.460   6.846 -0.0991 -0.2039  0.1455
 6056SOL    HW118784   5.055   3.418   6.931  0.3711 -1.5065 -0.4007
 6056SOL    HW218785   4.996   3.429   6.792 -1.1816  1.6783  0.4047
 6057SOL     OW18786   0.822   6.273   1.168  0.0184  0.7842 -0.0359
 6057SOL    HW118787   0.820   6.205   1.101  0.6546  1.4821 -0.7811
 6057SOL    HW218788   0.899   6.253   1.221  0.8472  1.5176 -0.9203
 6058SOL     OW18789   1.554   0.789   1.492  0.1861 -0.4236 -0.1295
 6058SOL    HW118790   1.581   0.866   1.441 -0.5488  0.1792  0.3730
 6058SOL    HW218791   1.571   0.813   1.583 -1.5345 -0.1999  0.1708
 6059SOL     OW18792   2.011   3.571   4.956 -0.0227 -0.2949  0.2951
 6059SOL    HW118793   1.955   3.543   5.029  0.7087 -0.2457  0.8789
 6059SOL    HW218794   2.094   3.525   4.969  0.1978 -0.1080 -0.3835
 6060SOL     OW18795   1.642   4.425   5.475 -0.2711  0.0591 -0.1702
 6060SOL    HW118796   1.711   4.434   5.410 -0.8203  1.0793 -0.6226
 6060SOL    HW218797   1.571   4.481   5.444 -0.6205  0.4224  1.1994
 6061SOL     OW18798   1.241   6.286   2.987 -0.0711 -0.1451 -0.0513
 6061SOL    HW118799   1.147   6.286   3.004 -1.0117 -0.9092 -4.2202
 6061SOL    HW218800   1.263   6.193   2.979  0.7066  0.0697 -0.5137
 6062SOL     OW18801   5.194   6.892   0.569  0.1283 -0.0279 -0.3023
 6062SOL    HW118802   5.119   6.842   0.602 -0.7563  1.2628 -0.2627
 6062SOL    HW218803   5.162   6.982   0.564  1.8894  0.6812  0.3468
 6063SOL     OW18804   5.341   6.548   0.642  0.7048  0.6107 -0.7535
 6063SOL    HW118805   5.271   6.494   0.679  0.8248  0.5838 -0.5667
 6063SOL    HW218806   5.348   6.518   0.551  1.6060 -0.5519 -0.3311
 6064SOL     OW18807   1.299   0.708   4.680  0.6750 -0.4785  0.4089
 6064SOL    HW118808   1.225   0.712   4.619  0.7967 -1.7561  0.1398
 6064SOL    HW218809   1.276   0.638   4.742  1.2698 -0.3020  0.8427
 6065SOL     OW18810   6.273   2.727   1.428 -0.0808  0.2367 -0.0924
 6065SOL    HW118811   6.312   2.731   1.341 -1.5913  0.3414 -0.8054
 6065SOL    HW218812   6.232   2.641   1.433  0.1639  0.1539  0.5923
 6066SOL     OW18813   5.254   0.337   0.329 -0.0769  0.0865  0.2072
 6066SOL    HW118814   5.184   0.391   0.365  1.1206  1.7835  0.1408
 6066SOL    HW218815   5.280   0.381   0.248 -1.0272 -2.2846 -1.5219
 6067SOL     OW18816   0.611   5.287   3.626  0.1826  0.5487 -0.2576
 6067SOL    HW118817   0.601   5.279   3.531 -1.1354  1.2746 -0.2056
 6067SOL    HW218818   0.553   5.220   3.662  0.2197  0.6791  0.0490
 6068SOL     OW18819   5.031   5.210   6.308 -0.5522 -0.2820  0.2410
 6068SOL    HW118820   4.996   5.298   6.326  3.3906  1.6918 -0.7024
 6068SOL    HW218821   5.054   5.213   6.215  1.0348 -1.7410  0.5479
 6069SOL     OW18822   4.856   1.756   3.298  0.3633 -0.2450 -0.1907
 6069SOL    HW118823   4.919   1.768   3.226 -1.9954  1.0183 -2.2027
 6069SOL    HW218824   4.799   1.685   3.267 -0.1188 -0.3432  0.9034
 6070SOL     OW18825   4.722   4.868   7.139  0.2033  0.2386 -0.4644
 6070SOL    HW118826   4.684   4.942   7.185 -1.6023 -0.6344 -0.4707
 6070SOL    HW218827   4.793   4.906   7.087 -0.1620  1.8195  0.1308
 6071SOL     OW18828   4.698   2.559   5.816 -0.0539 -0.1916 -0.0883
 6071SOL    HW118829   4.603   2.554   5.834  0.0961 -0.5853  0.6591
 6071SOL    HW218830   4.732   2.615   5.886  0.2533  0.0548 -0.4320
 6072SOL     OW18831   2.740   0.003   4.586  0.5172 -0.3010 -0.4125
 6072SOL    HW118832   2.805   0.013   4.656  0.6878 -0.8336 -0.4914
 6072SOL    HW218833   2.656   0.019   4.629  0.7674  2.0951 -0.6497
 6073SOL     OW18834   2.016   4.780   1.566 -0.1876 -0.8476 -0.1959
 6073SOL    HW118835   2.059   4.774   1.480 -1.2711 -1.6829 -0.7038
 6073SOL    HW218836   2.032   4.696   1.607  0.3138 -0.4539  0.4402
 6074SOL     OW18837   3.639   0.831   5.946  0.1473 -0.5199  0.2544
 6074SOL    HW118838   3.611   0.789   6.027 -0.4694  1.3644  1.0703
 6074SOL    HW218839   3.570   0.894   5.926  1.0770  0.1944 -0.8625
 6075SOL     OW18840   3.328   2.237   0.449 -0.0968 -0.4763  0.7260
 6075SOL    HW118841   3.268   2.304   0.484  0.2264  0.4129 -0.3679
 6075SOL    HW218842   3.410   2.251   0.496  0.2767  0.5856 -0.2017
 6076SOL     OW18843   1.826   0.174   5.163  0.4194 -0.6008 -0.9590
 6076SOL    HW118844   1.866   0.121   5.094  0.9466  0.5215 -1.5436
 6076SOL    HW218845   1.824   0.117   5.239  3.2409 -0.7392 -0.8690
 6077SOL     OW18846   1.475   2.249   7.103  0.8075 -0.0867 -0.2898
 6077SOL    HW118847   1.432   2.190   7.040  0.9012  0.6086 -1.0303
 6077SOL    HW218848   1.525   2.191   7.160  1.4366 -0.7029 -1.4205
 6078SOL     OW18849   6.440   5.598   1.283 -0.2162  0.2161 -0.1513
 6078SOL    HW118850   6.420   5.683   1.243 -2.1244 -0.5963 -1.0795
 6078SOL    HW218851   6.368   5.584   1.346  0.4655 -0.4086  0.5111
 6079SOL     OW18852   3.219   2.412   0.603  0.2931 -0.1493  0.0200
 6079SOL    HW118853   3.131   2.450   0.605  0.2285 -0.0973 -2.0704
 6079SOL    HW218854   3.243   2.403   0.695 -2.1096 -0.6671  0.6595
 6080SOL     OW18855   4.569   0.328   6.645  0.0074 -0.3035  1.0249
 6080SOL    HW118856   4.619   0.373   6.713  0.6753 -0.7542  0.8476
 6080SOL    HW218857   4.564   0.390   6.573  0.7448 -0.4279  0.8597
 6081SOL     OW18858   1.109   1.477   6.149 -0.3614  0.0835 -0.0898
 6081SOL    HW118859   1.189   1.459   6.099  0.5030 -0.7058  1.5002
 6081SOL    HW218860   1.046   1.506   6.083  0.7806 -0.6973 -1.5981
 6082SOL     OW18861   0.635   4.938   0.227 -0.7845  0.6572 -0.1343
 6082SOL    HW118862   0.582   4.991   0.166 -0.5241  2.8186  1.4034
 6082SOL    HW218863   0.704   4.998   0.256  2.1286 -1.8247 -1.4315
 6083SOL     OW18864   1.499   5.735   4.322 -0.4529  0.0745 -0.3257
 6083SOL    HW118865   1.570   5.671   4.311 -2.0593 -1.8384 -0.2383
 6083SOL    HW218866   1.489   5.742   4.416 -0.0842  0.7136 -0.3311
 6084SOL     OW18867   3.217   5.944   3.992 -0.3684 -1.1777 -0.6871
 6084SOL    HW118868   3.167   5.884   3.936 -1.6792 -1.0851  0.3486
 6084SOL    HW218869   3.151   6.002   4.029  0.8992  1.3557 -2.1234
 6085SOL     OW18870   1.840   5.337   3.842  0.3635  0.1807  0.4372
 6085SOL    HW118871   1.865   5.339   3.750  0.7941 -0.2623  0.5401
 6085SOL    HW218872   1.783   5.261   3.850 -0.4004  0.7365  0.3617
 6086SOL     OW18873   3.482   5.097   2.149 -0.3174  0.6406  0.3334
 6086SOL    HW118874   3.534   5.164   2.105  1.2088 -0.6313  0.0959
 6086SOL    HW218875   3.501   5.017   2.100 -2.4151  0.0892  0.3497
 6087SOL     OW18876   2.561   5.707   5.060 -0.2777 -0.0493  0.4290
 6087SOL    HW118877   2.609   5.789   5.056 -0.4625  0.0313 -0.4522
 6087SOL    HW218878   2.478   5.729   5.102 -2.1017  1.1949 -3.3662
 6088SOL     OW18879   1.327   0.969   0.220  0.0291  0.1284  0.3729
 6088SOL    HW118880   1.233   0.974   0.238 -0.1728  1.2838 -0.8725
 6088SOL    HW218881   1.334   0.964   0.125  1.2525  0.9145  0.3916
 6089SOL     OW18882   5.971   4.695   6.335 -0.0289  0.6733 -0.3813
 6089SOL    HW118883   5.933   4.765   6.282 -2.3309  0.2745  0.6026
 6089SOL    HW218884   5.899   4.632   6.347  0.8387  0.0075  1.8951
 6090SOL     OW18885   6.059   1.666   2.777 -0.0076  0.0751  1.3389
 6090SOL    HW118886   6.095   1.610   2.708 -0.4444  1.0886  0.2476
 6090SOL    HW218887   6.087   1.625   2.858 -1.2512 -2.3511  0.6315
 6091SOL     OW18888   6.675   0.989   2.089 -0.1204 -0.3616  0.6495
 6091SOL    HW118889   6.653   1.051   2.019 -1.3278 -0.8214  0.5861
 6091SOL    HW218890   6.713   1.043   2.158 -3.4547  0.9742  1.6701
 6092SOL     OW18891   2.117   1.771   3.922  1.2402  0.5667 -0.0837
 6092SOL    HW118892   2.155   1.689   3.889  2.4272  1.1960 -0.3094
 6092SOL    HW218893   2.185   1.809   3.977  1.1532  1.9815 -0.9127
 6093SOL     OW18894   4.112   2.789   3.212  0.0078 -0.3400  0.3214
 6093SOL    HW118895   4.084   2.719   3.153 -2.6792  0.8546  0.0178
 6093SOL    HW218896   4.159   2.851   3.156 -0.4772 -0.3375 -0.0846
 6094SOL     OW18897   5.955   0.051   3.401  1.3722  0.2280 -0.8577
 6094SOL    HW118898   6.021   0.120   3.399  3.7393 -1.8561 -0.1612
 6094SOL    HW218899   5.992  -0.016   3.458 -1.2494 -1.2363 -0.7096
 6095SOL     OW18900   1.372   0.669   2.244  0.3703 -0.5652  0.2314
 6095SOL    HW118901   1.442   0.711   2.295 -0.5268  0.0908  0.9458
 6095SOL    HW218902   1.380   0.576   2.266  0.3535 -0.3642  1.1564
 6096SOL     OW18903   1.801   5.554   5.459  0.0587  0.6035  0.0173
 6096SOL    HW118904   1.839   5.493   5.394 -1.9962 -0.0669 -0.6352
 6096SOL    HW218905   1.869   5.563   5.526  1.1714 -0.9065 -0.8411
 6097SOL     OW18906   1.198   1.224   3.701 -0.7791  0.4798 -0.4730
 6097SOL    HW118907   1.123   1.216   3.760  1.4310 -0.1133  2.4669
 6097SOL    HW218908   1.226   1.315   3.711 -0.0717  0.2343 -0.1706
 6098SOL     OW18909   5.213   2.196   5.427 -0.0603 -0.8170  0.1048
 6098SOL    HW118910   5.223   2.106   5.456  0.8521 -0.5111  0.7718
 6098SOL    HW218911   5.177   2.242   5.503 -0.6591 -0.6417 -0.2775
 6099SOL     OW18912   1.322   3.739   3.160 -0.5027  0.9056 -0.0196
 6099SOL    HW118913   1.231   3.712   3.175 -0.6999  0.1716 -2.2770
 6099SOL    HW218914   1.355   3.757   3.248 -2.0299 -1.3823  1.1249
 6100SOL     OW18915   3.346   6.677   1.539  0.1316  0.0999  0.0157
 6100SOL    HW118916   3.359   6.657   1.632 -1.7047  0.1431  0.3268
 6100SOL    HW218917   3.430   6.711   1.509  1.2826 -1.5571  1.2202
 6101SOL     OW18918   6.298   1.145   6.263 -0.1437 -0.3228 -0.2194
 6101SOL    HW118919   6.370   1.093   6.299  0.1701  0.0658 -0.2836
 6101SOL    HW218920   6.235   1.081   6.232 -0.8482 -0.7122  1.8518
 6102SOL     OW18921   6.634   3.165   3.691 -0.0780 -0.0237 -0.2662
 6102SOL    HW118922   6.714   3.125   3.658 -0.0023  1.1105 -1.5324
 6102SOL    HW218923   6.570   3.154   3.621 -1.3761 -1.7620  1.0920
 6103SOL     OW18924   3.697   6.465   6.765  0.1895 -0.1781 -0.1265
 6103SOL    HW118925   3.672   6.555   6.787 -3.5209 -1.3020  1.0649
 6103SOL    HW218926   3.669   6.455   6.674 -0.3263 -0.3654  0.0465
 6104SOL     OW18927   5.428   5.410   6.831 -0.8016  0.7937  0.0756
 6104SOL    HW118928   5.353   5.381   6.778  0.1728  0.6629 -1.3111
 6104SOL    HW218929   5.400   5.492   6.871 -2.2914 -0.1397  1.0285
 6105SOL     OW18930   5.921   5.023   0.052  0.2230  0.0617  0.1076
 6105SOL    HW118931   5.990   5.086   0.074 -0.0232  0.2408  0.3712
 6105SOL    HW218932   5.885   5.054  -0.031  0.6928 -0.2299 -0.2121
 6106SOL     OW18933   3.310   3.282   1.287  0.0594  0.3962 -0.2983
 6106SOL    HW118934   3.366   3.207   1.268  0.9741  0.7550  0.8951
 6106SOL    HW218935   3.314   3.335   1.207  0.0828 -0.3949 -0.8355
 6107SOL     OW18936   6.662   5.398   2.907 -0.1588  0.7277  0.1826
 6107SOL    HW118937   6.746   5.413   2.864 -0.4649 -0.3405 -0.8477
 6107SOL    HW218938   6.610   5.352   2.842 -1.0103 -0.0047  1.3389
 6108SOL     OW18939   0.172   3.058   2.158 -0.1849 -0.5466  0.1678
 6108SOL    HW118940   0.249   3.069   2.214 -0.5959  2.3771  0.3084
 6108SOL    HW218941   0.099   3.050   2.218 -0.3850  0.4869  0.0811
 6109SOL     OW18942   3.744   3.587   5.470 -0.4001  0.2441  0.0389
 6109SOL    HW118943   3.836   3.588   5.497  0.0618 -0.0030 -1.4452
 6109SOL    HW218944   3.734   3.507   5.419 -1.3893  0.3689  0.0121
 6110SOL     OW18945   6.475   5.433   4.650  0.0800  0.0300  0.2387
 6110SOL    HW118946   6.517   5.467   4.571 -0.2574 -1.2836 -0.5401
 6110SOL    HW218947   6.410   5.370   4.618  1.0327 -1.7421  1.5878
 6111SOL     OW18948   3.973   2.431   0.093 -0.1889 -0.8177 -0.0969
 6111SOL    HW118949   3.910   2.424   0.021 -0.4606  0.2121  0.0215
 6111SOL    HW218950   4.018   2.347   0.094  0.5517 -0.5016 -2.1782
 6112SOL     OW18951   1.925   3.816   1.704  0.4083  0.4575  0.3813
 6112SOL    HW118952   1.980   3.893   1.717  1.8501 -0.5943  0.7478
 6112SOL    HW218953   1.972   3.763   1.640  0.9789 -1.4669  2.2725
 6113SOL     OW18954   0.254   0.905   0.483 -0.0726 -0.3315  0.0759
 6113SOL    HW118955   0.185   0.942   0.537  0.8311 -1.4678  2.1043
 6113SOL    HW218956   0.288   0.831   0.534  0.6031 -1.6980 -2.2080
 6114SOL     OW18957   7.113   4.542   5.545 -0.4307  0.1190 -0.3513
 6114SOL    HW118958   7.056   4.528   5.469 -1.1850 -0.8495  0.3612
 6114SOL    HW218959   7.138   4.454   5.573 -0.2449  0.4510  0.5845
 6115SOL     OW18960   6.079   1.376   1.786 -0.1562  0.0729  0.6883
 6115SOL    HW118961   6.079   1.410   1.696  2.8196 -0.2263  0.4768
 6115SOL    HW218962   6.061   1.283   1.776  0.6105 -0.0497  0.3057
 6116SOL     OW18963   3.823   1.274   6.594  0.1416  0.3186 -0.3733
 6116SOL    HW118964   3.776   1.278   6.677  1.0625 -1.0203  0.2350
 6116SOL    HW218965   3.762   1.231   6.534  0.7201 -1.9355  0.5561
 6117SOL     OW18966   2.563   1.623   7.077  0.0200  0.1192  0.4536
 6117SOL    HW118967   2.527   1.688   7.138 -0.0420  0.9333 -0.4214
 6117SOL    HW218968   2.597   1.675   7.004 -0.4814 -0.8589 -0.5076
 6118SOL     OW18969   4.397   6.244   3.598 -0.2961 -0.0017 -0.9577
 6118SOL    HW118970   4.388   6.169   3.538 -1.5837  0.2435 -1.1160
 6118SOL    HW218971   4.416   6.205   3.683  1.2303 -0.3760 -1.4490
 6119SOL     OW18972   5.360   0.665   1.689 -0.5578  0.3327  0.4182
 6119SOL    HW118973   5.328   0.612   1.762 -1.3374  0.6413  0.3110
 6119SOL    HW218974   5.283   0.676   1.632  0.2855 -0.7988 -1.0007
 6120SOL     OW18975   5.515   6.239   1.397  0.4848  0.2101 -0.6902
 6120SOL    HW118976   5.593   6.195   1.430  0.4879  0.4906 -0.3253
 6120SOL    HW218977   5.494   6.305   1.463 -0.4884 -0.3477 -0.4298
 6121SOL     OW18978   3.963   2.980   6.491  0.2441  0.2062 -0.2479
 6121SOL    HW118979   3.959   2.946   6.581  1.4635 -1.0665 -0.6357
 6121SOL    HW218980   3.927   3.069   6.497  0.9288  0.3974  1.6198
 6122SOL     OW18981   5.043   5.591   1.281  0.3069 -0.1673  0.0341
 6122SOL    HW118982   5.076   5.665   1.332  2.4397 -0.0506 -1.3627
 6122SOL    HW218983   5.016   5.527   1.347  1.7278  0.4821  1.3274
 6123SOL     OW18984   2.004   1.763   5.318  0.2734  0.3222 -1.1759
 6123SOL    HW118985   2.094   1.775   5.290  0.3658 -1.0896 -1.5585
 6123SOL    HW218986   1.957   1.837   5.280  1.5209  1.9894  0.3780
 6124SOL     OW18987   0.787   4.378   3.009 -0.2969 -0.3926 -0.1706
 6124SOL    HW118988   0.731   4.452   3.030 -0.8666 -0.4528 -1.4233
 6124SOL    HW218989   0.800   4.383   2.915  2.0641 -0.2187  0.1052
 6125SOL     OW18990   1.061   3.284   2.717  0.2052  0.2524  0.8702
 6125SOL    HW118991   1.111   3.221   2.665  0.9712 -0.8373  2.8352
 6125SOL    HW218992   1.105   3.286   2.802 -0.5853  2.4883  1.3004
 6126SOL     OW18993   3.325   3.785   0.815 -0.6930 -0.1347  0.6701
 6126SOL    HW118994   3.254   3.750   0.868 -1.0087 -0.1296  0.2581
 6126SOL    HW218995   3.400   3.729   0.835 -0.5258  0.4945  1.8875
 6127SOL     OW18996   0.678   6.746   2.485  0.2574  0.1221  0.3912
 6127SOL    HW118997   0.642   6.660   2.465 -3.0110  1.0209  1.5949
 6127SOL    HW218998   0.661   6.799   2.407 -0.5309  0.3840  0.7263
 6128SOL     OW18999   5.138   2.392   6.621  0.0221 -0.4645  0.0318
 6128SOL    HW119000   5.079   2.354   6.555 -0.9250  0.5822  0.2352
 6128SOL    HW219001   5.129   2.487   6.609  2.3081 -0.2507 -0.4610
 6129SOL     OW19002   1.739   2.037   2.486 -0.6142  0.4017 -0.1772
 6129SOL    HW119003   1.826   2.001   2.467 -0.3836 -0.2073  1.8002
 6129SOL    HW219004   1.716   2.087   2.408  1.8395  1.1960 -0.4590
 6130SOL     OW19005   6.748   2.990   1.978  0.2899  0.3738  0.2881
 6130SOL    HW119006   6.797   3.000   1.897 -0.0558  2.9420  0.3267
 6130SOL    HW219007   6.799   3.038   2.043 -1.5076  1.9514  0.6180
 6131SOL     OW19008   6.081   2.381   5.766  0.3615  0.7642 -0.4359
 6131SOL    HW119009   6.017   2.448   5.793  0.9438  2.0859 -2.1614
 6131SOL    HW219010   6.144   2.429   5.713  1.1664 -1.0728 -1.2072
 6132SOL     OW19011   2.882   2.863   4.213  0.4184  0.1838  0.2736
 6132SOL    HW119012   2.957   2.894   4.263  1.3716 -0.9108 -0.4271
 6132SOL    HW219013   2.821   2.937   4.212  1.7358  1.2905  0.3520
 6133SOL     OW19014   4.840   5.851   4.546  0.3165 -0.1868  0.1839
 6133SOL    HW119015   4.865   5.920   4.485  0.2379 -1.1431 -0.9556
 6133SOL    HW219016   4.912   5.788   4.542  0.2107 -0.3726  0.9361
 6134SOL     OW19017   4.555   4.833   0.324 -0.5111  0.1711 -0.0426
 6134SOL    HW119018   4.468   4.874   0.325 -0.2192  0.8153  0.1288
 6134SOL    HW219019   4.542   4.749   0.282 -1.0948  0.5510 -0.6421
 6135SOL     OW19020   0.641   0.839   5.847  0.3222  0.0232 -0.5108
 6135SOL    HW119021   0.648   0.907   5.914  0.7018 -0.9106  0.4289
 6135SOL    HW219022   0.646   0.886   5.764  1.8172  1.0447  0.1111
 6136SOL     OW19023   1.248   3.499   4.790 -0.8377  0.0267  0.5642
 6136SOL    HW119024   1.263   3.559   4.717 -0.0961 -0.2567  0.4779
 6136SOL    HW219025   1.331   3.499   4.839 -0.6897 -1.1989  0.3579
 6137SOL     OW19026   4.269   0.190   1.458 -0.4889 -0.2060  0.2579
 6137SOL    HW119027   4.295   0.223   1.543 -0.1777 -0.1798  0.1519
 6137SOL    HW219028   4.291   0.261   1.397 -1.6719  0.2068  0.2832
 6138SOL     OW19029   2.361   1.191   0.507  1.0770  0.0914 -0.4663
 6138SOL    HW119030   2.314   1.117   0.546  0.7937 -0.3598 -1.6345
 6138SOL    HW219031   2.393   1.157   0.423 -0.4942  1.7837 -1.8176
 6139SOL     OW19032   1.147   4.408   4.959 -0.1715 -0.4057 -0.3999
 6139SOL    HW119033   1.104   4.369   4.883 -0.4860  0.7747 -0.8560
 6139SOL    HW219034   1.159   4.500   4.935  2.0646 -0.5359 -0.0467
 6140SOL     OW19035   4.403   4.936   2.029 -0.4041 -0.3305  0.6580
 6140SOL    HW119036   4.308   4.947   2.037 -0.1043  2.3797  1.2147
 6140SOL    HW219037   4.419   4.934   1.935 -1.0242 -1.3735  0.5531
 6141SOL     OW19038   2.693   3.311   2.334 -0.3407 -0.3389 -0.1260
 6141SOL    HW119039   2.619   3.251   2.340  0.5046 -1.2775  1.4270
 6141SOL    HW219040   2.761   3.261   2.288 -0.0497 -0.1373  0.0785
 6142SOL     OW19041   5.042   0.717   5.865  0.6662  0.0171 -0.8822
 6142SOL    HW119042   4.977   0.746   5.801  0.8552 -0.7720 -1.4527
 6142SOL    HW219043   5.091   0.796   5.887  0.7981  0.2453 -1.9549
 6143SOL     OW19044   5.171   3.029   4.455  0.2802  0.1831 -0.0318
 6143SOL    HW119045   5.213   3.076   4.383 -0.9805  0.4361 -0.6312
 6143SOL    HW219046   5.086   3.001   4.419  0.4932 -1.5295  0.6791
 6144SOL     OW19047   2.599   1.988   5.923 -0.6985 -0.5630  0.0504
 6144SOL    HW119048   2.567   2.043   5.851  0.8714 -1.3843 -1.3595
 6144SOL    HW219049   2.653   1.922   5.880  0.8890 -0.6701  2.0464
 6145SOL     OW19050   2.358   3.573   4.666  0.1490  0.6730 -0.1396
 6145SOL    HW119051   2.350   3.640   4.598 -0.3921 -1.0126 -1.8336
 6145SOL    HW219052   2.395   3.497   4.620 -2.6065 -1.3951  0.7484
 6146SOL     OW19053   0.587   3.010   4.724  0.1562  0.3685 -0.1970
 6146SOL    HW119054   0.595   2.991   4.631  1.4733 -1.0526  0.1669
 6146SOL    HW219055   0.571   3.104   4.729 -0.4970  0.3716 -1.8593
 6147SOL     OW19056   0.972   1.205   1.896  0.0609 -0.7296  0.4915
 6147SOL    HW119057   0.980   1.112   1.914 -0.2952 -1.4150 -2.3647
 6147SOL    HW219058   1.058   1.241   1.914  0.7116 -1.9659 -0.0475
 6148SOL     OW19059   1.101   3.777   5.165  0.1692  0.1779  0.2083
 6148SOL    HW119060   1.013   3.793   5.198  0.8769 -0.4427  2.6025
 6148SOL    HW219061   1.095   3.691   5.123 -0.2539 -0.1710  0.9535
 6149SOL     OW19062   4.981   0.349   6.651 -0.4953  0.4925  0.7614
 6149SOL    HW119063   5.023   0.307   6.726  1.1846 -2.3049 -1.5369
 6149SOL    HW219064   4.908   0.292   6.628 -1.8033  2.0134  0.9759
 6150SOL     OW19065   2.613   4.069   3.563  0.2240 -0.0006  0.4304
 6150SOL    HW119066   2.560   3.989   3.574  0.3780 -0.2102 -0.2839
 6150SOL    HW219067   2.550   4.135   3.533  0.3900 -0.3103 -0.6449
 6151SOL     OW19068   0.869   6.527   6.041  0.1606 -0.0119 -0.2684
 6151SOL    HW119069   0.799   6.546   5.979  0.8493 -0.4076 -1.1833
 6151SOL    HW219070   0.916   6.453   6.003  0.3817 -0.4974  0.9077
 6152SOL     OW19071   6.967   5.156   1.400  0.0103  0.3833  0.0735
 6152SOL    HW119072   6.999   5.067   1.417  1.4541  0.5664 -1.4594
 6152SOL    HW219073   6.901   5.144   1.331 -1.1113  0.3492  1.1073
 6153SOL     OW19074   4.753   3.633   1.168 -0.3947 -0.1201 -0.1697
 6153SOL    HW119075   4.682   3.693   1.190 -0.6933  0.0187 -1.4288
 6153SOL    HW219076   4.712   3.546   1.171 -0.8526  0.0210 -1.6953
 6154SOL     OW19077   0.123   1.782   0.599 -0.3050 -1.0025 -0.3920
 6154SOL    HW119078   0.186   1.744   0.538 -1.1258 -0.9858 -1.2813
 6154SOL    HW219079   0.078   1.849   0.548 -1.4408 -1.4153  0.0389
 6155SOL     OW19080   0.014   1.396   3.614  0.0498 -0.1974 -0.2559
 6155SOL    HW119081  -0.015   1.343   3.540  1.0924 -0.5495 -0.4311
 6155SOL    HW219082   0.014   1.486   3.581  3.7297 -0.6331 -1.8414
 6156SOL     OW19083   1.135   3.043   2.586  0.4121 -0.2076  0.1679
 6156SOL    HW119084   1.092   2.973   2.635  0.4273  0.5583  1.3334
 6156SOL    HW219085   1.111   3.027   2.495  0.4180 -1.7142  0.4008
 6157SOL     OW19086   3.806   5.117   1.593  0.2700  0.2021  0.8334
 6157SOL    HW119087   3.760   5.201   1.600 -2.7467 -1.1764 -0.4830
 6157SOL    HW219088   3.850   5.121   1.508  0.0987  0.4262  0.7526
 6158SOL     OW19089   2.308   0.660   4.556  0.2768 -0.3553 -0.1020
 6158SOL    HW119090   2.215   0.678   4.568  0.4552  1.1008 -0.6956
 6158SOL    HW219091   2.338   0.630   4.642 -0.2247  1.6252  0.8298
 6159SOL     OW19092   4.005   3.223   3.947 -0.1733  0.5520 -0.3682
 6159SOL    HW119093   4.031   3.206   3.856 -1.3256 -1.5219 -0.3786
 6159SOL    HW219094   3.942   3.295   3.941 -0.5258  0.1803 -1.2709
 6160SOL     OW19095   0.705   2.293   3.730 -0.1622 -0.4195 -0.4012
 6160SOL    HW119096   0.641   2.268   3.796  0.1970  0.1605  0.1819
 6160SOL    HW219097   0.779   2.233   3.744  0.4711  0.5593  0.6335
 6161SOL     OW19098   4.847   4.400   4.214  0.6632 -0.1447 -0.4043
 6161SOL    HW119099   4.854   4.314   4.255  1.9270 -0.5296 -1.3866
 6161SOL    HW219100   4.874   4.387   4.123  2.9860  1.6437 -0.0862
 6162SOL     OW19101   3.929   4.240   6.143  0.3678  0.1520  0.1233
 6162SOL    HW119102   3.847   4.242   6.096 -0.2082  1.9679  1.1237
 6162SOL    HW219103   3.908   4.274   6.230  1.7449 -1.4005  1.1486
 6163SOL     OW19104   7.098   4.142   4.685 -0.1011 -0.3710 -0.2618
 6163SOL    HW119105   7.024   4.168   4.630  0.4786  0.1915 -0.7845
 6163SOL    HW219106   7.164   4.111   4.623  0.2959 -0.3907  0.1677
 6164SOL     OW19107   2.670   4.873   3.121 -0.0067  0.6550 -0.4087
 6164SOL    HW119108   2.659   4.921   3.203 -0.7170  1.0256 -0.7093
 6164SOL    HW219109   2.593   4.815   3.117  2.8648 -3.9233  2.1318
 6165SOL     OW19110   1.218   2.519   1.897  0.3606  0.5255  0.1273
 6165SOL    HW119111   1.300   2.558   1.928  0.0432 -0.4792  2.5015
 6165SOL    HW219112   1.154   2.542   1.964 -0.7131 -0.7859 -0.4028
 6166SOL     OW19113   0.408   4.730   5.151 -0.5820  1.1434 -0.6455
 6166SOL    HW119114   0.443   4.641   5.146 -1.6582  0.5486  1.3783
 6166SOL    HW219115   0.316   4.721   5.127 -0.7379  1.6751 -0.2606
 6167SOL     OW19116   3.840   2.565   5.548 -0.1083  0.3334  0.0611
 6167SOL    HW119117   3.876   2.518   5.623  1.4506  0.5642 -0.4982
 6167SOL    HW219118   3.889   2.531   5.473 -2.0357 -0.3218 -0.9632
 6168SOL     OW19119   3.835   5.499   0.477  0.1016  0.2837 -0.1317
 6168SOL    HW119120   3.886   5.509   0.396  0.7413  0.3184  0.2751
 6168SOL    HW219121   3.751   5.465   0.447  0.8330 -1.1434 -0.6865
 6169SOL     OW19122   6.435   1.790   0.293  0.4672  0.3749  0.4080
 6169SOL    HW119123   6.443   1.827   0.381 -1.4620  1.1509  0.2977
 6169SOL    HW219124   6.379   1.852   0.246  0.3320 -0.7373 -0.9588
 6170SOL     OW19125   0.335   0.336   4.256  0.2512  0.1929 -0.3078
 6170SOL    HW119126   0.303   0.275   4.323  0.3753 -0.3590 -0.7509
 6170SOL    HW219127   0.317   0.423   4.293 -0.6858 -0.1082 -0.0331
 6171SOL     OW19128   6.636   4.598   7.205  0.7659 -0.2909  0.6755
 6171SOL    HW119129   6.687   4.567   7.279  2.6095  0.2730 -0.3033
 6171SOL    HW219130   6.636   4.693   7.214  1.0124 -0.2187 -0.0355
 6172SOL     OW19131   4.384   3.029   6.769  0.2458 -0.6308 -0.2880
 6172SOL    HW119132   4.316   3.083   6.810  0.5266 -1.3843  1.2160
 6172SOL    HW219133   4.350   3.011   6.681 -2.0975 -1.9635  0.7941
 6173SOL     OW19134   1.691   3.774   4.160 -0.6868 -0.6295 -0.1599
 6173SOL    HW119135   1.705   3.701   4.220 -0.5392 -0.6993 -0.2785
 6173SOL    HW219136   1.708   3.852   4.213 -0.4855 -0.6929 -0.1285
 6174SOL     OW19137   4.984   1.147   6.453 -0.0874  0.1489 -0.4723
 6174SOL    HW119138   4.893   1.159   6.482 -0.5690 -0.5538 -1.6403
 6174SOL    HW219139   5.027   1.104   6.527 -0.4535  1.3467  0.4630
 6175SOL     OW19140   1.663   5.958   1.450  0.6239 -0.3514 -0.3432
 6175SOL    HW119141   1.717   6.004   1.386  0.1629  0.6291 -0.0480
 6175SOL    HW219142   1.717   5.884   1.479  1.1484 -0.3439 -1.2603
 6176SOL     OW19143   3.844   1.793   5.401 -0.3325  0.0547  0.0329
 6176SOL    HW119144   3.854   1.761   5.312  0.0562  0.0948  0.0568
 6176SOL    HW219145   3.828   1.887   5.392  0.6939  0.2413  0.0335
 6177SOL     OW19146   4.377   1.541   3.262  0.0140 -0.0355 -0.2121
 6177SOL    HW119147   4.292   1.506   3.239 -0.0081 -0.7978  0.9589
 6177SOL    HW219148   4.390   1.516   3.353  1.2412  0.5640 -0.1956
 6178SOL     OW19149   5.526   3.453   0.585 -0.2604  0.2180  0.3531
 6178SOL    HW119150   5.491   3.373   0.547  2.3445 -0.5896 -0.5579
 6178SOL    HW219151   5.514   3.519   0.517  1.5042 -0.4748 -0.6888
 6179SOL     OW19152   3.517   4.794   6.228 -0.1205  0.0009  0.0084
 6179SOL    HW119153   3.537   4.819   6.138 -1.2257 -1.7476 -0.7736
 6179SOL    HW219154   3.450   4.856   6.257  1.1447  1.3784  0.1355
 6180SOL     OW19155   6.224   6.782   4.610  0.1851 -0.7438  0.0310
 6180SOL    HW119156   6.171   6.702   4.604  1.2284 -1.5209  0.7555
 6180SOL    HW219157   6.247   6.789   4.702 -1.0417  1.2062  0.2298
 6181SOL     OW19158   4.186   0.989   0.827 -0.8329 -0.0199 -0.7045
 6181SOL    HW119159   4.169   1.077   0.858 -0.1365  0.4486 -1.5870
 6181SOL    HW219160   4.100   0.953   0.806 -0.9867  1.3219 -2.5742
 6182SOL     OW19161   6.959   3.800   2.377  0.3633 -0.1110  0.6272
 6182SOL    HW119162   6.883   3.857   2.368 -0.4938 -1.3979 -0.8318
 6182SOL    HW219163   6.926   3.724   2.427  0.8588 -0.3896  0.5403
 6183SOL     OW19164   2.881   1.434   0.302 -0.0527 -0.1077 -0.3194
 6183SOL    HW119165   2.956   1.489   0.280 -0.0333 -0.4124 -1.0383
 6183SOL    HW219166   2.917   1.346   0.310 -0.4137 -0.3465 -1.2191
 6184SOL     OW19167   1.127   2.516   3.837  1.1866  0.2855  0.1629
 6184SOL    HW119168   1.196   2.451   3.828  1.3375  0.1618  1.9311
 6184SOL    HW219169   1.143   2.557   3.922 -1.0476  0.0735  0.7550
 6185SOL     OW19170   3.169   4.127   7.090 -0.0307 -0.0123  0.3608
 6185SOL    HW119171   3.129   4.144   7.004  1.6465  1.0478 -0.2616
 6185SOL    HW219172   3.154   4.034   7.106 -1.4523  0.0417 -0.4973
 6186SOL     OW19173   0.260   3.600   7.026  0.3173 -0.0598  0.0993
 6186SOL    HW119174   0.250   3.505   7.033 -0.3083  0.1218  2.3571
 6186SOL    HW219175   0.178   3.635   7.061  0.6322  1.3393 -0.4877
 6187SOL     OW19176   2.030   3.636   2.210  0.3141  0.2284  0.1728
 6187SOL    HW119177   1.965   3.624   2.279  1.1084  1.4334  1.1718
 6187SOL    HW219178   2.008   3.569   2.144 -0.5202 -0.8976  1.5343
 6188SOL     OW19179   3.552   5.633   2.825  0.2048 -0.4616 -0.8449
 6188SOL    HW119180   3.594   5.561   2.777  0.4818  0.1688 -1.5731
 6188SOL    HW219181   3.460   5.626   2.802 -0.0811 -1.6687  0.5218
 6189SOL     OW19182   3.134   6.572   5.091 -0.0741  0.5789 -0.3341
 6189SOL    HW119183   3.050   6.549   5.131  0.7226  0.1961  1.1999
 6189SOL    HW219184   3.123   6.550   4.998 -0.9058 -1.7512  0.2390
 6190SOL     OW19185   3.266   6.767   4.083 -0.3646 -0.2217 -0.0904
 6190SOL    HW119186   3.272   6.753   4.178 -0.3181  0.5765  0.0253
 6190SOL    HW219187   3.259   6.862   4.073  0.1564 -0.2653 -0.9152
 6191SOL     OW19188   6.251   2.679   3.459 -0.2362 -0.6058 -0.1646
 6191SOL    HW119189   6.217   2.760   3.421  0.6158  0.6908  1.6860
 6191SOL    HW219190   6.288   2.632   3.385  1.7875  2.0120 -0.9931
 6192SOL     OW19191   3.948   0.424   1.136  0.0590  0.3388 -0.0781
 6192SOL    HW119192   3.948   0.331   1.114 -1.2036  0.3009 -0.0237
 6192SOL    HW219193   3.896   0.429   1.216 -0.7999  1.1925 -0.6585
 6193SOL     OW19194   1.353   3.426   1.537 -0.1038  0.4450  0.6501
 6193SOL    HW119195   1.395   3.418   1.452 -0.4784 -1.2585  0.5904
 6193SOL    HW219196   1.422   3.458   1.595  1.1319 -1.6635  0.4180
 6194SOL     OW19197   2.435   6.014   4.578 -0.5568 -0.3064 -0.6027
 6194SOL    HW119198   2.419   5.920   4.574 -0.6468 -0.3338  0.3173
 6194SOL    HW219199   2.432   6.043   4.487 -1.2985 -1.0603 -0.8237
 6195SOL     OW19200   0.618   2.223   6.856 -0.0578  0.3444 -0.3123
 6195SOL    HW119201   0.534   2.211   6.813  1.1311  0.7410 -2.9292
 6195SOL    HW219202   0.651   2.135   6.870  0.0052  0.2149 -1.2340
 6196SOL     OW19203   6.769   6.465   2.131 -0.0567  0.2785  0.3532
 6196SOL    HW119204   6.809   6.484   2.216 -1.6307 -0.8971  1.4151
 6196SOL    HW219205   6.697   6.527   2.124 -0.1051  0.1862  0.0009
 6197SOL     OW19206   5.139   0.739   0.488 -0.0828 -0.2599 -0.2042
 6197SOL    HW119207   5.108   0.695   0.409 -0.0746 -1.0675  0.2289
 6197SOL    HW219208   5.061   0.783   0.522 -0.2034 -0.3229 -0.3945
 6198SOL     OW19209   1.038   5.631   5.966  0.0363 -0.1891 -0.1443
 6198SOL    HW119210   1.108   5.569   5.944 -0.2560 -0.2738 -0.8596
 6198SOL    HW219211   0.958   5.587   5.938 -0.2128  0.3402 -0.2747
 6199SOL     OW19212   2.562   0.454   1.663  0.1913 -0.0769 -0.4743
 6199SOL    HW119213   2.490   0.488   1.610 -0.7678 -1.0189  0.2105
 6199SOL    HW219214   2.569   0.515   1.736 -2.2417 -1.7989  1.3431
 6200SOL     OW19215   4.864   1.108   1.443  0.2934  0.2301 -0.1045
 6200SOL    HW119216   4.884   1.022   1.406  0.5256  0.2734 -0.0795
 6200SOL    HW219217   4.837   1.089   1.533  1.4389  0.2755  0.2688
 6201SOL     OW19218   1.195   0.394   7.073 -0.3398 -0.6401  0.0664
 6201SOL    HW119219   1.146   0.328   7.024  0.9993 -1.2731 -0.4783
 6201SOL    HW219220   1.245   0.442   7.007  0.4100 -0.5697  0.6611
 6202SOL     OW19221   5.059   1.914   4.651 -0.3368 -0.4939  0.3905
 6202SOL    HW119222   4.976   1.873   4.626 -0.4513  0.0572 -0.1661
 6202SOL    HW219223   5.035   1.975   4.721 -0.7942  1.2616 -1.2301
 6203SOL     OW19224   3.710   1.681   2.031 -0.0881  0.1271 -0.0754
 6203SOL    HW119225   3.700   1.590   2.002 -2.9448  0.4534 -0.4601
 6203SOL    HW219226   3.778   1.678   2.098 -0.5227 -2.4173  0.3463
 6204SOL     OW19227   4.325   5.727   4.971  0.0954 -0.4672 -0.2677
 6204SOL    HW119228   4.307   5.658   4.908 -0.2139  0.0592 -0.7639
 6204SOL    HW219229   4.313   5.686   5.057  1.6399 -1.4993 -0.5031
 6205SOL     OW19230   4.684   4.198   5.355  0.2606 -0.2152  0.2738
 6205SOL    HW119231   4.655   4.148   5.432 -2.8364 -2.3795 -2.0348
 6205SOL    HW219232   4.614   4.262   5.340  1.5241  1.1605  0.0027
 6206SOL     OW19233   5.436   5.471   2.399  0.3920 -0.1438 -0.0275
 6206SOL    HW119234   5.501   5.508   2.339 -1.0005  0.4004 -1.2828
 6206SOL    HW219235   5.475   5.390   2.431  1.2116 -0.4320 -1.6661
 6207SOL     OW19236   4.208   2.248   0.377 -0.0737 -0.1983 -0.0093
 6207SOL    HW119237   4.228   2.189   0.304 -1.7513  1.0974 -1.6346
 6207SOL    HW219238   4.114   2.238   0.390  0.0393  0.3168  1.3510
 6208SOL     OW19239   1.622   5.809   6.544  0.1884 -0.0937 -0.4465
 6208SOL    HW119240   1.674   5.798   6.465  0.3418 -2.4443 -0.0853
 6208SOL    HW219241   1.677   5.773   6.614 -0.1846  1.3941  0.6602
 6209SOL     OW19242   4.641   4.885   5.662  0.4348  0.1447 -0.7475
 6209SOL    HW119243   4.718   4.857   5.712  0.5968  0.5977 -0.7375
 6209SOL    HW219244   4.676   4.947   5.598  0.3104 -0.7960 -1.7523
 6210SOL     OW19245   5.504   4.734   5.350 -0.4900  0.5483  0.2740
 6210SOL    HW119246   5.439   4.790   5.391 -1.5374 -0.3701 -0.0944
 6210SOL    HW219247   5.468   4.646   5.355  0.4953  0.0768 -0.3806
 6211SOL     OW19248   6.561   5.531   3.472  0.4048  0.8175  0.0889
 6211SOL    HW119249   6.478   5.556   3.512  0.3411 -1.0899  1.2509
 6211SOL    HW219250   6.601   5.614   3.448  0.5834  2.2200  4.3623
 6212SOL     OW19251   3.309   4.892   1.443 -0.3771 -0.3073  0.5303
 6212SOL    HW119252   3.322   4.798   1.434 -0.5447 -0.2926  0.0865
 6212SOL    HW219253   3.340   4.913   1.531  1.5562 -0.4456 -0.0839
 6213SOL     OW19254   5.889   3.582   6.499 -0.3593 -0.9472  0.1324
 6213SOL    HW119255   5.800   3.596   6.465 -0.3007  0.4702  0.4975
 6213SOL    HW219256   5.887   3.620   6.586  1.5574  2.5457 -1.1613
 6214SOL     OW19257   5.696   7.105   1.149  0.2692 -0.8140 -0.3237
 6214SOL    HW119258   5.690   7.145   1.062 -1.7329  0.3191  0.2795
 6214SOL    HW219259   5.605   7.091   1.176  0.8476 -1.2128  1.5626
 6215SOL     OW19260   7.193   6.371   6.706  0.4498 -0.2391  0.4943
 6215SOL    HW119261   7.274   6.420   6.692 -0.2910  0.9496  0.2455
 6215SOL    HW219262   7.221   6.280   6.715  1.8204  0.1719  0.5508
 6216SOL     OW19263   1.101   5.220   1.298 -0.5793  0.1615 -0.0516
 6216SOL    HW119264   1.010   5.193   1.284 -0.1279 -0.8803 -1.1098
 6216SOL    HW219265   1.110   5.224   1.393 -0.7029 -3.5285  0.2454
 6217SOL     OW19266   0.235   0.727   6.835  0.4527  0.0465 -0.0171
 6217SOL    HW119267   0.238   0.667   6.760 -1.1655  0.4866 -0.4816
 6217SOL    HW219268   0.236   0.814   6.795 -1.5530  0.2910  0.3428
 6218SOL     OW19269   2.202   0.144   2.943  0.1434 -0.1268 -0.1936
 6218SOL    HW119270   2.245   0.188   3.017  1.4542 -1.0320 -0.3826
 6218SOL    HW219271   2.203   0.051   2.967 -0.9274 -0.2721 -0.6298
 6219SOL     OW19272   2.934   5.723   5.735  0.1121 -0.0759  0.4762
 6219SOL    HW119273   2.941   5.743   5.642  2.7175 -1.4939  0.2878
 6219SOL    HW219274   2.912   5.630   5.739 -4.1108  0.7255  1.3898
 6220SOL     OW19275   1.862   7.235   5.384 -0.1490  0.3112 -0.4725
 6220SOL    HW119276   1.891   7.146   5.407 -1.6241 -0.1940 -0.4858
 6220SOL    HW219277   1.782   7.248   5.434  0.0715  1.6789 -0.4269
 6221SOL     OW19278   2.485   4.536   3.816  0.3372  0.2075  0.2775
 6221SOL    HW119279   2.514   4.628   3.815 -0.2229  0.4992 -3.5749
 6221SOL    HW219280   2.535   4.495   3.745 -2.8736 -1.1766 -1.3608
 6222SOL     OW19281   5.267   2.671   5.251  0.5087 -0.1416 -0.2700
 6222SOL    HW119282   5.200   2.626   5.303 -0.3395  1.0512 -0.2933
 6222SOL    HW219283   5.295   2.744   5.306  0.2371  0.6253 -1.1235
 6223SOL     OW19284   3.990   2.475   5.348  0.3424  0.3752 -0.5632
 6223SOL    HW119285   4.017   2.408   5.411 -2.5729  0.9062  1.5058
 6223SOL    HW219286   3.989   2.430   5.264  1.7147 -1.1807  0.1985
 6224SOL     OW19287   6.340   2.660   7.117 -0.4711 -0.2318  0.1715
 6224SOL    HW119288   6.417   2.703   7.080 -1.1826  0.8362 -0.0880
 6224SOL    HW219289   6.284   2.643   7.041  0.1488 -2.4240  0.1306
 6225SOL     OW19290   6.355   0.518   5.146 -0.0972 -0.5513  0.2857
 6225SOL    HW119291   6.329   0.484   5.061 -1.6734 -2.1139  1.3437
 6225SOL    HW219292   6.347   0.613   5.138 -0.4220 -0.6954 -1.2207
 6226SOL     OW19293   1.058   0.586   5.886 -0.1878  0.4386  0.6312
 6226SOL    HW119294   1.074   0.680   5.875 -0.8820  0.4300 -0.6825
 6226SOL    HW219295   0.962   0.579   5.890 -0.2204 -0.3143 -0.7359
 6227SOL     OW19296   0.646   1.370   2.958 -0.2488 -0.0364 -0.5083
 6227SOL    HW119297   0.590   1.336   2.888 -1.0364 -0.8861  0.4999
 6227SOL    HW219298   0.680   1.292   3.001  0.3813  0.4810 -0.0549
 6228SOL     OW19299   7.021   4.403   0.774 -0.2564  0.4487 -0.3946
 6228SOL    HW119300   7.075   4.432   0.848 -0.9837  1.7129 -0.3201
 6228SOL    HW219301   6.973   4.328   0.808  0.3771  0.2077 -0.0038
 6229SOL     OW19302   0.851   1.550   0.210 -0.1901 -0.2731 -0.1545
 6229SOL    HW119303   0.791   1.623   0.224 -0.0267 -0.0204 -0.7512
 6229SOL    HW219304   0.908   1.550   0.287 -0.1503  0.2644 -0.1814
 6230SOL     OW19305   1.056   4.489   5.234  0.0844  0.2001  0.0869
 6230SOL    HW119306   1.067   4.428   5.160 -0.3030 -1.1213  1.0792
 6230SOL    HW219307   1.079   4.575   5.198  0.0278 -0.4292 -1.5348
 6231SOL     OW19308   2.690   0.904   2.109 -0.4646 -0.2859  0.2320
 6231SOL    HW119309   2.677   0.942   2.022 -1.6504  3.5139  1.8570
 6231SOL    HW219310   2.777   0.936   2.135 -1.6488  1.8841  1.7949
 6232SOL     OW19311   0.149   0.888   1.273  0.0190  0.2273  0.0299
 6232SOL    HW119312   0.234   0.845   1.276 -1.0769 -2.1243 -0.6875
 6232SOL    HW219313   0.151   0.939   1.192  1.4293  1.8365  1.0233
 6233SOL     OW19314   2.699   6.173   4.993  0.1057  0.6159 -0.2368
 6233SOL    HW119315   2.699   6.116   4.916 -0.5110  0.9480 -0.4817
 6233SOL    HW219316   2.633   6.239   4.975 -1.0860 -0.1319  1.2023
 6234SOL     OW19317   4.923   3.882   1.717 -0.6207  0.6324  0.1485
 6234SOL    HW119318   4.899   3.857   1.806  1.6036  0.8545  0.8606
 6234SOL    HW219319   4.839   3.887   1.671 -1.7299 -0.7496  1.8681
 6235SOL     OW19320   4.339   0.114   4.905 -0.1674  0.2030 -0.5684
 6235SOL    HW119321   4.424   0.158   4.903  0.8716 -1.5684  0.9408
 6235SOL    HW219322   4.358   0.028   4.943 -2.7726  0.1027  0.7364
 6236SOL     OW19323   1.552   3.667   5.970 -0.3970  0.3344  0.3910
 6236SOL    HW119324   1.617   3.711   5.915 -0.0677 -0.4394  0.1432
 6236SOL    HW219325   1.576   3.692   6.059  0.4818 -0.2255  0.3302
 6237SOL     OW19326   5.108   4.107   2.362  0.2865  0.4256  0.6838
 6237SOL    HW119327   5.103   4.047   2.288  1.3445  1.0388  0.0911
 6237SOL    HW219328   5.158   4.059   2.429 -0.4251 -0.0202  0.9027
 6238SOL     OW19329   3.245   3.425   0.209  0.5046  0.1951 -0.0724
 6238SOL    HW119330   3.311   3.408   0.277  0.3572  0.9520  0.2807
 6238SOL    HW219331   3.261   3.516   0.183 -0.0718  0.2250 -0.3427
 6239SOL     OW19332   1.450   2.058   0.510  0.0207 -0.3880  0.3069
 6239SOL    HW119333   1.526   2.001   0.525  0.4744  0.1589  0.1251
 6239SOL    HW219334   1.437   2.103   0.593 -0.0756 -0.4435  0.3222
 6240SOL     OW19335   6.061   6.559   4.608 -0.0325 -0.3191  0.3299
 6240SOL    HW119336   5.978   6.522   4.640  1.1024 -1.6358  1.9279
 6240SOL    HW219337   6.097   6.490   4.551  0.7496 -0.4921  1.0180
 6241SOL     OW19338   0.541   6.364   1.599  0.2247  0.2630 -0.1564
 6241SOL    HW119339   0.506   6.342   1.512  0.7350 -0.1139 -0.2724
 6241SOL    HW219340   0.609   6.429   1.581 -0.4779  1.0632  0.0760
 6242SOL     OW19341   6.679   2.819   3.910  0.1774  0.6647 -0.0897
 6242SOL    HW119342   6.765   2.808   3.949  0.0131 -0.5776 -0.0354
 6242SOL    HW219343   6.690   2.790   3.819 -0.5254 -1.0588  0.3364
 6243SOL     OW19344   3.402   1.507   4.942  0.4187 -0.3928 -0.3099
 6243SOL    HW119345   3.484   1.546   4.912 -0.8116  1.3544 -1.5505
 6243SOL    HW219346   3.370   1.456   4.867 -0.9827  1.2351 -0.8836
 6244SOL     OW19347   5.129   0.881   1.220  0.2187 -0.5499  0.0535
 6244SOL    HW119348   5.132   0.839   1.306 -3.2386 -2.2176 -0.4553
 6244SOL    HW219349   5.189   0.829   1.166 -1.8432 -3.2968  0.1696
 6245SOL     OW19350   1.244   7.095   1.880  0.4883 -0.8380  0.2616
 6245SOL    HW119351   1.244   7.016   1.935 -0.2538 -0.2818  1.0849
 6245SOL    HW219352   1.235   7.062   1.791  1.9589 -1.7850  0.4112
 6246SOL     OW19353   4.226   2.072   2.846  0.6069 -0.6874  0.4307
 6246SOL    HW119354   4.235   1.997   2.906  1.8104 -1.2144 -0.3636
 6246SOL    HW219355   4.288   2.137   2.879  0.2936 -0.4329  0.5272
 6247SOL     OW19356   6.623   4.244   4.893  0.3475 -0.0621  0.0416
 6247SOL    HW119357   6.606   4.336   4.911  0.3912 -0.2812  1.2542
 6247SOL    HW219358   6.611   4.200   4.977  0.6172 -1.1225 -0.4579
 6248SOL     OW19359   5.132   2.798   2.668  0.2986  0.0971 -0.0118
 6248SOL    HW119360   5.129   2.817   2.574 -0.0478 -1.5377 -0.3683
 6248SOL    HW219361   5.054   2.838   2.704 -0.4300 -0.6354 -0.7313
 6249SOL     OW19362   3.533   4.225   3.162 -0.3446  0.4380 -0.0789
 6249SOL    HW119363   3.488   4.217   3.247  2.0990  1.7286  1.4598
 6249SOL    HW219364   3.497   4.305   3.124 -1.2842 -0.0133 -0.1739
 6250SOL     OW19365   0.443   5.779   6.813 -0.6100 -0.3872  0.0069
 6250SOL    HW119366   0.396   5.775   6.730 -0.8833  0.0509  0.1400
 6250SOL    HW219367   0.375   5.783   6.880 -0.4366 -2.5286  0.3817
 6251SOL     OW19368   2.823   6.050   2.014  0.0197 -0.1117 -0.2409
 6251SOL    HW119369   2.899   6.015   1.969  0.8384 -1.0235  1.7277
 6251SOL    HW219370   2.784   5.975   2.058 -0.6243  0.7392  0.7031
 6252SOL     OW19371   3.626   7.219   3.682  0.1203 -0.1608 -0.2769
 6252SOL    HW119372   3.629   7.141   3.737  1.5113 -0.3424 -0.5739
 6252SOL    HW219373   3.709   7.218   3.635  0.0386  1.3619 -0.4910
 6253SOL     OW19374   4.729   1.471   2.664 -0.2095  0.4581  0.0019
 6253SOL    HW119375   4.717   1.536   2.733  0.0348  1.3295 -0.7496
 6253SOL    HW219376   4.645   1.467   2.619 -0.2442  0.1940  0.0871
 6254SOL     OW19377   2.977   1.092   5.975 -0.4777  0.0894 -0.6070
 6254SOL    HW119378   3.016   1.047   5.900  0.3554 -1.4362  0.6746
 6254SOL    HW219379   2.920   1.027   6.015 -0.2459  0.5770  0.5613
 6255SOL     OW19380   5.173   4.331   3.391 -0.3670 -0.2660  0.3877
 6255SOL    HW119381   5.105   4.392   3.363 -0.0374 -0.0782 -0.0037
 6255SOL    HW219382   5.217   4.304   3.310 -1.0625 -1.6905  0.4484
 6256SOL     OW19383   4.770   5.074   5.497  0.3839 -0.0712  0.5482
 6256SOL    HW119384   4.821   5.155   5.499  0.0904  0.1084  0.7479
 6256SOL    HW219385   4.792   5.035   5.412  1.0098 -0.0966  0.7140
 6257SOL     OW19386   0.722   3.876   0.786  0.0746  0.3406  0.0059
 6257SOL    HW119387   0.656   3.833   0.840  0.7045  0.2963  0.7619
 6257SOL    HW219388   0.740   3.814   0.716  0.3479 -0.2748  0.6063
 6258SOL     OW19389   6.242   0.228   0.038 -0.5599  0.1730 -0.1266
 6258SOL    HW119390   6.174   0.294   0.020 -0.8695 -0.0301  0.2743
 6258SOL    HW219391   6.194   0.145   0.040 -0.3337  0.0551  0.3890
 6259SOL     OW19392   5.173   4.181   2.759 -0.4173  0.2217 -0.8371
 6259SOL    HW119393   5.085   4.201   2.725  0.1047  0.5421 -2.0851
 6259SOL    HW219394   5.166   4.092   2.794 -1.0335 -0.0993 -1.7361
 6260SOL     OW19395   6.277   7.181   5.366  0.5984 -0.1123  0.5351
 6260SOL    HW119396   6.321   7.171   5.282 -0.0800  0.5888  0.0740
 6260SOL    HW219397   6.190   7.214   5.343 -0.2508 -1.6096  1.3896
 6261SOL     OW19398   0.277   5.284   1.006 -0.9940 -0.0877 -0.1957
 6261SOL    HW119399   0.337   5.353   1.037  1.3741 -1.8698 -0.4957
 6261SOL    HW219400   0.204   5.331   0.967  0.4289  2.2500 -0.2307
 6262SOL     OW19401   6.502   5.564   5.302 -0.2953  0.3389 -0.2089
 6262SOL    HW119402   6.548   5.596   5.380 -0.7710  2.4450 -0.7366
 6262SOL    HW219403   6.516   5.631   5.236 -2.6221  0.2256 -0.9270
 6263SOL     OW19404   6.127   0.912   6.192  0.1787  0.1095 -0.6890
 6263SOL    HW119405   6.033   0.918   6.211  0.4542 -0.3778  1.0033
 6263SOL    HW219406   6.139   0.823   6.158  0.1843 -0.2588  0.2396
 6264SOL     OW19407   1.015   6.092   7.027 -0.1788 -0.7866  0.1561
 6264SOL    HW119408   0.966   6.098   7.109 -0.9345 -0.0023 -0.3238
 6264SOL    HW219409   0.955   6.128   6.961  1.1373  0.4594 -0.4185
 6265SOL     OW19410   4.252   7.134   0.897  0.1921  0.2369  0.2156
 6265SOL    HW119411   4.199   7.152   0.974  0.8787 -2.6695  1.5229
 6265SOL    HW219412   4.190   7.130   0.824 -0.5350  2.5274  0.6415
 6266SOL     OW19413   0.887   5.116   5.325  0.0608 -0.7561  0.0130
 6266SOL    HW119414   0.884   5.021   5.337 -1.4711 -0.7450 -0.1022
 6266SOL    HW219415   0.800   5.138   5.293 -1.1263  1.2526  4.0507
 6267SOL     OW19416   1.743   1.393   1.472 -0.6107 -0.2966  0.3819
 6267SOL    HW119417   1.785   1.423   1.553 -1.6582  0.9820  0.4844
 6267SOL    HW219418   1.688   1.467   1.445  0.9210 -0.0204 -2.3685
 6268SOL     OW19419   6.879   6.698   1.944  0.7573  0.1095 -0.0126
 6268SOL    HW119420   6.825   6.749   2.005  1.6222  1.0796 -0.0325
 6268SOL    HW219421   6.816   6.658   1.884 -0.0098  0.2995  0.6477
 6269SOL     OW19422   0.307   4.184   2.442 -0.2180 -0.0485  0.2631
 6269SOL    HW119423   0.304   4.265   2.494 -0.0803 -0.3273  0.7151
 6269SOL    HW219424   0.222   4.180   2.399 -0.4875 -0.0116  0.7843
 6270SOL     OW19425   3.078   6.051   6.797 -0.5226  0.5968 -0.2034
 6270SOL    HW119426   3.032   6.054   6.713  0.0504  2.3326 -0.4825
 6270SOL    HW219427   3.072   6.140   6.831  0.5393  0.2711  0.8896
 6271SOL     OW19428   4.693   3.813   0.205  0.0704 -0.1334  0.1957
 6271SOL    HW119429   4.682   3.794   0.112  0.8275  1.3926 -0.2524
 6271SOL    HW219430   4.783   3.790   0.224 -0.3556 -1.3636  0.8261
 6272SOL     OW19431   0.670   6.788   0.796  0.2022 -0.3907 -0.3317
 6272SOL    HW119432   0.601   6.831   0.747 -0.4082  1.2404  1.7987
 6272SOL    HW219433   0.751   6.831   0.766  0.0331 -0.5815 -1.0744
 6273SOL     OW19434   3.057   0.266   6.775  0.0456 -0.4826 -0.2651
 6273SOL    HW119435   2.979   0.256   6.719  1.3337  0.5430 -2.3640
 6273SOL    HW219436   3.075   0.177   6.807 -0.0930 -1.3599 -2.4561
 6274SOL     OW19437   6.779   5.283   5.639 -0.1538 -0.1446  0.2103
 6274SOL    HW119438   6.843   5.339   5.684  0.9475 -0.8200 -0.4747
 6274SOL    HW219439   6.694   5.316   5.668  0.4686  1.6505  0.0974
 6275SOL     OW19440   3.878   4.755   5.155  0.0380  0.0349 -0.0812
 6275SOL    HW119441   3.783   4.751   5.166  0.1069 -0.9873  0.2657
 6275SOL    HW219442   3.899   4.848   5.160 -0.7965  0.1862  1.1074
 6276SOL     OW19443   4.929   7.195   3.978  0.0337 -0.0468 -0.1934
 6276SOL    HW119444   4.957   7.240   4.059  1.4071 -0.7007 -0.2798
 6276SOL    HW219445   5.008   7.193   3.924 -0.2971 -1.5628 -0.6525
 6277SOL     OW19446   4.384   4.692   6.342 -0.4268  0.0764 -0.1027
 6277SOL    HW119447   4.323   4.662   6.275  0.0528 -0.0138 -0.5072
 6277SOL    HW219448   4.329   4.712   6.418 -0.9192 -0.3197 -0.3499
 6278SOL     OW19449   4.852   3.369   3.091  0.2980  0.0123 -0.2136
 6278SOL    HW119450   4.921   3.375   3.025 -0.5457 -1.7976 -1.3257
 6278SOL    HW219451   4.898   3.375   3.175  1.7643 -0.7486 -0.9269
 6279SOL     OW19452   5.137   2.979   0.652  0.3466 -0.4990  0.1534
 6279SOL    HW119453   5.119   3.070   0.676  1.2828 -0.1799 -0.3273
 6279SOL    HW219454   5.050   2.939   0.646 -0.1524  0.6370 -0.6914
 6280SOL     OW19455   5.622   6.486   1.087 -0.1685  0.3880  0.3053
 6280SOL    HW119456   5.542   6.440   1.111  0.5378  0.2054  2.5740
 6280SOL    HW219457   5.613   6.573   1.127  1.1171  0.0396  1.4648
 6281SOL     OW19458   1.827   1.861   2.116  0.0316  0.4448  0.4389
 6281SOL    HW119459   1.805   1.922   2.046 -0.8285  1.1574  1.2920
 6281SOL    HW219460   1.832   1.775   2.074 -1.5325  0.6941 -0.3236
 6282SOL     OW19461   2.758   2.883   5.929 -0.3954 -0.0164 -0.3846
 6282SOL    HW119462   2.674   2.865   5.887 -1.8919  2.3502  1.3519
 6282SOL    HW219463   2.745   2.967   5.974  2.9885  0.5434 -0.2229
 6283SOL     OW19464   2.953   3.439   5.986  0.1600  0.1086 -0.1981
 6283SOL    HW119465   2.876   3.383   5.977 -0.6242  0.5617  2.6868
 6283SOL    HW219466   2.929   3.521   5.943 -0.7534  0.0468  0.1789
 6284SOL     OW19467   0.248   0.440   3.981 -0.6381  0.0085  0.2700
 6284SOL    HW119468   0.242   0.534   3.994  2.9935  0.3202  0.6987
 6284SOL    HW219469   0.253   0.404   4.070 -0.7490 -0.4491  0.0944
 6285SOL     OW19470   4.790   3.424   3.474  0.0147  0.2958  0.6671
 6285SOL    HW119471   4.703   3.453   3.447 -0.1275 -1.6867 -1.3064
 6285SOL    HW219472   4.777   3.383   3.559 -0.6245  1.5473  1.1954
 6286SOL     OW19473   4.507   5.644   7.033 -0.3534 -0.1202  0.4867
 6286SOL    HW119474   4.576   5.625   7.097 -2.3162 -2.3642  2.1358
 6286SOL    HW219475   4.444   5.697   7.082 -2.0807 -2.2023  0.6721
 6287SOL     OW19476   4.447   2.313   2.479 -0.1776 -0.8777 -0.0303
 6287SOL    HW119477   4.516   2.314   2.413 -1.2051  1.5405 -1.1865
 6287SOL    HW219478   4.491   2.341   2.559  0.1065  1.5315 -0.9463
 6288SOL     OW19479   4.067   4.386   4.565 -0.6273  0.1403 -0.8118
 6288SOL    HW119480   4.139   4.329   4.541 -1.5860 -0.5720 -2.1160
 6288SOL    HW219481   4.060   4.377   4.660 -0.1165 -1.1276 -0.8748
 6289SOL     OW19482   4.420   0.297   7.255  0.0239  0.6749  0.2350
 6289SOL    HW119483   4.337   0.316   7.212 -0.3252 -0.5883  0.3419
 6289SOL    HW219484   4.483   0.289   7.183 -0.1998  0.3616  0.0742
 6290SOL     OW19485   6.969   0.463   0.952  0.2416 -0.4189 -0.7055
 6290SOL    HW119486   7.045   0.459   1.010  0.7073  0.9928 -1.1801
 6290SOL    HW219487   6.976   0.384   0.898  1.9027  0.1178 -1.3495
 6291SOL     OW19488   4.891   3.669   6.504 -0.2852 -0.5744 -0.2932
 6291SOL    HW119489   4.980   3.704   6.503 -0.2210 -0.7054  0.5593
 6291SOL    HW219490   4.834   3.746   6.497 -0.1700 -0.1478  2.3994
 6292SOL     OW19491   5.619   1.493   6.092  0.4237  0.2455  0.2769
 6292SOL    HW119492   5.696   1.464   6.142 -0.5100 -1.7729  0.6358
 6292SOL    HW219493   5.615   1.433   6.017 -1.8071 -0.9018  1.2325
 6293SOL     OW19494   3.258   1.686   6.458 -0.1245 -0.1176  0.2273
 6293SOL    HW119495   3.317   1.735   6.515 -1.6996  3.2466 -0.8080
 6293SOL    HW219496   3.310   1.669   6.379 -0.0805  1.6661 -0.1650
 6294SOL     OW19497   5.955   2.239   3.673 -0.0823 -0.2769  0.3321
 6294SOL    HW119498   5.991   2.173   3.614  0.0674  0.7161 -0.7020
 6294SOL    HW219499   5.990   2.322   3.641 -1.7761  0.5119  0.4379
 6295SOL     OW19500   6.843   5.268   6.031 -0.2553 -0.1379  0.4415
 6295SOL    HW119501   6.882   5.296   5.948 -1.3029 -0.6793 -0.2572
 6295SOL    HW219502   6.896   5.193   6.058 -0.4818 -0.5450 -0.2257
 6296SOL     OW19503   5.317   6.267   4.688 -0.4294  0.0742 -0.7103
 6296SOL    HW119504   5.314   6.215   4.768 -0.8039  0.5095 -0.4373
 6296SOL    HW219505   5.325   6.203   4.618  0.4932 -0.2869 -0.2918
 6297SOL     OW19506   5.436   2.906   2.934 -0.1019  0.4233  0.2279
 6297SOL    HW119507   5.368   2.973   2.922 -0.4640 -0.0977 -0.7705
 6297SOL    HW219508   5.502   2.927   2.868  1.3024  1.6014  1.9286
 6298SOL     OW19509   0.787   5.554   5.883  0.2622  0.2772 -0.3316
 6298SOL    HW119510   0.776   5.598   5.799  1.3097 -0.0083 -0.6279
 6298SOL    HW219511   0.747   5.468   5.870  0.3870  0.2480 -0.5295
 6299SOL     OW19512   4.673   4.395   0.585 -0.2968 -0.2093  0.2906
 6299SOL    HW119513   4.677   4.385   0.490 -0.0477  0.2580  0.2519
 6299SOL    HW219514   4.601   4.337   0.612 -1.2806  0.6972 -0.3245
 6300SOL     OW19515   5.516   3.212   0.406 -0.3082  0.0920 -0.0258
 6300SOL    HW119516   5.565   3.269   0.347 -0.4308  0.6419  0.3930
 6300SOL    HW219517   5.580   3.147   0.435  0.4559  1.3594  1.2597
 6301SOL     OW19518   1.695   5.697   0.207  0.2148  0.2520 -0.0888
 6301SOL    HW119519   1.772   5.646   0.180  0.5786  0.2272  0.9581
 6301SOL    HW219520   1.629   5.632   0.229  0.3509  0.2456  0.3073
 6302SOL     OW19521   4.129   7.032   3.573 -0.1037 -0.0892 -0.1577
 6302SOL    HW119522   4.199   7.094   3.594 -1.5161  1.8569 -0.8956
 6302SOL    HW219523   4.173   6.963   3.523  0.9880  2.2836 -2.7767
 6303SOL     OW19524   5.356   2.508   4.697  0.0131 -0.8628 -0.2750
 6303SOL    HW119525   5.295   2.551   4.637  1.8368 -1.0106 -2.3390
 6303SOL    HW219526   5.300   2.458   4.757 -1.9370  0.5140 -0.8577
 6304SOL     OW19527   5.294   6.740   5.865  0.2583  0.4594  0.2880
 6304SOL    HW119528   5.264   6.741   5.956  2.4349 -1.8117  1.1410
 6304SOL    HW219529   5.250   6.664   5.826  0.4874  0.5353 -0.1293
 6305SOL     OW19530   4.822   2.017   4.407 -0.8166  0.1508 -0.0086
 6305SOL    HW119531   4.849   2.019   4.316 -0.2848  0.3606  0.1506
 6305SOL    HW219532   4.860   2.096   4.446  1.2032 -1.2299  0.9954
 6306SOL     OW19533   3.493   1.486   2.836  0.4003 -0.0093 -0.3087
 6306SOL    HW119534   3.433   1.561   2.835  1.7426  1.1007 -1.0350
 6306SOL    HW219535   3.507   1.465   2.743 -0.7555 -1.8657 -0.1215
 6307SOL     OW19536   2.035   5.391   1.204 -0.3807  0.2902  0.4556
 6307SOL    HW119537   2.059   5.484   1.200  0.1339  0.1224 -0.8720
 6307SOL    HW219538   2.054   5.358   1.117 -0.8477 -1.0080  0.8257
 6308SOL     OW19539   0.832   6.692   2.984  0.0801 -0.0613  0.4055
 6308SOL    HW119540   0.899   6.649   2.931 -1.1437 -1.5113 -0.0539
 6308SOL    HW219541   0.837   6.649   3.069  0.4867  0.6362  0.7423
 6309SOL     OW19542   0.346   7.002   0.216  0.6251  0.2265 -0.1160
 6309SOL    HW119543   0.425   6.991   0.164  0.7091 -2.3872  0.4203
 6309SOL    HW219544   0.306   7.082   0.183  2.1784  0.2384 -2.1512
 6310SOL     OW19545   0.691   0.953   5.059  0.5307 -0.6096 -0.2757
 6310SOL    HW119546   0.618   0.899   5.030 -0.0615  0.2694 -0.4552
 6310SOL    HW219547   0.769   0.909   5.024 -0.0279 -0.6341 -1.5292
 6311SOL     OW19548   7.075   5.821   7.062  0.0365 -0.5693 -0.0513
 6311SOL    HW119549   6.983   5.796   7.050  0.5733 -1.8800 -1.8552
 6311SOL    HW219550   7.121   5.778   6.989  2.0100  0.4621  0.5284
 6312SOL     OW19551   4.602   1.018   0.490 -0.0790 -0.1005 -0.6722
 6312SOL    HW119552   4.624   1.052   0.403 -2.1865  1.8895 -0.5106
 6312SOL    HW219553   4.642   1.079   0.551 -1.5176  0.5326 -0.3295
 6313SOL     OW19554   3.184   0.457   5.336  0.6220  0.2157  0.0775
 6313SOL    HW119555   3.143   0.371   5.346 -1.0273  1.0390  0.6604
 6313SOL    HW219556   3.247   0.445   5.265  0.1375 -1.3705 -0.1221
 6314SOL     OW19557   6.598   3.185   4.990 -0.9449  0.8092  0.1896
 6314SOL    HW119558   6.663   3.218   4.928 -0.8667 -0.0865 -0.2158
 6314SOL    HW219559   6.633   3.209   5.076  0.5389 -0.6573  0.0499
 6315SOL     OW19560   4.777   0.168   5.198  0.0895 -0.2779 -0.1175
 6315SOL    HW119561   4.724   0.197   5.124 -0.0108 -0.4732 -0.1213
 6315SOL    HW219562   4.855   0.224   5.194 -1.7894  2.8425  2.2097
 6316SOL     OW19563   6.564   1.120   5.369 -0.3456 -0.2121  0.1931
 6316SOL    HW119564   6.533   1.211   5.362 -0.8181 -0.4832 -2.0110
 6316SOL    HW219565   6.574   1.106   5.463 -1.1080  1.8380  0.6501
 6317SOL     OW19566   4.508   7.143   1.706 -0.7480  0.2118 -0.9369
 6317SOL    HW119567   4.491   7.170   1.616 -1.7006 -1.2001 -1.2128
 6317SOL    HW219568   4.504   7.047   1.704 -0.8573  0.1538  0.6159
 6318SOL     OW19569   0.411   2.938   3.746 -0.3736  0.0931 -0.4920
 6318SOL    HW119570   0.321   2.909   3.759 -0.3949  0.3221 -0.1124
 6318SOL    HW219571   0.464   2.863   3.775 -0.4378  0.1131 -0.3208
 6319SOL     OW19572   7.033   6.268   7.003 -0.4137  0.6055  0.1568
 6319SOL    HW119573   7.051   6.311   7.086 -0.2766  0.2660  0.3037
 6319SOL    HW219574   7.015   6.340   6.942 -2.0010  0.8034  0.8172
 6320SOL     OW19575   2.619   6.380   6.197 -0.0434  0.5632  0.5081
 6320SOL    HW119576   2.712   6.374   6.174 -0.1900  0.2890 -0.0159
 6320SOL    HW219577   2.595   6.471   6.180 -0.3179  0.2212 -1.0900
 6321SOL     OW19578   3.411   6.697   1.830  0.2429 -0.0186  0.1350
 6321SOL    HW119579   3.409   6.792   1.846  1.5579  0.0417  0.0249
 6321SOL    HW219580   3.495   6.668   1.865 -0.1154 -1.1423  0.0988
 6322SOL     OW19581   4.793   1.507   6.493  0.1861 -0.0250  0.1429
 6322SOL    HW119582   4.787   1.476   6.403  0.2846 -0.4574  0.2861
 6322SOL    HW219583   4.750   1.440   6.545 -1.5882  1.1202  0.2297
 6323SOL     OW19584   6.826   1.426   2.441 -0.4813 -0.1454  0.3282
 6323SOL    HW119585   6.737   1.393   2.434  0.2813 -2.8028  1.6701
 6323SOL    HW219586   6.878   1.350   2.469  2.5367  0.8200 -2.0479
 6324SOL     OW19587   1.362   3.203   1.071  0.0939  0.2024 -0.0058
 6324SOL    HW119588   1.304   3.153   1.128  2.0617 -1.6657  0.4701
 6324SOL    HW219589   1.342   3.171   0.983 -1.3003  1.3999 -0.1638
 6325SOL     OW19590   5.396   6.961   2.295  0.0847 -0.3943 -0.1864
 6325SOL    HW119591   5.301   6.959   2.305  0.1060  1.0890  0.5963
 6325SOL    HW219592   5.418   7.054   2.295  1.6123 -0.7232  0.4263
 6326SOL     OW19593   4.310   3.554   6.963  0.1997 -0.0923  0.5848
 6326SOL    HW119594   4.334   3.643   6.988 -0.9186  0.6679 -0.8849
 6326SOL    HW219595   4.214   3.552   6.973  0.4328 -2.4382  4.5446
 6327SOL     OW19596   1.154   5.094   0.164 -0.2329  0.2520 -0.1685
 6327SOL    HW119597   1.107   5.122   0.086 -2.0375 -1.4018  0.2420
 6327SOL    HW219598   1.100   5.124   0.237 -0.4125 -1.1943  0.3273
 6328SOL     OW19599   5.000   5.979   3.986  0.9413 -0.0659  0.0621
 6328SOL    HW119600   4.978   6.053   3.930  0.5678  0.2916  0.6700
 6328SOL    HW219601   5.096   5.979   3.989  1.0658 -1.2099 -2.0348
 6329SOL     OW19602   6.643   1.195   5.093 -0.3490  0.3164 -0.5015
 6329SOL    HW119603   6.560   1.172   5.052 -0.1628 -2.4294  0.4419
 6329SOL    HW219604   6.630   1.176   5.186  1.9806 -2.7311 -0.6266
 6330SOL     OW19605   5.336   3.967   1.013 -0.0828 -0.3198  0.6616
 6330SOL    HW119606   5.319   3.965   1.108  0.5218  0.3770  0.7982
 6330SOL    HW219607   5.350   4.060   0.994  1.6220 -0.6314  0.2295
 6331SOL     OW19608   4.364   3.713   5.729 -0.1933 -0.2574  0.2320
 6331SOL    HW119609   4.433   3.672   5.781 -0.9261 -0.6630  0.9003
 6331SOL    HW219610   4.370   3.671   5.643  0.3939 -0.2756  0.2766
 6332SOL     OW19611   3.129   4.561   3.348  0.4564  0.2411  0.4014
 6332SOL    HW119612   3.033   4.571   3.344  0.4669  1.4377  1.9542
 6332SOL    HW219613   3.142   4.481   3.399  0.3147 -0.9842 -1.4281
 6333SOL     OW19614   0.493   0.082   6.773  0.2341  0.2937 -0.1551
 6333SOL    HW119615   0.573   0.091   6.824  0.3074 -0.3906 -0.1479
 6333SOL    HW219616   0.427   0.055   6.836 -0.0380  0.9568 -0.1412
 6334SOL     OW19617   2.006   6.453   1.584 -0.4399 -0.1530  0.2073
 6334SOL    HW119618   2.019   6.546   1.598  2.4876 -0.4658  0.3416
 6334SOL    HW219619   1.994   6.444   1.490 -1.1820  0.3689  0.2440
 6335SOL     OW19620   4.958   4.711   2.472 -0.5560  0.3477  0.0183
 6335SOL    HW119621   4.937   4.630   2.519 -0.9635 -0.0849 -0.8902
 6335SOL    HW219622   4.991   4.770   2.540  0.2065 -0.7395  0.6185
 6336SOL     OW19623   4.882   0.810   3.221  0.0603 -0.7524 -0.2318
 6336SOL    HW119624   4.805   0.839   3.271  0.5354 -0.3292  0.2711
 6336SOL    HW219625   4.952   0.807   3.286  1.5713  3.1007 -1.3918
 6337SOL     OW19626   6.535   7.139   3.246  0.3886 -0.3329  0.4241
 6337SOL    HW119627   6.614   7.190   3.262  1.4089 -1.8373  0.3955
 6337SOL    HW219628   6.532   7.076   3.318 -2.3820  1.4590  2.0611
 6338SOL     OW19629   5.969   5.333   0.886 -0.2553 -0.2696  0.1377
 6338SOL    HW119630   5.943   5.244   0.907  0.9519 -0.4140  1.1675
 6338SOL    HW219631   6.035   5.323   0.818  0.6096 -0.2543  0.9519
 6339SOL     OW19632   6.718   1.461   4.408  0.1361 -0.1279 -0.8529
 6339SOL    HW119633   6.738   1.382   4.358  0.5652  1.7193 -3.8358
 6339SOL    HW219634   6.626   1.479   4.388  0.3195  0.6651 -0.9970
 6340SOL     OW19635   4.636   4.052   4.948 -0.2111  0.3581 -0.5816
 6340SOL    HW119636   4.680   4.092   4.872 -1.2733 -0.4944 -1.6855
 6340SOL    HW219637   4.543   4.053   4.926 -0.5873  0.5005  0.9280
 6341SOL     OW19638   5.718   6.920   1.679 -0.2772 -0.1683  0.4450
 6341SOL    HW119639   5.753   7.004   1.709 -1.4368  1.2339 -1.8626
 6341SOL    HW219640   5.779   6.892   1.611 -0.6007 -0.5315  0.3042
 6342SOL     OW19641   4.680   3.748   3.890 -0.0419  0.4767 -0.1584
 6342SOL    HW119642   4.722   3.778   3.809 -0.5324  0.9217 -0.2501
 6342SOL    HW219643   4.682   3.824   3.948 -0.6953  0.4967 -0.1533
 6343SOL     OW19644   2.987   4.942   3.616 -0.0535  0.6780 -0.5956
 6343SOL    HW119645   3.053   4.910   3.678 -1.4767 -0.9926  0.1615
 6343SOL    HW219646   3.020   4.915   3.530  1.6910  2.5727 -0.5969
 6344SOL     OW19647   4.737   1.321   5.275 -0.4950  0.3216 -0.4744
 6344SOL    HW119648   4.806   1.387   5.285 -0.0337 -0.0698 -0.9957
 6344SOL    HW219649   4.677   1.359   5.211 -0.0538  0.1031 -1.0247
 6345SOL     OW19650   2.169   2.305   4.077  0.2057 -0.0783  0.0530
 6345SOL    HW119651   2.108   2.257   4.022 -1.4476  0.0023  1.7163
 6345SOL    HW219652   2.117   2.376   4.115  1.1451 -0.3423  1.9666
 6346SOL     OW19653   1.799   6.958   2.131  0.7438  0.6807 -0.5328
 6346SOL    HW119654   1.716   6.918   2.107  1.2964  0.2760 -1.8722
 6346SOL    HW219655   1.865   6.893   2.106  1.4697  1.0274  0.4262
 6347SOL     OW19656   5.491   2.309   3.832 -0.1415  0.4854  0.3525
 6347SOL    HW119657   5.442   2.305   3.915 -0.4305  1.3969  0.2331
 6347SOL    HW219658   5.427   2.342   3.768  0.1167 -0.0890 -0.2089
 6348SOL     OW19659   0.685   7.236   5.320  0.1116  0.1440  0.3094
 6348SOL    HW119660   0.665   7.176   5.249  0.3692 -0.2728  0.5841
 6348SOL    HW219661   0.600   7.260   5.357 -0.1388  1.4049 -0.9639
 6349SOL     OW19662   0.893   4.446   5.748 -0.2128 -0.7222 -0.3610
 6349SOL    HW119663   0.902   4.477   5.658 -0.6833  0.7844  0.0761
 6349SOL    HW219664   0.903   4.351   5.742  0.3483 -0.5945 -1.9119
 6350SOL     OW19665   2.823   0.546   2.315 -0.3438  0.4421  0.1050
 6350SOL    HW119666   2.896   0.565   2.255  0.6050 -1.3058  0.6301
 6350SOL    HW219667   2.836   0.606   2.388 -0.0695  0.8825 -0.2963
 6351SOL     OW19668   1.809   0.974   6.989 -0.5525  0.5099  0.1600
 6351SOL    HW119669   1.798   0.995   6.896 -0.8345  0.9059  0.2807
 6351SOL    HW219670   1.780   0.883   6.996 -1.9427  0.9203  0.1168
 6352SOL     OW19671   0.076   4.696   3.251 -0.0182 -0.4539 -0.3485
 6352SOL    HW119672   0.098   4.684   3.159 -0.0920  1.8578 -0.7333
 6352SOL    HW219673  -0.018   4.714   3.251 -0.0256 -0.4757  0.1758
 6353SOL     OW19674   3.368   0.288   1.877  0.3755  0.6622 -0.1573
 6353SOL    HW119675   3.427   0.278   1.951 -0.1964  3.2061  0.7447
 6353SOL    HW219676   3.400   0.366   1.831 -2.9455  3.0995  1.2114
 6354SOL     OW19677   1.012   3.437   2.176 -0.0342 -0.0728 -0.5771
 6354SOL    HW119678   0.982   3.387   2.252 -0.5873  2.7927  1.2260
 6354SOL    HW219679   1.092   3.480   2.205  1.4810 -1.2326 -2.6974
 6355SOL     OW19680   2.301   2.340   0.071 -0.2774  0.1260  0.2670
 6355SOL    HW119681   2.269   2.340   0.161  1.6969  0.8480  1.0126
 6355SOL    HW219682   2.395   2.357   0.078 -0.1478  0.6919 -1.9610
 6356SOL     OW19683   5.575   6.451   7.016  1.0621 -0.2311  0.2431
 6356SOL    HW119684   5.515   6.442   6.942  0.0546 -1.0247  1.1077
 6356SOL    HW219685   5.662   6.440   6.978  0.6556  0.7160 -1.0133
 6357SOL     OW19686   1.099   2.212   2.792  0.3143 -0.1334 -0.2687
 6357SOL    HW119687   1.185   2.209   2.834 -0.6797 -2.0885  1.8624
 6357SOL    HW219688   1.052   2.281   2.838 -0.3725 -1.4648  1.1223
 6358SOL     OW19689   5.505   2.743   5.671 -0.1717  0.2520 -0.3146
 6358SOL    HW119690   5.578   2.790   5.631 -0.6669  0.0649 -1.4789
 6358SOL    HW219691   5.507   2.769   5.763  0.4665  1.3814 -0.6289
 6359SOL     OW19692   1.358   2.528   2.780  0.5564 -0.1879 -0.1687
 6359SOL    HW119693   1.283   2.528   2.839 -0.5530  0.8547 -1.5023
 6359SOL    HW219694   1.321   2.506   2.694  2.2921 -2.8210 -0.3481
 6360SOL     OW19695   2.351   2.848   1.173  0.3386 -0.1295  0.1637
 6360SOL    HW119696   2.319   2.862   1.084 -0.8896 -1.1173  0.4253
 6360SOL    HW219697   2.275   2.859   1.229  1.2478  1.2316  1.2076
 6361SOL     OW19698   6.261   0.867   2.493  0.1093 -0.4388  0.1193
 6361SOL    HW119699   6.166   0.856   2.492  0.1368 -0.6753 -1.2692
 6361SOL    HW219700   6.274   0.962   2.499 -0.1802 -0.4481  1.3048
 6362SOL     OW19701   7.234   2.262   0.087 -0.0339  0.0219 -0.3145
 6362SOL    HW119702   7.173   2.324   0.048  0.2634  1.2175  1.0617
 6362SOL    HW219703   7.254   2.201   0.016  0.1574  1.8550 -1.9074
 6363SOL     OW19704   1.272   1.013   5.093 -1.0096  0.6570 -0.1456
 6363SOL    HW119705   1.202   0.997   5.156  0.4161 -3.5315  0.6953
 6363SOL    HW219706   1.345   1.045   5.145 -1.5046  2.9143 -0.7102
 6364SOL     OW19707   6.822   1.578   0.535 -0.3091 -0.1977 -0.3309
 6364SOL    HW119708   6.753   1.576   0.602  2.7354  0.0451  3.1385
 6364SOL    HW219709   6.860   1.665   0.541 -0.0114 -0.1081 -2.5953
 6365SOL     OW19710   3.009   3.346   0.933 -0.1987 -0.2375 -0.1489
 6365SOL    HW119711   3.033   3.266   0.886 -2.2817  0.7014 -3.0415
 6365SOL    HW219712   3.018   3.416   0.869  0.1125  1.7152  1.8789
 6366SOL     OW19713   6.093   1.655   5.408 -0.2689  0.7405  0.2146
 6366SOL    HW119714   6.034   1.594   5.364 -0.1183  0.7580 -0.0134
 6366SOL    HW219715   6.097   1.731   5.351 -0.4915  0.9859  0.5216
 6367SOL     OW19716   0.949   6.061   1.019 -0.0870  0.0762 -0.4770
 6367SOL    HW119717   0.979   6.096   0.935  1.0720  0.8914  0.2335
 6367SOL    HW219718   1.025   6.012   1.052 -0.9572 -1.3276 -0.4595
 6368SOL     OW19719   0.175   5.842   2.897  0.1011  0.2922 -0.5596
 6368SOL    HW119720   0.095   5.793   2.914  0.0162  1.0013  1.3075
 6368SOL    HW219721   0.151   5.906   2.830 -0.7136  0.0372 -0.5182
 6369SOL     OW19722   2.777   2.918   6.997  0.3773 -0.0612 -0.1914
 6369SOL    HW119723   2.834   2.962   6.933  0.3900  0.6121  0.2736
 6369SOL    HW219724   2.826   2.923   7.079  1.5682 -3.2176 -0.5958
 6370SOL     OW19725   1.152   1.107   7.105 -0.1489 -0.0355  0.3699
 6370SOL    HW119726   1.141   1.130   7.197  0.5374 -0.7856  0.6428
 6370SOL    HW219727   1.227   1.048   7.103 -0.0922  0.0508 -0.6852
 6371SOL     OW19728   0.143   0.125   3.170 -0.4027  0.0510 -0.4621
 6371SOL    HW119729   0.102   0.181   3.104 -0.5967  1.9686  1.1565
 6371SOL    HW219730   0.091   0.140   3.249  0.6915 -0.9986  0.4975
 6372SOL     OW19731   1.109   5.460   4.460 -0.2536  0.5670 -0.2899
 6372SOL    HW119732   1.179   5.436   4.400  0.5874 -1.3736  1.3566
 6372SOL    HW219733   1.132   5.547   4.491  1.8912 -0.2923  0.7383
 6373SOL     OW19734   5.344   5.367   1.005  0.0405 -0.7758  0.1202
 6373SOL    HW119735   5.354   5.272   1.016 -0.4810 -0.7664  0.7118
 6373SOL    HW219736   5.333   5.401   1.094 -1.2958 -0.3448 -0.1815
 6374SOL     OW19737   5.495   6.223   4.432  0.2864 -1.2993 -0.3038
 6374SOL    HW119738   5.422   6.162   4.433 -0.0173 -0.9411 -0.3016
 6374SOL    HW219739   5.553   6.189   4.364  0.1875 -1.6674 -0.2052
 6375SOL     OW19740   5.435   6.271   7.180 -0.3337  0.1855  0.0084
 6375SOL    HW119741   5.372   6.250   7.111 -0.0012 -0.7688 -0.0218
 6375SOL    HW219742   5.502   6.324   7.137 -0.1995 -0.2918 -0.3727
 6376SOL     OW19743   6.780   4.916   0.017 -0.4056 -0.0321 -0.1248
 6376SOL    HW119744   6.697   4.954   0.046  0.1827  0.5149  0.9001
 6376SOL    HW219745   6.811   4.866   0.093  1.1197  1.3382  0.2234
 6377SOL     OW19746   5.343   1.798   3.283  0.2380  0.4341 -0.3651
 6377SOL    HW119747   5.437   1.790   3.263  0.5379  0.8581  0.7877
 6377SOL    HW219748   5.341   1.843   3.367 -0.9324 -1.5732  0.7582
 6378SOL     OW19749   2.549   4.796   2.880 -0.2164 -0.2152 -0.6474
 6378SOL    HW119750   2.516   4.707   2.888 -1.5993  0.1221 -2.0845
 6378SOL    HW219751   2.482   4.842   2.829  0.3832  1.6910  0.1797
 6379SOL     OW19752   3.011   6.593   1.942 -0.4666  0.1648  0.0647
 6379SOL    HW119753   2.982   6.681   1.917 -0.3540  0.1457 -0.1326
 6379SOL    HW219754   2.932   6.540   1.940 -0.6927  0.4411  1.0002
 6380SOL     OW19755   1.139   4.375   6.497 -0.3377  0.1976  0.2727
 6380SOL    HW119756   1.050   4.343   6.509 -1.7083  2.6027 -2.3907
 6380SOL    HW219757   1.173   4.325   6.424 -0.7118  1.3712 -0.7386
 6381SOL     OW19758   4.866   4.980   6.431 -0.0839  0.1614  0.4578
 6381SOL    HW119759   4.882   4.886   6.418  0.0364  0.2391  0.0468
 6381SOL    HW219760   4.915   5.023   6.361  0.9000  0.6071  1.3834
 6382SOL     OW19761   5.358   7.244   3.912  0.0769  0.0067 -0.4468
 6382SOL    HW119762   5.332   7.228   4.003 -0.1249  0.5831 -0.3957
 6382SOL    HW219763   5.448   7.212   3.906 -0.5088 -1.7570 -0.5461
 6383SOL     OW19764   0.084   0.751   4.739 -0.1972 -0.2944 -0.1297
 6383SOL    HW119765   0.005   0.804   4.729 -3.0159 -3.6227  2.3617
 6383SOL    HW219766   0.087   0.697   4.661 -0.1278  0.0992 -0.4033
 6384SOL     OW19767   0.486   0.071   3.916  0.2113 -0.5053  0.0172
 6384SOL    HW119768   0.521   0.111   3.995  0.4518 -1.0030  0.1651
 6384SOL    HW219769   0.480   0.143   3.853  3.7370 -0.7750 -0.8107
 6385SOL     OW19770   4.990   5.693   1.900 -0.5003  0.3774  0.3050
 6385SOL    HW119771   4.926   5.691   1.971  0.4913 -0.8390  1.2115
 6385SOL    HW219772   4.979   5.608   1.856 -0.1338  0.5444 -0.1150
 6386SOL     OW19773   6.554   3.181   2.291  0.8184 -0.6487 -0.4749
 6386SOL    HW119774   6.536   3.133   2.372 -1.3762 -0.2939 -0.6983
 6386SOL    HW219775   6.632   3.234   2.311 -1.8329  2.5155  2.8612
 6387SOL     OW19776   6.105   2.439   2.865  0.6702  0.0392 -0.5173
 6387SOL    HW119777   6.034   2.465   2.807  1.9210 -1.0690 -2.6389
 6387SOL    HW219778   6.062   2.390   2.935 -0.9282  1.9286 -0.0769
 6388SOL     OW19779   4.109   5.403   3.822  0.2558 -0.2354 -0.1735
 6388SOL    HW119780   4.050   5.474   3.847  0.8034  0.3521 -0.5285
 6388SOL    HW219781   4.097   5.337   3.891  0.0094  0.3556  0.3583
 6389SOL     OW19782   1.214   4.779   5.754  0.0648 -0.2241 -0.1757
 6389SOL    HW119783   1.255   4.789   5.840 -1.6023 -1.6451  0.8567
 6389SOL    HW219784   1.255   4.702   5.716 -1.0639 -1.2315  0.5621
 6390SOL     OW19785   2.587   1.343   2.749 -0.3051 -0.1659  0.0911
 6390SOL    HW119786   2.587   1.414   2.685 -0.0346 -0.3492 -0.1210
 6390SOL    HW219787   2.497   1.313   2.752 -0.4177  0.1826  0.1751
 6391SOL     OW19788   0.684   4.926   3.660 -0.0926 -0.2927  0.5181
 6391SOL    HW119789   0.611   4.953   3.715 -0.5257 -0.9499  0.2858
 6391SOL    HW219790   0.642   4.897   3.578  0.3832 -1.0927  0.5452
 6392SOL     OW19791   4.277   4.995   6.333  0.0962  1.0743 -0.2622
 6392SOL    HW119792   4.185   4.991   6.307  0.4403 -2.7685 -1.6402
 6392SOL    HW219793   4.326   4.989   6.250  1.4813  0.0281  0.5843
 6393SOL     OW19794   0.980   0.450   2.910  0.4127  0.4843  0.0654
 6393SOL    HW119795   1.015   0.363   2.890  2.0375  1.2775 -0.6899
 6393SOL    HW219796   0.971   0.450   3.006  2.7660  0.3002  0.3412
 6394SOL     OW19797   5.872   6.478   4.071  0.0619 -0.8987  0.6330
 6394SOL    HW119798   5.787   6.502   4.109  0.5023 -2.2445  2.6447
 6394SOL    HW219799   5.922   6.559   4.069 -0.6797 -0.4157  1.1457
 6395SOL     OW19800   4.220   1.457   6.577 -0.2414 -0.1623  0.0200
 6395SOL    HW119801   4.169   1.376   6.580  1.1891 -1.1029 -0.2083
 6395SOL    HW219802   4.297   1.439   6.630  1.5510 -0.0182 -2.3704
 6396SOL     OW19803   6.957   5.573   2.030  0.2237  0.8659  0.9061
 6396SOL    HW119804   7.013   5.639   1.990  0.0403  1.3891  1.4900
 6396SOL    HW219805   6.919   5.526   1.956  1.5635  0.3725  0.5053
 6397SOL     OW19806   1.753   1.247   0.827  0.0841 -0.1157  0.1822
 6397SOL    HW119807   1.845   1.250   0.799 -0.2445 -0.6487 -1.0283
 6397SOL    HW219808   1.729   1.155   0.819 -1.0558  0.2668 -1.2613
 6398SOL     OW19809   0.588   1.860   3.355  0.0998  0.2057 -0.4681
 6398SOL    HW119810   0.650   1.793   3.381 -0.6574 -0.1521  0.4948
 6398SOL    HW219811   0.565   1.839   3.265 -0.4890 -1.1320 -0.0230
 6399SOL     OW19812   6.414   1.788   1.529 -0.3313 -0.6958 -0.0642
 6399SOL    HW119813   6.352   1.715   1.520 -0.2841 -0.8046  0.4702
 6399SOL    HW219814   6.488   1.750   1.576 -0.8499  0.0133  1.3689
 6400SOL     OW19815   0.632   0.846   1.419  0.7074 -0.4420 -0.2173
 6400SOL    HW119816   0.619   0.899   1.498 -0.5047  0.2020 -0.8110
 6400SOL    HW219817   0.646   0.910   1.349  0.7829 -0.9601 -0.6832
 6401SOL     OW19818   4.556   5.933   1.459  0.1140  0.3223  0.3443
 6401SOL    HW119819   4.503   5.898   1.386 -2.3387  0.1965  2.0643
 6401SOL    HW219820   4.627   5.870   1.468 -0.8328 -0.9462 -0.4853
 6402SOL     OW19821   4.904   6.203   1.074 -0.0909  0.3361 -0.3928
 6402SOL    HW119822   4.979   6.253   1.044 -0.1469  1.2076  0.8636
 6402SOL    HW219823   4.935   6.112   1.076  0.4556  0.4954 -1.3065
 6403SOL     OW19824   0.298   0.752   5.410  0.1839 -0.4270 -0.2850
 6403SOL    HW119825   0.365   0.721   5.472  0.4793  0.1584 -0.3050
 6403SOL    HW219826   0.348   0.794   5.340 -0.1069 -1.6795 -1.2829
 6404SOL     OW19827   7.182   6.127   0.944 -0.3336  0.0861  0.1226
 6404SOL    HW119828   7.223   6.168   1.021 -1.3943 -3.1268  2.6173
 6404SOL    HW219829   7.255   6.092   0.894  0.3167  0.3046  0.8940
 6405SOL     OW19830   1.810   3.396   3.160 -0.1829 -0.0674 -0.5062
 6405SOL    HW119831   1.792   3.312   3.116 -1.0210 -0.9946  1.4955
 6405SOL    HW219832   1.897   3.384   3.199 -0.5273 -0.2192  0.2262
 6406SOL     OW19833   5.191   6.831   1.225 -0.1220  0.5892  0.1226
 6406SOL    HW119834   5.108   6.879   1.223  0.1807  1.1128 -1.2112
 6406SOL    HW219835   5.258   6.899   1.223  0.3388  0.1543  0.6211
 6407SOL     OW19836   6.377   3.921   5.162  0.2292 -0.1216  0.4875
 6407SOL    HW119837   6.307   3.888   5.106  0.7655 -1.6761  0.6903
 6407SOL    HW219838   6.333   3.951   5.241 -0.1671 -2.2495  1.1499
 6408SOL     OW19839   4.037   5.921   0.577 -0.3918 -0.8771  1.1359
 6408SOL    HW119840   4.048   5.827   0.563 -2.9592 -1.1197  0.1880
 6408SOL    HW219841   3.956   5.942   0.531  1.0769  2.1889 -0.2861
 6409SOL     OW19842   4.688   1.124   5.608  0.0640 -0.7161  0.0088
 6409SOL    HW119843   4.670   1.204   5.559 -3.5808  0.2309  2.5087
 6409SOL    HW219844   4.782   1.110   5.597  0.3221  2.1690 -2.9591
 6410SOL     OW19845   6.984   2.513   3.348  1.1740  0.3186  0.3145
 6410SOL    HW119846   7.045   2.439   3.350  2.7452  1.4737 -1.2614
 6410SOL    HW219847   7.034   2.587   3.383  0.4008  1.1027 -0.1774
 6411SOL     OW19848   7.168   7.099   7.224 -0.3589 -0.0814  0.4964
 6411SOL    HW119849   7.113   7.108   7.302  0.2710  0.0987  0.9274
 6411SOL    HW219850   7.240   7.043   7.252 -0.1598 -0.0683  0.0178
 6412SOL     OW19851   2.331   3.744   4.470 -0.0302 -0.0176 -0.5170
 6412SOL    HW119852   2.238   3.749   4.449 -0.1594 -1.4759 -0.3844
 6412SOL    HW219853   2.375   3.755   4.386 -0.3480  0.0453 -0.6789
 6413SOL     OW19854   6.869   4.791   5.762  0.0007 -0.0625 -0.3301
 6413SOL    HW119855   6.962   4.814   5.762 -0.5147  2.2891 -0.6702
 6413SOL    HW219856   6.825   4.869   5.797 -1.8806 -0.9706 -0.5424
 6414SOL     OW19857   7.241   2.745   1.539  0.1080  0.1778  0.1700
 6414SOL    HW119858   7.284   2.667   1.575 -1.5690  0.5128  3.1878
 6414SOL    HW219859   7.187   2.711   1.468  0.9157 -1.1009  0.1254
 6415SOL     OW19860   4.890   0.481   5.124 -0.5055  0.0984  0.3253
 6415SOL    HW119861   4.912   0.524   5.207 -1.7886 -0.7739  1.1593
 6415SOL    HW219862   4.794   0.487   5.119 -0.6177 -1.5995 -0.1104
 6416SOL     OW19863   3.528   2.729   2.120 -0.2203  0.1663 -0.0605
 6416SOL    HW119864   3.578   2.808   2.141  1.5915 -1.1350  0.7636
 6416SOL    HW219865   3.556   2.706   2.031 -0.5744  0.3351 -0.2143
 6417SOL     OW19866   2.204   0.088   3.977  0.2130  0.4346  0.3666
 6417SOL    HW119867   2.281   0.035   3.954  0.4168 -0.3694  2.6088
 6417SOL    HW219868   2.132   0.046   3.931  0.6996 -0.5812  0.4879
 6418SOL     OW19869   4.673   6.094   6.201 -0.4548 -0.4532  0.0818
 6418SOL    HW119870   4.594   6.102   6.148 -0.5805  0.9209  0.4478
 6418SOL    HW219871   4.707   6.007   6.180 -0.6196 -0.0430 -2.0772
 6419SOL     OW19872   2.335   2.892   2.439  0.7888  0.0079 -0.1854
 6419SOL    HW119873   2.248   2.867   2.408  1.0639 -0.1453 -0.8433
 6419SOL    HW219874   2.388   2.813   2.428  1.4500  0.6098 -1.4737
 6420SOL     OW19875   7.158   2.028   4.088  0.3561  0.0252  0.2362
 6420SOL    HW119876   7.085   1.966   4.082 -0.0513  0.4994  0.3052
 6420SOL    HW219877   7.219   1.986   4.149  0.1243 -0.3522  0.2123
 6421SOL     OW19878   2.304   1.213   2.855  0.1414 -0.4782 -0.4218
 6421SOL    HW119879   2.293   1.205   2.760  2.0394  0.0293 -0.7213
 6421SOL    HW219880   2.391   1.176   2.872 -0.7055 -1.8104  1.3233
 6422SOL     OW19881   3.309   6.900   5.052  0.0204  0.2200 -0.0395
 6422SOL    HW119882   3.322   6.825   4.994 -2.0010 -0.0454 -0.2192
 6422SOL    HW219883   3.281   6.861   5.135  0.6448  0.7086  0.4065
 6423SOL     OW19884   7.178   2.099   4.526 -0.1620 -0.6378 -0.1171
 6423SOL    HW119885   7.112   2.162   4.496  0.3489  0.3074  0.6935
 6423SOL    HW219886   7.127   2.030   4.568 -0.6456  0.2346  0.7795
 6424SOL     OW19887   3.281   5.664   2.803  0.1246  0.3589  0.5337
 6424SOL    HW119888   3.215   5.606   2.841  0.0225  0.0524 -0.1035
 6424SOL    HW219889   3.231   5.734   2.762  0.0664 -0.9075 -1.6883
 6425SOL     OW19890   1.273   4.776   2.358  0.6638 -0.6110 -0.5223
 6425SOL    HW119891   1.293   4.693   2.315  0.2974 -0.4380 -1.0364
 6425SOL    HW219892   1.213   4.820   2.298 -0.8877 -0.9112  0.7530
 6426SOL     OW19893   2.508   1.821   7.247 -0.3967  0.3889  0.5217
 6426SOL    HW119894   2.591   1.804   7.292  0.0397  0.1376 -0.3553
 6426SOL    HW219895   2.487   1.911   7.270 -0.5589  0.0432  1.8057
 6427SOL     OW19896   6.643   3.923   5.562 -0.5758  0.3602  0.3332
 6427SOL    HW119897   6.647   3.837   5.604  1.4566 -0.9424 -2.2371
 6427SOL    HW219898   6.549   3.938   5.548 -1.1051 -0.4364  2.6496
 6428SOL     OW19899   5.190   3.307   1.308 -0.1306 -0.3839 -0.3888
 6428SOL    HW119900   5.261   3.256   1.349  0.1131 -0.5234 -0.9772
 6428SOL    HW219901   5.231   3.346   1.231 -0.6505 -0.3096 -0.6247
 6429SOL     OW19902   2.711   2.821   5.536  0.5553  0.0644  0.1142
 6429SOL    HW119903   2.723   2.905   5.580  0.4228 -0.2927  0.8628
 6429SOL    HW219904   2.794   2.803   5.494 -0.0319  1.5155 -1.7769
 6430SOL     OW19905   1.581   2.054   6.036 -0.0794 -0.3141  0.7863
 6430SOL    HW119906   1.619   2.009   6.111 -2.5285  0.0970  2.4062
 6430SOL    HW219907   1.572   1.986   5.969 -0.1435 -1.2975  1.7738
 6431SOL     OW19908   3.788   4.199   7.200 -0.0176 -0.0868 -0.3131
 6431SOL    HW119909   3.747   4.176   7.283  1.4786 -2.0522 -0.0512
 6431SOL    HW219910   3.732   4.161   7.133 -0.7093  0.6779 -0.1825
 6432SOL     OW19911   3.101   6.472   2.539 -0.4627  0.2972 -0.0093
 6432SOL    HW119912   3.048   6.417   2.596  0.5474 -0.9791 -0.2446
 6432SOL    HW219913   3.186   6.478   2.583  0.5429 -1.2302 -1.5653
 6433SOL     OW19914   1.099   2.644   1.232 -0.2654  0.2594 -0.0860
 6433SOL    HW119915   1.133   2.670   1.147 -1.1373 -1.3455 -0.9818
 6433SOL    HW219916   1.017   2.692   1.240 -1.1972 -1.0556 -1.1259
 6434SOL     OW19917   5.412   5.076   1.299  0.6427 -0.0861 -0.1633
 6434SOL    HW119918   5.437   5.168   1.308  0.5574 -0.1119  0.4159
 6434SOL    HW219919   5.391   5.066   1.207 -1.0997  0.9412  0.0782
 6435SOL     OW19920   1.856   4.852   5.308 -0.1707  0.0287  0.4394
 6435SOL    HW119921   1.886   4.906   5.235  1.0900 -0.0444  0.8761
 6435SOL    HW219922   1.915   4.776   5.307  1.2275  0.9692  2.7237
 6436SOL     OW19923   5.125   1.137   2.741 -0.3638  0.1211  0.0763
 6436SOL    HW119924   5.115   1.042   2.749 -0.6763 -0.0134 -1.4274
 6436SOL    HW219925   5.035   1.170   2.735 -0.2583  0.1510 -2.3494
 6437SOL     OW19926   1.149   2.465   2.939  0.2332 -0.2523 -0.3866
 6437SOL    HW119927   1.201   2.493   3.014  2.2083 -0.3829 -1.6233
 6437SOL    HW219928   1.060   2.491   2.960  0.8897  0.5729  1.5653
 6438SOL     OW19929   1.866   6.185   3.845 -0.3844  0.6357  0.1709
 6438SOL    HW119930   1.858   6.098   3.884  1.5701  0.3250 -0.0247
 6438SOL    HW219931   1.778   6.222   3.851 -1.5874 -1.8273 -0.9098
 6439SOL     OW19932   1.513   0.493   7.113  0.0778 -0.3673  0.2584
 6439SOL    HW119933   1.559   0.462   7.035  1.5096  1.2188  0.4158
 6439SOL    HW219934   1.474   0.414   7.150  1.1864 -1.5096 -0.8770
 6440SOL     OW19935   6.997   1.205   1.520 -0.0742 -0.4618 -0.0778
 6440SOL    HW119936   6.906   1.210   1.548 -0.3513 -1.3844 -0.7405
 6440SOL    HW219937   7.046   1.183   1.599 -0.6514 -1.5994 -0.0199
 6441SOL     OW19938   3.420   0.692   2.810 -0.2751  0.2962  0.4684
 6441SOL    HW119939   3.505   0.708   2.768 -0.5593 -0.2646 -0.3464
 6441SOL    HW219940   3.375   0.632   2.751 -1.6390  1.3407  0.3891
 6442SOL     OW19941   2.162   5.976   0.876 -0.1806  0.3452  0.0977
 6442SOL    HW119942   2.241   6.014   0.915 -0.8074  0.7371  1.0004
 6442SOL    HW219943   2.165   6.005   0.784 -0.0490  1.6159  0.4887
 6443SOL     OW19944   1.627   0.668   2.349 -0.1186  0.7575  0.2736
 6443SOL    HW119945   1.638   0.714   2.432  2.0121  0.5879  0.1359
 6443SOL    HW219946   1.597   0.581   2.374 -1.0911  1.1972  0.7237
 6444SOL     OW19947   2.229   3.243   0.794  0.2180  0.2708  0.2156
 6444SOL    HW119948   2.176   3.239   0.873  0.4478  0.1475  0.3643
 6444SOL    HW219949   2.315   3.272   0.824 -0.4172  2.9628 -0.3375
 6445SOL     OW19950   4.969   5.281   3.378 -0.4665 -0.8094 -0.0757
 6445SOL    HW119951   5.021   5.338   3.435 -0.6882 -0.9563  0.2745
 6445SOL    HW219952   4.988   5.193   3.409 -0.9500 -0.8617  0.0712
 6446SOL     OW19953   7.025   0.367   5.666 -0.4601  0.0211  0.2817
 6446SOL    HW119954   6.974   0.326   5.735 -1.3376 -0.6109 -0.7064
 6446SOL    HW219955   6.959   0.404   5.607  0.2479 -0.0499 -0.5683
 6447SOL     OW19956   3.077   4.723   4.225  0.4722  0.4151  0.8509
 6447SOL    HW119957   3.093   4.730   4.131  3.4943  0.6728  1.2672
 6447SOL    HW219958   3.047   4.811   4.250 -0.9211  0.1878  0.0963
 6448SOL     OW19959   1.043   1.684   5.527  0.2019  0.1192 -0.4348
 6448SOL    HW119960   1.028   1.643   5.442  2.9732  0.1890 -1.0421
 6448SOL    HW219961   1.068   1.774   5.506  0.7815  0.1760  0.4635
 6449SOL     OW19962   2.467   1.289   0.082  0.1280  0.4097 -0.2440
 6449SOL    HW119963   2.479   1.337  -0.000  0.5104  1.5568  0.4503
 6449SOL    HW219964   2.556   1.270   0.111  0.0831  1.6610  0.8135
 6450SOL     OW19965   3.770   0.933   5.743  0.6771  0.3391  0.3437
 6450SOL    HW119966   3.862   0.906   5.743  0.5324 -0.1759  0.6909
 6450SOL    HW219967   3.734   0.894   5.823 -0.2028 -0.7026 -0.5150
 6451SOL     OW19968   3.809   2.356   4.912  0.1362 -0.0402  0.1592
 6451SOL    HW119969   3.798   2.351   5.007  0.8969  0.3356  0.2743
 6451SOL    HW219970   3.775   2.273   4.880  0.4651 -0.4424  0.8198
 6452SOL     OW19971   0.797   1.282   0.654 -0.1324  0.4890  0.0931
 6452SOL    HW119972   0.870   1.257   0.598  1.1444  0.2758  1.7786
 6452SOL    HW219973   0.774   1.203   0.703 -1.6461  0.4974 -0.5465
 6453SOL     OW19974   4.578   5.095   5.915 -0.1867 -0.0635 -0.1448
 6453SOL    HW119975   4.610   5.091   5.825 -0.9335  3.2392 -0.6573
 6453SOL    HW219976   4.657   5.104   5.968  0.1518 -0.1469 -0.6334
 6454SOL     OW19977   6.534   2.821   4.502  0.2948 -0.4010  0.2564
 6454SOL    HW119978   6.448   2.854   4.527  0.3390 -0.6446  0.7323
 6454SOL    HW219979   6.516   2.746   4.445  0.1929 -0.5992  0.5513
 6455SOL     OW19980   1.788   2.759   5.738  0.1155  0.0581 -0.0448
 6455SOL    HW119981   1.858   2.805   5.786 -0.8441 -0.5062  2.0303
 6455SOL    HW219982   1.831   2.681   5.702  0.9911  0.7797 -0.5883
 6456SOL     OW19983   3.574   5.254   7.044  0.2022  0.0846  0.0940
 6456SOL    HW119984   3.513   5.195   7.089 -0.5741 -0.0771 -1.0995
 6456SOL    HW219985   3.536   5.341   7.057  0.1680  0.0767  0.0505
 6457SOL     OW19986   6.028   3.525   0.843  0.6392 -0.6271  0.0537
 6457SOL    HW119987   6.081   3.449   0.866 -1.2215 -2.1336 -0.3816
 6457SOL    HW219988   5.940   3.489   0.827  0.6108  0.9371 -4.5034
 6458SOL     OW19989   0.952   2.071   5.697  0.4014 -0.1346 -0.1546
 6458SOL    HW119990   0.986   2.146   5.745  0.8735 -0.7672  0.5284
 6458SOL    HW219991   0.991   1.995   5.740 -0.8662 -0.8311 -0.1680
 6459SOL     OW19992   1.955   1.818   3.695 -0.2872 -0.1918 -0.2624
 6459SOL    HW119993   2.014   1.846   3.765  0.6132  0.0654 -1.0851
 6459SOL    HW219994   1.969   1.723   3.688 -1.5398 -0.4805  0.9246
 6460SOL     OW19995   1.924   6.585   6.521  0.4614  0.2391  0.0071
 6460SOL    HW119996   1.958   6.649   6.458 -1.1446  0.1136 -1.0388
 6460SOL    HW219997   1.899   6.509   6.468 -2.2440  0.6526  0.5290
 6461SOL     OW19998   5.169   0.596   3.692 -0.1117  0.0214  0.1364
 6461SOL    HW119999   5.213   0.614   3.609 -0.8436  1.7831  0.0911
 6461SOL    HW220000   5.237   0.558   3.747  0.9420  0.7519 -0.6152
 6462SOL     OW20001   6.811   2.092   2.746 -0.8621  0.0618 -0.0984
 6462SOL    HW120002   6.889   2.075   2.693 -1.0311  1.2131 -0.7510
 6462SOL    HW220003   6.740   2.094   2.682 -1.1326  1.0283  0.2318
 6463SOL     OW20004   4.791   3.829   6.907 -0.0060 -0.3351 -0.2980
 6463SOL    HW120005   4.714   3.774   6.894 -0.8076 -0.2182  2.9721
 6463SOL    HW220006   4.771   3.910   6.861 -1.1349 -0.8761 -0.7953
 6464SOL     OW20007   3.666   7.097   2.296 -0.3396  0.5504 -0.4263
 6464SOL    HW120008   3.760   7.112   2.280 -0.3737  0.1327 -1.0116
 6464SOL    HW220009   3.633   7.183   2.324  0.3413  0.5568  0.4170
 6465SOL     OW20010   7.167   4.201   5.932 -0.3298 -0.5584 -0.4503
 6465SOL    HW120011   7.174   4.294   5.952 -0.6809 -0.1279 -2.1700
 6465SOL    HW220012   7.075   4.179   5.948 -0.0348 -0.8760  0.9177
 6466SOL     OW20013   5.905   3.332   2.686 -0.3061  0.1800 -0.1620
 6466SOL    HW120014   5.984   3.359   2.637 -1.3204 -0.5955 -2.3551
 6466SOL    HW220015   5.833   3.350   2.626 -1.4807 -2.5056  0.3246
 6467SOL     OW20016   0.607   6.828   2.206  0.4981  0.5958 -0.3187
 6467SOL    HW120017   0.577   6.750   2.160  0.3084 -0.9923  2.2787
 6467SOL    HW220018   0.546   6.897   2.179  1.0672  0.1125 -3.1946
 6468SOL     OW20019   5.136   7.010   5.891 -0.0511 -0.4828  0.1646
 6468SOL    HW120020   5.212   6.976   5.939 -0.1837 -0.5684  0.3174
 6468SOL    HW220021   5.140   7.104   5.904  0.3083 -0.4415 -0.2460
 6469SOL     OW20022   3.522   2.175   2.764 -0.1884  0.1113  0.3678
 6469SOL    HW120023   3.561   2.200   2.848 -1.6524 -0.7497  1.3415
 6469SOL    HW220024   3.430   2.196   2.773 -0.3439  0.1082 -1.0850
 6470SOL     OW20025   3.219   3.949   1.913  0.1094 -0.3544  0.2431
 6470SOL    HW120026   3.210   3.913   2.001  0.5267  0.8992  0.8160
 6470SOL    HW220027   3.166   4.029   1.914  1.6589  0.7146 -0.0346
 6471SOL     OW20028   0.577   2.484   6.215 -0.3568  0.2441 -0.2860
 6471SOL    HW120029   0.666   2.499   6.246 -0.5621  0.7465  0.0899
 6471SOL    HW220030   0.585   2.416   6.148  0.3609  0.5825 -0.5528
 6472SOL     OW20031   6.794   4.074   1.494  0.5277 -0.7397  0.1066
 6472SOL    HW120032   6.888   4.077   1.476  0.5794 -1.7646  0.1422
 6472SOL    HW220033   6.766   4.165   1.490  1.4934 -0.4373 -0.0646
 6473SOL     OW20034   5.282   1.763   4.629 -0.5367 -0.1712  0.1344
 6473SOL    HW120035   5.319   1.742   4.714  0.2045 -2.2756 -0.6344
 6473SOL    HW220036   5.195   1.798   4.648 -1.0981 -2.2400  1.7138
 6474SOL     OW20037   6.942   5.172   6.532  0.1094  0.7887  0.6438
 6474SOL    HW120038   6.863   5.175   6.584  0.6924  1.9862  1.5035
 6474SOL    HW220039   6.983   5.088   6.554 -1.7431 -0.6806 -1.1391
 6475SOL     OW20040   0.513   1.819   2.244  0.0986 -0.2984 -0.6966
 6475SOL    HW120041   0.536   1.826   2.152 -0.6533 -1.2929 -0.9848
 6475SOL    HW220042   0.490   1.908   2.271  1.6045  0.2434 -1.0921
 6476SOL     OW20043   0.006   5.823   0.848  0.7793 -0.0396  0.2509
 6476SOL    HW120044  -0.041   5.828   0.764  1.1789 -1.6894 -0.0955
 6476SOL    HW220045  -0.061   5.840   0.914  0.0105 -0.8075 -0.3122
 6477SOL     OW20046   2.894   6.468   5.552  0.2455  0.3989  0.7802
 6477SOL    HW120047   2.958   6.501   5.489  1.7259  0.2418  2.1340
 6477SOL    HW220048   2.902   6.526   5.627  0.0403 -0.6679  1.6488
 6478SOL     OW20049   3.670   4.222   5.992 -0.2400  0.2007 -0.5436
 6478SOL    HW120050   3.611   4.248   5.921 -0.2394  0.1946 -0.5463
 6478SOL    HW220051   3.629   4.144   6.030 -0.8025  0.8217  0.1606
 6479SOL     OW20052   0.505   4.169   3.074  0.2964  0.0156 -0.0315
 6479SOL    HW120053   0.577   4.162   3.136  0.9655  0.3597 -0.7559
 6479SOL    HW220054   0.440   4.223   3.120  1.1531  1.0210  0.0480
 6480SOL     OW20055   2.026   3.826   0.769  0.0909  0.3208  0.4673
 6480SOL    HW120056   2.069   3.868   0.694 -0.1675 -0.2462 -0.0083
 6480SOL    HW220057   2.097   3.782   0.815  0.1748  0.2376  0.2614
 6481SOL     OW20058   3.793   4.256   0.405 -0.4226 -0.2172 -0.2981
 6481SOL    HW120059   3.862   4.315   0.434 -0.9321  0.5505 -0.6111
 6481SOL    HW220060   3.754   4.223   0.487 -1.0594  0.9936 -0.0885
 6482SOL     OW20061   2.614   5.718   4.599  0.1639 -0.7453  0.1325
 6482SOL    HW120062   2.524   5.706   4.569  0.1254  0.2502 -0.1883
 6482SOL    HW220063   2.660   5.640   4.568 -0.9926 -2.3174  2.0897
 6483SOL     OW20064   0.754   3.249   3.013 -0.3598  0.3487 -0.4512
 6483SOL    HW120065   0.667   3.276   2.983 -0.3337 -0.7954 -1.6430
 6483SOL    HW220066   0.737   3.181   3.078 -0.3779 -0.3821 -1.1966
 6484SOL     OW20067   4.104   4.382   1.771  0.6926 -0.3410  0.3880
 6484SOL    HW120068   4.117   4.412   1.860 -0.3355 -2.0072  1.1534
 6484SOL    HW220069   4.118   4.287   1.775 -0.1771 -0.5644 -1.0537
 6485SOL     OW20070   6.662   6.210   2.511  0.4428 -0.5604  0.2420
 6485SOL    HW120071   6.612   6.169   2.440  1.6233 -1.7915  0.0858
 6485SOL    HW220072   6.602   6.211   2.585 -0.5260 -0.0227 -0.5233
 6486SOL     OW20073   3.733   3.288   3.007  0.4274  0.0650 -0.4329
 6486SOL    HW120074   3.730   3.196   2.981  4.3035 -0.3449 -0.0687
 6486SOL    HW220075   3.750   3.336   2.926  2.0144 -0.0236 -0.1882
 6487SOL     OW20076   3.933   5.269   5.027  0.2282  0.0795  0.5762
 6487SOL    HW120077   4.021   5.306   5.030 -0.3650  1.5128  1.5879
 6487SOL    HW220078   3.902   5.273   5.117 -0.6508 -1.0237  0.3520
 6488SOL     OW20079   0.904   1.144   1.630 -0.2849 -0.5254  0.1723
 6488SOL    HW120080   0.911   1.170   1.722 -1.4374  2.3219 -0.4174
 6488SOL    HW220081   0.956   1.210   1.583 -1.2008 -0.8320 -1.3225
 6489SOL     OW20082   0.827   6.036   7.249 -0.5404 -0.6440  0.4976
 6489SOL    HW120083   0.771   5.992   7.185 -2.8062  0.9673  1.2343
 6489SOL    HW220084   0.811   5.990   7.332 -1.2427  0.1476  0.8206
 6490SOL     OW20085   5.475   6.597   6.171  0.2321 -0.1062 -0.3930
 6490SOL    HW120086   5.475   6.551   6.087  0.8129 -2.0354  0.6087
 6490SOL    HW220087   5.385   6.626   6.182 -0.3568 -1.7048 -0.7389
 6491SOL     OW20088   0.973   1.889   2.597  0.1474 -0.1689  0.4617
 6491SOL    HW120089   0.978   1.794   2.605  0.8642 -0.0828  1.2201
 6491SOL    HW220090   1.061   1.919   2.622 -0.3368  0.7353  1.1304
 6492SOL     OW20091   1.260   0.316   4.531  0.4688 -0.3587  0.3209
 6492SOL    HW120092   1.252   0.222   4.547 -0.3537 -0.2038  0.9206
 6492SOL    HW220093   1.340   0.342   4.576  1.6414 -1.0549 -1.2888
 6493SOL     OW20094   6.159   5.441   4.942 -0.7509 -0.3986 -0.7710
 6493SOL    HW120095   6.232   5.494   4.912  0.8608 -1.0200  1.7613
 6493SOL    HW220096   6.188   5.350   4.930 -1.1430 -0.6585  0.1482
 6494SOL     OW20097   1.819   5.709   6.738  0.2304 -0.4608 -0.7407
 6494SOL    HW120098   1.855   5.631   6.698 -0.3208 -2.6668  2.6294
 6494SOL    HW220099   1.882   5.732   6.806 -1.4712 -0.4459  0.9208
 6495SOL     OW20100   2.734   5.492   4.980 -0.5102  0.1053 -0.3599
 6495SOL    HW120101   2.760   5.534   4.898  0.2160  1.5612  0.5687
 6495SOL    HW220102   2.647   5.528   4.998  0.8860  3.0085  1.4521
 6496SOL     OW20103   4.673   3.838   6.528 -0.6947 -0.1096  0.3535
 6496SOL    HW120104   4.592   3.792   6.551 -1.0659  0.1556 -0.3874
 6496SOL    HW220105   4.643   3.922   6.492 -0.2282 -0.8593 -1.9811
 6497SOL     OW20106   3.370   3.880   6.579 -0.6959 -0.2205 -0.3982
 6497SOL    HW120107   3.307   3.952   6.581  1.2535  1.5623  1.1546
 6497SOL    HW220108   3.455   3.922   6.576  0.5203 -2.5235 -0.9248
 6498SOL     OW20109   4.235   1.614   4.849 -1.2413 -0.3637 -0.0700
 6498SOL    HW120110   4.183   1.639   4.772 -1.5407 -0.6892  0.0220
 6498SOL    HW220111   4.271   1.697   4.881 -1.2931 -0.1971 -0.4313
 6499SOL     OW20112   0.657   2.000   3.711 -0.1515  0.7117  0.3585
 6499SOL    HW120113   0.751   1.986   3.721 -0.1637 -1.9361 -1.9640
 6499SOL    HW220114   0.651   2.075   3.651  0.6456 -0.6822 -1.5732
 6500SOL     OW20115   5.520   7.084   5.019 -0.0698  0.0649  0.6757
 6500SOL    HW120116   5.586   7.082   5.088 -0.5950 -0.4186  1.1740
 6500SOL    HW220117   5.565   7.049   4.942  0.0843 -0.8675  1.1724
 6501SOL     OW20118   6.702   3.661   6.473  0.2089  0.3011  0.8318
 6501SOL    HW120119   6.648   3.685   6.548 -1.8416  0.4248 -0.5997
 6501SOL    HW220120   6.792   3.663   6.506 -0.5413  1.4052  2.9771
 6502SOL     OW20121   7.244   6.533   3.581  0.0439 -0.2042  0.2773
 6502SOL    HW120122   7.202   6.601   3.529  1.1584  1.6065  1.6572
 6502SOL    HW220123   7.330   6.522   3.540 -0.3849 -1.3391 -0.3685
 6503SOL     OW20124   6.877   0.399   2.263 -0.8425 -0.4532 -0.3592
 6503SOL    HW120125   6.919   0.317   2.237 -1.1284 -0.4298 -0.8973
 6503SOL    HW220126   6.812   0.416   2.195  0.7904  1.4729 -1.5158
 6504SOL     OW20127   3.072   0.751   4.381  0.2293 -0.0668  0.4951
 6504SOL    HW120128   2.978   0.768   4.396 -0.2580 -2.0973 -0.0094
 6504SOL    HW220129   3.092   0.802   4.302 -0.5628  0.0394  0.3489
 6505SOL     OW20130   1.376   0.299   0.273 -0.3736 -0.2493  0.6280
 6505SOL    HW120131   1.413   0.257   0.351  1.1870 -0.1373 -0.0244
 6505SOL    HW220132   1.336   0.379   0.307  0.5393 -0.0585  1.3055
 6506SOL     OW20133   2.217   6.580   4.509 -0.2757  0.9092 -0.2524
 6506SOL    HW120134   2.264   6.511   4.462 -0.4938  0.2479  0.4808
 6506SOL    HW220135   2.132   6.542   4.531 -0.7708  1.7410 -0.6607
 6507SOL     OW20136   1.350   6.305   7.128 -0.8462 -0.3464  0.8531
 6507SOL    HW120137   1.312   6.315   7.041 -0.1191  0.8319  0.6418
 6507SOL    HW220138   1.353   6.394   7.163  0.8093 -0.5221  1.2351
 6508SOL     OW20139   6.945   6.151   2.244  0.5174 -0.3134 -0.1869
 6508SOL    HW120140   6.862   6.173   2.288  0.1859  1.0668 -1.4183
 6508SOL    HW220141   6.920   6.132   2.154  1.6033  0.8697 -0.7679
 6509SOL     OW20142   5.056   5.975   4.880  0.2539  0.1185 -0.3496
 6509SOL    HW120143   5.094   5.969   4.792  0.2084 -0.3116 -0.3438
 6509SOL    HW220144   5.067   5.887   4.916 -0.2867  0.1264 -0.1612
 6510SOL     OW20145   4.959   3.119   4.634 -0.0282  0.5561 -0.4922
 6510SOL    HW120146   5.032   3.080   4.682 -1.4709 -1.0040  0.5292
 6510SOL    HW220147   4.997   3.144   4.549  1.5721 -0.6583 -0.1797
 6511SOL     OW20148   1.689   0.472   0.192  0.4693  0.1524  0.0997
 6511SOL    HW120149   1.690   0.420   0.111  0.8614 -0.9087  0.7691
 6511SOL    HW220150   1.673   0.408   0.261  0.3401  1.0230  0.8884
 6512SOL     OW20151   5.915   1.528   4.470 -0.0260 -0.1962 -0.2745
 6512SOL    HW120152   5.998   1.540   4.424 -0.3356 -2.5420 -1.6074
 6512SOL    HW220153   5.848   1.561   4.410 -0.2810 -1.5246 -0.7600
 6513SOL     OW20154   2.108   0.495   0.670 -0.7615 -0.0721  0.4193
 6513SOL    HW120155   2.033   0.437   0.683 -2.9799  2.4705 -0.0869
 6513SOL    HW220156   2.141   0.512   0.758 -0.6724 -1.3105  0.6425
 6514SOL     OW20157   0.291   1.556   6.393 -0.1849  0.3503 -0.1042
 6514SOL    HW120158   0.384   1.580   6.386  0.2128 -0.9142  0.5878
 6514SOL    HW220159   0.291   1.477   6.447 -1.5687 -0.3996 -1.1589
 6515SOL     OW20160   6.368   2.772   3.933  1.3238 -0.3110  0.0045
 6515SOL    HW120161   6.457   2.777   3.898  0.4663  1.7716 -2.1594
 6515SOL    HW220162   6.328   2.855   3.908 -1.0392 -0.9097  1.5123
 6516SOL     OW20163   3.595   5.297   4.192  0.0318  0.2663  0.3585
 6516SOL    HW120164   3.577   5.240   4.117  0.4463 -0.9720  1.1714
 6516SOL    HW220165   3.603   5.385   4.154  0.7502 -0.4064 -1.1217
 6517SOL     OW20166   5.830   0.023   4.885 -0.0498  0.2977 -0.2676
 6517SOL    HW120167   5.846  -0.056   4.937 -0.6370  1.4484  1.7724
 6517SOL    HW220168   5.844   0.095   4.946 -0.9979  1.7312 -1.6598
 6518SOL     OW20169   1.199   0.017   2.148  0.5818 -0.1570  0.6627
 6518SOL    HW120170   1.200  -0.029   2.064  0.3050  0.4267  0.3352
 6518SOL    HW220171   1.109   0.010   2.179  0.5818 -0.0059  0.7002
 6519SOL     OW20172   0.871   6.008   0.682 -0.6513  0.0394 -0.0971
 6519SOL    HW120173   0.830   6.024   0.597 -1.6465  0.1892  0.4037
 6519SOL    HW220174   0.963   5.990   0.661 -0.7048  0.8838 -1.1320
 6520SOL     OW20175   0.227   0.537   7.080  0.7548  0.2180  0.5264
 6520SOL    HW120176   0.201   0.452   7.044 -1.3049  0.4246  1.3852
 6520SOL    HW220177   0.204   0.599   7.011  1.8211  0.1582  0.0919
 6521SOL     OW20178   3.431   4.665   4.906  0.1472 -0.4635 -0.5624
 6521SOL    HW120179   3.482   4.688   4.984 -0.7717 -1.4830  0.3879
 6521SOL    HW220180   3.361   4.730   4.903  0.1751 -0.4323 -0.5239
 6522SOL     OW20181   1.889   6.061   0.388 -0.1340  0.4800 -0.4360
 6522SOL    HW120182   1.979   6.092   0.395  0.3631 -0.7418 -1.2197
 6522SOL    HW220183   1.886   5.982   0.443 -1.0090  1.0555  0.3900
 6523SOL     OW20184   5.258   1.395   2.574  0.4006  0.1555 -0.2416
 6523SOL    HW120185   5.329   1.354   2.623  0.5220  0.2860 -0.3063
 6523SOL    HW220186   5.199   1.429   2.641  0.9001  0.9129 -0.1733
 6524SOL     OW20187   5.417   3.377   2.331  0.0488  0.2005  0.4227
 6524SOL    HW120188   5.508   3.405   2.322  0.4222 -0.3985  2.1384
 6524SOL    HW220189   5.368   3.438   2.275  1.5760 -0.1374 -1.4088
 6525SOL     OW20190   5.431   1.458   0.356 -0.2281 -0.1415 -0.7619
 6525SOL    HW120191   5.422   1.521   0.427 -0.6519 -1.3710  0.3163
 6525SOL    HW220192   5.442   1.373   0.400  0.8347 -0.7689 -2.1541
 6526SOL     OW20193   3.687   6.873   0.321  0.5170  0.5579  0.0232
 6526SOL    HW120194   3.689   6.858   0.416  0.4430 -0.6333 -0.1425
 6526SOL    HW220195   3.753   6.813   0.286  0.0683  0.4832 -0.7264
 6527SOL     OW20196   7.048   3.516   5.606  0.6091  0.0300 -0.8444
 6527SOL    HW120197   7.055   3.571   5.528  0.2101 -0.0962 -0.9721
 6527SOL    HW220198   6.958   3.529   5.636  1.0275  0.7801  0.1201
 6528SOL     OW20199   0.935   5.268   2.817  0.3854 -0.0405 -0.1980
 6528SOL    HW120200   1.002   5.231   2.875 -0.1202 -1.1923 -0.3171
 6528SOL    HW220201   0.963   5.243   2.729 -2.1012 -3.9907 -0.0806
 6529SOL     OW20202   0.231   2.077   6.101 -0.3842  0.2483  0.5882
 6529SOL    HW120203   0.260   2.053   6.189 -1.3863 -1.6594  0.4629
 6529SOL    HW220204   0.150   2.126   6.115 -0.8743 -0.5777  0.7498
 6530SOL     OW20205   6.420   5.462   6.936  1.0728 -0.0644 -0.0063
 6530SOL    HW120206   6.384   5.489   7.020  1.3498  1.5108 -0.3484
 6530SOL    HW220207   6.344   5.437   6.884  0.5422  1.9496 -0.2839
 6531SOL     OW20208   6.018   6.302   0.995  0.1720 -0.2706 -0.0831
 6531SOL    HW120209   6.013   6.397   1.009  1.7995 -0.5053  2.9498
 6531SOL    HW220210   5.944   6.267   1.045  0.5031 -0.6549  0.1424
 6532SOL     OW20211   1.470   4.970   1.959 -0.4183 -0.4173 -0.2123
 6532SOL    HW120212   1.558   4.962   1.923  0.1760 -0.0239  1.1173
 6532SOL    HW220213   1.438   5.054   1.926  0.4046  0.2914  0.7434
 6533SOL     OW20214   0.493   6.967   0.715 -0.1768 -0.2297  0.0587
 6533SOL    HW120215   0.399   6.986   0.717 -0.1725 -0.0897 -0.7914
 6533SOL    HW220216   0.535   7.053   0.700 -0.0171 -0.5044 -1.2090
 6534SOL     OW20217   7.024   1.903   2.030 -0.6637  0.9721 -0.3685
 6534SOL    HW120218   6.966   1.832   2.004 -1.8171  2.0310 -0.7763
 6534SOL    HW220219   7.067   1.930   1.949  1.4544 -0.6262  0.1034
 6535SOL     OW20220   6.269   4.130   2.279 -0.1261 -0.0873  0.4693
 6535SOL    HW120221   6.189   4.134   2.227 -0.7038  2.1454  1.4187
 6535SOL    HW220222   6.238   4.130   2.370  0.9026 -2.3612  0.8767
 6536SOL     OW20223   6.735   2.766   0.492 -0.3616  0.3058  0.0762
 6536SOL    HW120224   6.768   2.802   0.574 -1.3459 -0.3408  0.7809
 6536SOL    HW220225   6.661   2.823   0.469 -1.4740 -0.7843  0.8192
 6537SOL     OW20226   2.374   3.279   2.156  0.6184  0.4443  0.1254
 6537SOL    HW120227   2.294   3.233   2.131  1.8746 -0.9026 -1.6669
 6537SOL    HW220228   2.420   3.218   2.214  1.0873  0.4937 -0.1837
 6538SOL     OW20229   6.793   6.845   5.250 -0.0639  0.1920  0.5090
 6538SOL    HW120230   6.769   6.896   5.327  0.6706  1.1272  0.1363
 6538SOL    HW220231   6.864   6.895   5.209 -0.9150  0.0947 -1.1583
 6539SOL     OW20232   6.884   7.243   4.282 -0.1844 -0.0677 -0.5230
 6539SOL    HW120233   6.832   7.307   4.233 -0.1448  0.0985 -0.3508
 6539SOL    HW220234   6.961   7.293   4.311  0.3304 -0.4431 -1.2202
 6540SOL     OW20235   1.282   6.025   2.220 -0.6169 -0.7189 -0.8389
 6540SOL    HW120236   1.201   6.073   2.239 -0.7036 -1.0737 -0.2780
 6540SOL    HW220237   1.350   6.072   2.267 -0.6030 -0.8015 -0.7763
 6541SOL     OW20238   7.136   5.077   4.903  0.5762  0.1459 -0.2049
 6541SOL    HW120239   7.079   5.142   4.860 -0.5881 -0.3025  0.6272
 6541SOL    HW220240   7.098   5.066   4.990  1.7769 -0.3992  0.2622
 6542SOL     OW20241   1.205   0.799   2.476 -0.2472 -0.4217 -0.3184
 6542SOL    HW120242   1.249   0.878   2.444  0.7226 -1.5454 -1.8688
 6542SOL    HW220243   1.121   0.799   2.431 -0.3629 -0.1345 -0.1053
 6543SOL     OW20244   5.808   0.453   7.138  0.1173 -0.2045 -0.4858
 6543SOL    HW120245   5.752   0.524   7.170  0.3555 -0.6349  0.9745
 6543SOL    HW220246   5.771   0.429   7.053 -0.5459  1.0099 -0.5666
 6544SOL     OW20247   0.692   1.425   6.318 -0.3223 -0.1291  0.3302
 6544SOL    HW120248   0.699   1.409   6.412  1.8472  0.1715  0.2596
 6544SOL    HW220249   0.761   1.488   6.299 -1.0350  0.1788 -1.3931
 6545SOL     OW20250   6.945   4.138   7.093  0.7119 -0.1951 -0.0957
 6545SOL    HW120251   6.864   4.086   7.088  0.7314 -0.3296  0.8200
 6545SOL    HW220252   6.964   4.144   7.186  0.1200  2.4142 -0.0661
 6546SOL     OW20253   7.040   5.172   5.626 -0.0095 -0.1531  0.3336
 6546SOL    HW120254   7.103   5.210   5.686  0.2059  1.4250 -0.8117
 6546SOL    HW220255   7.072   5.196   5.539 -0.8654 -1.4492 -0.3705
 6547SOL     OW20256   0.324   5.376   3.352 -0.1787  0.3706  0.2427
 6547SOL    HW120257   0.305   5.370   3.445 -1.9066  0.3030 -0.0693
 6547SOL    HW220258   0.274   5.453   3.322  1.4209  1.2218 -0.4024
 6548SOL     OW20259   4.751   4.058   6.735  0.0519  1.0604 -0.1790
 6548SOL    HW120260   4.795   4.138   6.706 -0.3895  0.8853 -1.3935
 6548SOL    HW220261   4.764   3.996   6.663  0.3026  0.0545  0.6972
 6549SOL     OW20262   1.556   0.269   5.446 -0.3870 -0.3816 -0.2920
 6549SOL    HW120263   1.577   0.298   5.357 -1.6283  1.6974  0.0169
 6549SOL    HW220264   1.473   0.311   5.466 -0.2031 -0.8865  1.8179
 6550SOL     OW20265   1.921   5.610   4.411 -0.1278 -0.0062 -0.0797
 6550SOL    HW120266   1.908   5.701   4.440  1.4610 -0.3121  1.8191
 6550SOL    HW220267   1.834   5.571   4.416 -0.4165  0.7558  1.6309
 6551SOL     OW20268   1.287   3.656   4.539  0.1313 -0.3455 -0.6232
 6551SOL    HW120269   1.205   3.641   4.492  0.1218  0.5351 -0.9089
 6551SOL    HW220270   1.292   3.752   4.548  0.9126 -0.4174 -0.2336
 6552SOL     OW20271   0.246   4.021   4.863 -0.0051  0.1673 -0.1132
 6552SOL    HW120272   0.176   3.960   4.842 -0.2056  0.8936 -1.6786
 6552SOL    HW220273   0.273   4.058   4.779  1.1369  1.1161  0.6265
 6553SOL     OW20274   3.775   6.764   3.177  0.2059 -0.2711  0.0183
 6553SOL    HW120275   3.764   6.858   3.190 -0.5409 -0.5144  1.3593
 6553SOL    HW220276   3.834   6.757   3.103  2.0927  1.2819  1.2629
 6554SOL     OW20277   0.978   3.282   4.401 -0.0744 -0.3817 -0.3009
 6554SOL    HW120278   1.023   3.315   4.479 -0.8613 -0.1401  0.0628
 6554SOL    HW220279   1.048   3.271   4.336  0.4579  0.3167  0.1340
 6555SOL     OW20280   2.263   1.799   5.236 -0.4751  0.0623  0.0356
 6555SOL    HW120281   2.323   1.779   5.164 -0.5539 -0.8431  0.2110
 6555SOL    HW220282   2.258   1.895   5.237  0.4265  0.1234 -0.4129
 6556SOL     OW20283   1.481   5.095   0.360 -0.1866  0.2081  0.3976
 6556SOL    HW120284   1.452   5.166   0.417  0.6628  2.0185 -1.2729
 6556SOL    HW220285   1.547   5.049   0.410  0.7419  1.9170  0.8367
 6557SOL     OW20286   1.522   1.139   0.620  0.2227  0.1075 -0.4604
 6557SOL    HW120287   1.429   1.119   0.624 -0.0085 -0.0104 -3.7326
 6557SOL    HW220288   1.562   1.060   0.583  1.2394  0.9431 -1.2257
 6558SOL     OW20289   1.627   5.488   4.269 -0.8283  0.2183 -0.0748
 6558SOL    HW120290   1.673   5.406   4.252 -0.3177  0.3881  0.4665
 6558SOL    HW220291   1.535   5.469   4.248 -0.7636 -0.5744  0.3290
 6559SOL     OW20292   4.880   7.036   5.077 -0.4063 -0.1497 -0.2788
 6559SOL    HW120293   4.896   7.053   5.170  1.7096  0.0103 -0.6215
 6559SOL    HW220294   4.943   7.092   5.031  0.4618 -2.1926 -1.7198
 6560SOL     OW20295   6.129   1.056   4.219  0.1227 -0.4633 -0.3876
 6560SOL    HW120296   6.131   1.112   4.296 -1.4358  1.1185 -1.4287
 6560SOL    HW220297   6.038   1.030   4.210  0.4816 -1.5893 -1.0603
 6561SOL     OW20298   6.875   2.443   0.192  0.1333  0.8586 -0.5067
 6561SOL    HW120299   6.892   2.534   0.218  0.3613  0.6156  0.2362
 6561SOL    HW220300   6.953   2.395   0.221 -0.5971  0.1867  0.4195
 6562SOL     OW20301   6.862   4.173   4.114  0.3750  0.1711 -0.2422
 6562SOL    HW120302   6.864   4.143   4.024  0.6256  0.3379 -0.2917
 6562SOL    HW220303   6.932   4.125   4.158 -1.6804 -2.2503  0.6079
 6563SOL     OW20304   6.675   5.524   6.216  0.6324  0.0647 -0.0828
 6563SOL    HW120305   6.756   5.503   6.263 -0.0793  0.6144  1.4692
 6563SOL    HW220306   6.606   5.509   6.280 -0.5443 -0.6135 -1.4495
 6564SOL     OW20307   0.289   2.862   4.718 -0.5908  0.2489 -0.1635
 6564SOL    HW120308   0.196   2.884   4.723 -0.5749  0.6389 -1.4335
 6564SOL    HW220309   0.325   2.922   4.653  0.0174 -1.6556 -1.6692
 6565SOL     OW20310   3.103   3.441   6.218  0.0452  0.0685  0.3378
 6565SOL    HW120311   3.038   3.475   6.280 -1.9082 -0.5789 -1.2557
 6565SOL    HW220312   3.056   3.434   6.135  1.5874 -2.3141 -0.4391
 6566SOL     OW20313   3.067   2.050   1.934 -0.1352 -0.4294 -0.2492
 6566SOL    HW120314   3.102   2.130   1.973  0.3907 -0.7134 -0.1222
 6566SOL    HW220315   2.973   2.066   1.926  0.2313  1.0949 -2.3466
 6567SOL     OW20316   4.447   5.138   3.797  0.4443  0.1143 -0.8315
 6567SOL    HW120317   4.363   5.103   3.768 -0.0615  0.2098  0.4441
 6567SOL    HW220318   4.503   5.061   3.807 -0.2924 -0.2563  0.7812
 6568SOL     OW20319   2.536   4.476   0.943 -0.0118  0.4686 -0.3731
 6568SOL    HW120320   2.512   4.385   0.963 -2.6509  1.2327  0.3479
 6568SOL    HW220321   2.566   4.473   0.852  2.7357 -1.5150  0.4780
 6569SOL     OW20322   1.308   1.470   3.750  0.0637  0.1779 -0.1266
 6569SOL    HW120323   1.397   1.443   3.771 -0.4049 -0.2501  1.4206
 6569SOL    HW220324   1.319   1.554   3.706  1.2114  0.4973  0.7020
 6570SOL     OW20325   0.471   3.451   0.013 -0.3998  0.3702 -0.2122
 6570SOL    HW120326   0.498   3.528  -0.037 -2.0425  0.0581 -1.6904
 6570SOL    HW220327   0.420   3.485   0.086 -0.5102  0.7075 -0.4494
 6571SOL     OW20328   5.580   5.078   6.164  0.2896 -0.4808  0.1480
 6571SOL    HW120329   5.503   5.021   6.158 -1.6046  1.8982  0.4931
 6571SOL    HW220330   5.597   5.087   6.257  0.4721 -0.3222  0.1005
 6572SOL     OW20331   4.998   2.205   6.989  0.0382  0.5064  0.2191
 6572SOL    HW120332   5.010   2.274   7.055 -0.2190  0.8570 -0.0972
 6572SOL    HW220333   4.938   2.143   7.030  1.5726 -0.4151  1.1660
 6573SOL     OW20334   5.652   2.556   5.852  0.0975 -0.0196 -0.6346
 6573SOL    HW120335   5.680   2.527   5.766  0.6557 -2.0754  0.1970
 6573SOL    HW220336   5.697   2.499   5.914 -0.3432  1.3365  1.0489
 6574SOL     OW20337   5.850   1.653   4.202 -0.1650 -0.8060  0.6569
 6574SOL    HW120338   5.849   1.744   4.174  0.7197 -0.0678  2.8096
 6574SOL    HW220339   5.893   1.606   4.130 -0.8879  0.4005 -0.6057
 6575SOL     OW20340   4.754   0.709   1.753 -0.4908 -0.1608  0.7921
 6575SOL    HW120341   4.739   0.705   1.659  1.0538  0.3517  0.4848
 6575SOL    HW220342   4.741   0.620   1.784  0.4597 -0.6567 -0.1797
 6576SOL     OW20343   6.894   5.690   4.433 -0.4030 -0.2840 -0.0044
 6576SOL    HW120344   6.831   5.760   4.449 -0.0655 -0.5300  2.8776
 6576SOL    HW220345   6.969   5.712   4.488  1.4007 -0.8740 -2.0946
 6577SOL     OW20346   3.609   7.234   0.701  0.0007 -0.2257  0.5849
 6577SOL    HW120347   3.527   7.282   0.690  0.4149  0.3879  0.0964
 6577SOL    HW220348   3.646   7.230   0.613  1.9167  2.0879  1.1571
 6578SOL     OW20349   6.759   2.720   2.913 -0.6099  0.2427 -0.1639
 6578SOL    HW120350   6.771   2.644   2.857 -1.1370 -0.2802  0.4216
 6578SOL    HW220351   6.846   2.737   2.949 -0.5906 -0.3849  0.0906
 6579SOL     OW20352   2.079   0.720   4.659 -0.3444 -0.2614  0.4124
 6579SOL    HW120353   2.130   0.753   4.733 -0.3972 -1.1897  0.8753
 6579SOL    HW220354   1.988   0.738   4.682 -0.2749  1.1700 -0.3025
 6580SOL     OW20355   4.986   1.475   0.512 -0.1500 -0.1918 -0.0350
 6580SOL    HW120356   4.976   1.391   0.468 -0.8114 -0.1673  0.0682
 6580SOL    HW220357   4.992   1.539   0.441 -4.6482  0.2953 -0.2204
 6581SOL     OW20358   6.226   2.411   1.055 -0.3298  0.0866 -0.2391
 6581SOL    HW120359   6.211   2.322   1.086 -0.0743  1.1807  3.4942
 6581SOL    HW220360   6.322   2.419   1.050 -0.3683 -0.3386 -2.4198
 6582SOL     OW20361   5.359   6.464   4.261  0.1770  0.1241  0.5213
 6582SOL    HW120362   5.399   6.420   4.336  0.5165 -0.7724 -0.1482
 6582SOL    HW220363   5.319   6.393   4.210  0.5709  0.6028 -0.5008
 6583SOL     OW20364   3.602   5.561   1.776  0.3036  0.1569  0.4454
 6583SOL    HW120365   3.559   5.636   1.735 -0.0551 -0.2079  0.1312
 6583SOL    HW220366   3.592   5.575   1.870  1.1392  1.0085  0.4225
 6584SOL     OW20367   4.342   1.996   0.912 -0.5760  0.5014 -0.4536
 6584SOL    HW120368   4.388   1.928   0.863 -0.4950  1.6702 -2.0925
 6584SOL    HW220369   4.250   1.981   0.892 -0.6931 -0.0971  0.5022
 6585SOL     OW20370   2.437   3.284   6.176 -0.3315 -0.5976 -0.3695
 6585SOL    HW120371   2.486   3.367   6.170  1.8275 -1.8262 -0.9729
 6585SOL    HW220372   2.440   3.261   6.268 -0.0904 -0.4803 -0.3472
 6586SOL     OW20373   0.970   1.008   6.919  0.2855 -0.1233 -0.0888
 6586SOL    HW120374   0.901   0.956   6.960  0.1180  0.6080  0.5986
 6586SOL    HW220375   1.016   1.048   6.993  0.3030  0.8268 -0.5985
 6587SOL     OW20376   0.843   6.233   6.829  0.2642 -0.1091  0.4650
 6587SOL    HW120377   0.798   6.317   6.842 -1.9418 -1.1332 -0.1517
 6587SOL    HW220378   0.775   6.167   6.844  1.1374 -1.7075 -2.0874
 6588SOL     OW20379   3.317   2.432   0.852 -0.5461 -0.4486 -0.6057
 6588SOL    HW120380   3.265   2.466   0.925  2.6923  1.7167  0.9525
 6588SOL    HW220381   3.368   2.360   0.890  3.0402  2.2750  0.2625
 6589SOL     OW20382   1.396   3.978   4.287 -0.0796  0.1651 -0.4038
 6589SOL    HW120383   1.306   4.005   4.266 -1.5572 -1.0715  3.5204
 6589SOL    HW220384   1.411   3.901   4.231 -0.5247  1.6474 -2.6965
 6590SOL     OW20385   3.771   5.146   2.702  0.1013  0.1029  0.1267
 6590SOL    HW120386   3.785   5.239   2.682 -2.0557  0.0256 -2.1808
 6590SOL    HW220387   3.782   5.102   2.618 -2.0912 -1.3034  0.5189
 6591SOL     OW20388   6.273   4.219   5.671 -0.0015  0.1175 -0.0435
 6591SOL    HW120389   6.288   4.311   5.649  1.6601 -0.0727  0.2073
 6591SOL    HW220390   6.291   4.214   5.765  1.0029 -0.6621 -0.2641
 6592SOL     OW20391   3.836   5.117   4.253  0.1052 -0.6199 -0.0813
 6592SOL    HW120392   3.773   5.188   4.241  1.4898  0.8099  0.7619
 6592SOL    HW220393   3.796   5.060   4.319 -0.3978  0.1735  0.3184
 6593SOL     OW20394   3.518   0.863   1.933  0.3780 -0.7817  0.4025
 6593SOL    HW120395   3.519   0.912   1.851  0.1003  0.0979  0.9138
 6593SOL    HW220396   3.549   0.776   1.909 -0.9757 -0.9412 -0.8872
 6594SOL     OW20397   0.439   3.080   5.128  0.6222 -0.3965 -0.1125
 6594SOL    HW120398   0.410   2.995   5.095  0.5902 -0.1064 -0.8364
 6594SOL    HW220399   0.359   3.131   5.138  0.8147  0.3797 -2.0414
 6595SOL     OW20400   6.508   4.742   4.472 -0.4034 -0.1107 -0.2876
 6595SOL    HW120401   6.559   4.663   4.456  0.1326  0.2209 -0.2864
 6595SOL    HW220402   6.571   4.813   4.456 -0.3181  0.2748  1.5631
 6596SOL     OW20403   3.146   1.768   0.252  0.5969  0.0961  0.0027
 6596SOL    HW120404   3.088   1.844   0.264  0.2919  0.2211 -1.8389
 6596SOL    HW220405   3.223   1.788   0.304 -0.0840  0.9748  0.7161
 6597SOL     OW20406   5.706   5.610   1.288  0.1116 -0.3238  0.6408
 6597SOL    HW120407   5.765   5.623   1.363  0.0740 -0.1059  0.6305
 6597SOL    HW220408   5.621   5.642   1.317  0.7361  2.6261 -0.5051
 6598SOL     OW20409   3.536   5.179   3.931  0.0826  0.0277 -0.0485
 6598SOL    HW120410   3.541   5.220   3.844  1.2929  0.0234  0.0045
 6598SOL    HW220411   3.603   5.111   3.929 -0.6546 -0.7364  0.5107
 6599SOL     OW20412   2.816   0.576   2.859  0.0809  0.2316 -0.0609
 6599SOL    HW120413   2.788   0.666   2.867 -0.5474  0.1257 -0.9276
 6599SOL    HW220414   2.882   0.565   2.927 -1.4808  0.6719  1.5929
 6600SOL     OW20415   0.515   5.526   4.280  0.2310  0.1494 -0.2690
 6600SOL    HW120416   0.512   5.622   4.286  0.4650  0.1017  0.8007
 6600SOL    HW220417   0.601   5.503   4.315 -0.1737 -0.5055  0.2978
 6601SOL     OW20418   4.905   5.920   1.100  0.5795  0.0740 -0.5827
 6601SOL    HW120419   4.846   5.858   1.059 -0.4138  0.4188  0.2811
 6601SOL    HW220420   4.882   5.917   1.193  2.2702 -0.1555 -0.1408
 6602SOL     OW20421   4.832   5.916   0.627  0.2371  0.1914 -0.0960
 6602SOL    HW120422   4.796   5.944   0.543  0.7550  1.1365 -0.0077
 6602SOL    HW220423   4.852   5.997   0.674 -1.2609 -0.3111  1.4828
 6603SOL     OW20424   6.819   5.575   3.935 -0.1702 -0.3350  0.0590
 6603SOL    HW120425   6.733   5.595   3.973 -0.7068 -1.4340 -0.5253
 6603SOL    HW220426   6.800   5.518   3.860  1.1065 -1.0164  0.2207
 6604SOL     OW20427   5.243   0.884   5.655  0.3837 -0.0433  0.3322
 6604SOL    HW120428   5.245   0.945   5.728  0.6726 -0.3028  0.5437
 6604SOL    HW220429   5.235   0.798   5.696 -0.5209 -0.1183  0.0235
 6605SOL     OW20430   5.668   4.925   4.960  0.0402 -0.4391 -0.1700
 6605SOL    HW120431   5.755   4.946   4.928 -0.5188  4.1413  0.6356
 6605SOL    HW220432   5.619   4.899   4.881  1.5473 -0.9998 -0.9604
 6606SOL     OW20433   5.439   5.995   6.859  0.0624 -0.0735 -0.3555
 6606SOL    HW120434   5.419   6.069   6.916  1.4286  0.7991 -0.9762
 6606SOL    HW220435   5.506   5.946   6.906  1.4350  0.8292 -1.3055
 6607SOL     OW20436   0.982   6.006   2.639 -0.1765  0.6927 -0.1246
 6607SOL    HW120437   1.071   6.035   2.622  0.3371  0.1766  1.4981
 6607SOL    HW220438   0.941   6.079   2.685 -0.4793  0.7766 -0.5187
 6608SOL     OW20439   4.385   4.135   2.682 -0.2748 -0.6261  0.5880
 6608SOL    HW120440   4.340   4.149   2.766 -0.7635 -0.1298  0.2507
 6608SOL    HW220441   4.453   4.071   2.702 -0.2297 -0.3333  1.4197
 6609SOL     OW20442   6.653   6.621   6.969  0.2527  0.0422 -0.0704
 6609SOL    HW120443   6.710   6.640   6.895 -0.3642  1.7761 -0.1551
 6609SOL    HW220444   6.580   6.572   6.931  1.3546 -1.7103 -0.0490
 6610SOL     OW20445   2.060   6.818   4.622  0.1536 -0.5789 -0.0565
 6610SOL    HW120446   2.030   6.758   4.690  0.3241 -0.1530  0.3999
 6610SOL    HW220447   2.129   6.770   4.576  0.5984 -0.5657  0.5915
 6611SOL     OW20448   4.836   1.688   4.998  0.0066 -0.8730  0.2892
 6611SOL    HW120449   4.748   1.709   5.029  0.2230 -1.8976  1.7127
 6611SOL    HW220450   4.890   1.762   5.027  0.2047 -1.7950  2.5422
 6612SOL     OW20451   0.789   5.760   5.669 -0.0980 -0.3889  0.0047
 6612SOL    HW120452   0.876   5.794   5.692  0.9181 -3.0974  0.5399
 6612SOL    HW220453   0.789   5.757   5.574  0.6779 -0.9225  0.0064
 6613SOL     OW20454   2.764   2.069   0.167  0.3493 -0.0199 -0.0828
 6613SOL    HW120455   2.844   2.038   0.124  1.0461  0.8173  0.5596
 6613SOL    HW220456   2.728   1.991   0.210 -0.8905 -1.1049 -2.8682
 6614SOL     OW20457   3.754   2.884   4.737 -0.0942 -0.0064  0.0285
 6614SOL    HW120458   3.725   2.851   4.822  0.9639  0.3774  0.5477
 6614SOL    HW220459   3.694   2.843   4.674 -0.2262 -1.1303  0.8542
 6615SOL     OW20460   5.171   5.010   7.236  0.4424  0.1300 -0.0675
 6615SOL    HW120461   5.229   5.015   7.312  2.2494 -0.4652 -1.3608
 6615SOL    HW220462   5.094   5.060   7.262  0.7548 -0.5293  2.3706
 6616SOL     OW20463   0.788   7.178   5.702 -0.2857  0.1036 -0.5562
 6616SOL    HW120464   0.792   7.235   5.626  0.1469  1.3476  0.3716
 6616SOL    HW220465   0.785   7.237   5.777  0.0712 -1.0920  0.4433
 6617SOL     OW20466   2.141   1.414   1.322 -0.0126  0.4581 -0.7208
 6617SOL    HW120467   2.082   1.395   1.249  1.7337  1.9738 -2.6102
 6617SOL    HW220468   2.173   1.503   1.305  1.9706  0.1046  0.8415
 6618SOL     OW20469   4.455   0.264   0.645  0.1572  0.1080  0.5320
 6618SOL    HW120470   4.430   0.322   0.574 -0.0369 -2.6933 -1.8813
 6618SOL    HW220471   4.547   0.283   0.662  0.1762  0.9112 -0.4192
 6619SOL     OW20472   4.329   2.840   6.114  0.4288  0.0657 -0.4759
 6619SOL    HW120473   4.317   2.850   6.209  0.7104  0.2791 -0.4611
 6619SOL    HW220474   4.281   2.761   6.092  2.9990 -1.8591  0.3765
 6620SOL     OW20475   3.557   6.930   4.444 -0.5208 -0.0759 -0.2833
 6620SOL    HW120476   3.494   6.926   4.515  2.1312  1.5743  2.3655
 6620SOL    HW220477   3.638   6.961   4.484  1.3366  0.4236 -3.9339
 6621SOL     OW20478   0.574   6.143   3.702 -0.0122 -0.1700  0.1425
 6621SOL    HW120479   0.624   6.160   3.622 -1.1842 -0.0328 -0.5974
 6621SOL    HW220480   0.513   6.073   3.677 -0.2499 -0.2701  0.9807
 6622SOL     OW20481   4.203   2.257   3.793 -0.0367 -0.2152  0.1366
 6622SOL    HW120482   4.230   2.167   3.775 -0.4146 -1.2974  4.0695
 6622SOL    HW220483   4.145   2.279   3.721  0.9024 -2.7070 -1.5313
 6623SOL     OW20484   1.389   2.876   3.999  0.1106 -0.2189  0.1745
 6623SOL    HW120485   1.327   2.818   3.955  0.2929 -1.1872  1.1458
 6623SOL    HW220486   1.401   2.837   4.086 -0.5769  1.8599  1.2811
 6624SOL     OW20487   3.816   2.917   0.378 -0.2812  0.0008  0.1466
 6624SOL    HW120488   3.889   2.862   0.349 -1.0423 -0.6676 -0.5526
 6624SOL    HW220489   3.757   2.856   0.423 -0.4964  0.4958  0.5405
 6625SOL     OW20490   0.509   1.652   4.767  0.0769 -0.7370  0.1441
 6625SOL    HW120491   0.459   1.570   4.775 -0.0003 -0.7001  0.0432
 6625SOL    HW220492   0.532   1.674   4.857 -0.4728 -0.5200  0.2388
 6626SOL     OW20493   0.949   4.847   0.657 -0.4026 -0.1725  0.0211
 6626SOL    HW120494   0.980   4.817   0.572  1.7183  0.1246  0.6304
 6626SOL    HW220495   0.995   4.930   0.671 -0.8127 -0.1464  1.3893
 6627SOL     OW20496   1.130   0.142   3.236 -0.3160 -0.0267 -0.0043
 6627SOL    HW120497   1.158   0.052   3.219  1.8790  0.4869  0.5332
 6627SOL    HW220498   1.103   0.142   3.328  1.5580  0.2172  0.5952
 6628SOL     OW20499   1.440   6.929   0.786 -0.1970 -0.1494 -0.0293
 6628SOL    HW120500   1.448   6.859   0.721 -0.9211  0.5491 -0.9090
 6628SOL    HW220501   1.523   6.929   0.832  1.2320  0.6772 -2.3877
 6629SOL     OW20502   4.004   4.587   1.600 -0.3462 -0.6688  0.2558
 6629SOL    HW120503   4.031   4.530   1.672  0.8645  0.6756  0.9277
 6629SOL    HW220504   3.917   4.619   1.626 -0.6580 -1.5185  0.2796
 6630SOL     OW20505   0.785   2.755   5.052  0.0301 -0.1738 -0.3927
 6630SOL    HW120506   0.709   2.753   4.995 -0.3403 -0.1811  0.0899
 6630SOL    HW220507   0.855   2.793   4.999 -0.9089  2.0576 -0.1532
 6631SOL     OW20508   3.514   2.261   0.926  0.2030 -0.2937 -0.4840
 6631SOL    HW120509   3.526   2.255   1.020  0.4049  0.8878 -0.4297
 6631SOL    HW220510   3.463   2.182   0.903 -0.8998  0.0304  0.7733
 6632SOL     OW20511   7.061   4.338   6.934 -0.0497  0.2790  0.0323
 6632SOL    HW120512   6.994   4.405   6.943 -0.6993 -0.5360  1.6141
 6632SOL    HW220513   7.021   4.258   6.969  1.5914 -0.3296  0.6584
 6633SOL     OW20514   2.063   1.627   6.914 -0.1304 -0.5662  0.0780
 6633SOL    HW120515   2.135   1.585   6.961 -0.0542 -0.9149 -0.3371
 6633SOL    HW220516   2.013   1.554   6.876 -0.8384 -0.3416  0.5501
 6634SOL     OW20517   4.784   0.867   0.354  0.3478  0.5268 -0.7417
 6634SOL    HW120518   4.851   0.916   0.401  0.4744  0.4419 -0.8314
 6634SOL    HW220519   4.721   0.841   0.421 -0.5103  2.0747 -0.8870
 6635SOL     OW20520   5.613   0.799   5.478 -0.4250  0.4109  0.6277
 6635SOL    HW120521   5.695   0.843   5.500 -0.3691  0.0170  1.2449
 6635SOL    HW220522   5.548   0.869   5.478 -0.5381  0.3680  2.7115
 6636SOL     OW20523   3.077   3.543   0.736 -0.1834  0.7428 -0.9844
 6636SOL    HW120524   3.063   3.574   0.646  1.2058  1.2912 -1.0400
 6636SOL    HW220525   3.098   3.622   0.786  0.8066  0.2314 -0.5640
 6637SOL     OW20526   1.585   5.162   1.120  0.7365  0.3547  0.5557
 6637SOL    HW120527   1.669   5.121   1.101 -0.1779 -1.1727 -0.3397
 6637SOL    HW220528   1.570   5.221   1.046  0.2474 -0.6425 -0.1525
 6638SOL     OW20529   6.307   6.766   2.966 -0.2686 -0.0168 -0.4101
 6638SOL    HW120530   6.359   6.815   3.029  0.8935 -0.5115 -0.9666
 6638SOL    HW220531   6.225   6.748   3.011  0.8403 -1.0902  1.2706
 6639SOL     OW20532   1.325   5.389   0.777 -0.1389  0.3418 -0.1607
 6639SOL    HW120533   1.308   5.343   0.695  1.0431 -0.8424  0.2130
 6639SOL    HW220534   1.259   5.355   0.838 -0.7386  0.8918 -0.5046
 6640SOL     OW20535   6.708   2.872   6.078 -0.2523 -0.3863  0.0549
 6640SOL    HW120536   6.686   2.798   6.022 -0.4511 -2.0207  2.1513
 6640SOL    HW220537   6.647   2.941   6.053 -1.4910 -1.6587 -0.5432
 6641SOL     OW20538   6.743   0.454   4.224 -0.5078 -0.0173  0.0985
 6641SOL    HW120539   6.710   0.509   4.153  0.7046  1.2084  0.4403
 6641SOL    HW220540   6.743   0.511   4.301 -0.1361 -0.7950  0.6934
 6642SOL     OW20541   2.335   1.226   0.874 -0.1114 -0.3246 -0.4766
 6642SOL    HW120542   2.340   1.262   0.785  0.6186 -2.1468 -1.2359
 6642SOL    HW220543   2.378   1.140   0.867 -1.6294 -1.2899  1.2442
 6643SOL     OW20544   5.510   1.855   5.676  0.8970  0.0304 -0.2879
 6643SOL    HW120545   5.599   1.889   5.686  0.5723  0.7453  0.3407
 6643SOL    HW220546   5.484   1.881   5.588  1.1441  0.2403 -0.3008
 6644SOL     OW20547   7.051   0.684   2.278 -0.3234 -0.3551  0.4437
 6644SOL    HW120548   6.996   0.759   2.304 -0.3854  0.2772 -1.3633
 6644SOL    HW220549   7.004   0.607   2.310 -1.6682  0.2477 -0.0145
 6645SOL     OW20550   3.474   3.364   1.616  0.1915  0.2688 -0.7130
 6645SOL    HW120551   3.516   3.299   1.560  0.5121  0.0509 -0.2230
 6645SOL    HW220552   3.384   3.370   1.582  0.3230 -0.0053 -1.1180
 6646SOL     OW20553   1.271   1.230   6.311 -0.5619  0.2215 -0.6572
 6646SOL    HW120554   1.239   1.176   6.383 -1.6703  0.7358 -0.7454
 6646SOL    HW220555   1.229   1.194   6.233 -1.0666  1.0009 -0.7555
 6647SOL     OW20556   5.634   4.754   2.549  0.1802  0.1668 -0.0105
 6647SOL    HW120557   5.577   4.686   2.516 -1.1684  1.3823 -0.2921
 6647SOL    HW220558   5.694   4.773   2.476 -1.6706  1.6407 -1.2378
 6648SOL     OW20559   2.774   3.096   5.609  0.0043  0.4606 -0.1603
 6648SOL    HW120560   2.796   3.156   5.538 -3.3214  1.3572 -0.6010
 6648SOL    HW220561   2.680   3.107   5.622  0.3468  0.1645  4.2603
 6649SOL     OW20562   2.830   6.766   0.560 -0.2059 -0.1538  0.1111
 6649SOL    HW120563   2.868   6.822   0.628  1.5629 -0.5809 -0.4509
 6649SOL    HW220564   2.755   6.725   0.601 -0.9128  1.8019  0.8667
 6650SOL     OW20565   0.533   1.589   1.663 -0.5973 -0.1291 -0.3392
 6650SOL    HW120566   0.580   1.663   1.702  0.2912  1.3612 -3.7672
 6650SOL    HW220567   0.455   1.629   1.624 -0.2727 -0.9775 -1.9658
 6651SOL     OW20568   0.687   1.082   1.269 -0.0818  0.0178  0.5618
 6651SOL    HW120569   0.623   1.120   1.330  0.4767  2.1936 -0.1220
 6651SOL    HW220570   0.633   1.050   1.196 -0.5418  0.0834  0.8660
 6652SOL     OW20571   3.266   1.606   1.002  0.8736  0.0343  0.2680
 6652SOL    HW120572   3.278   1.518   1.038 -1.2773 -1.0871 -1.4422
 6652SOL    HW220573   3.185   1.638   1.043  0.0298 -0.0560 -1.2371
 6653SOL     OW20574   5.994   2.260   7.122 -0.1488  0.3380 -0.2471
 6653SOL    HW120575   5.989   2.164   7.127  1.7103  0.2327  0.7870
 6653SOL    HW220576   6.039   2.285   7.203  1.9537  1.8255 -1.7686
 6654SOL     OW20577   1.399   6.413   1.074  0.0331 -0.1313  0.2552
 6654SOL    HW120578   1.470   6.355   1.102 -0.2838 -1.3788 -1.3811
 6654SOL    HW220579   1.413   6.424   0.980 -1.0925  0.8296  0.1804
 6655SOL     OW20580   2.157   3.305   1.416  0.7029 -0.5390 -0.0055
 6655SOL    HW120581   2.203   3.345   1.490  0.0708  0.2303 -0.0147
 6655SOL    HW220582   2.109   3.231   1.454  0.6947 -0.3853  0.2817
 6656SOL     OW20583   3.902   2.687   6.746  0.6029  0.4801 -0.0392
 6656SOL    HW120584   3.959   2.759   6.718  0.7401 -0.7117 -3.2452
 6656SOL    HW220585   3.962   2.615   6.766  0.3517 -0.1018 -1.2949
 6657SOL     OW20586   4.144   1.769   2.485 -0.1219  0.1395 -0.1351
 6657SOL    HW120587   4.206   1.779   2.557 -1.0065  0.0973  0.6462
 6657SOL    HW220588   4.195   1.728   2.416 -0.0349 -2.9413  1.5995
 6658SOL     OW20589   3.475   5.487   0.189 -0.2508  0.7009  0.0857
 6658SOL    HW120590   3.381   5.493   0.206 -0.4336  0.0307 -0.6218
 6658SOL    HW220591   3.483   5.500   0.094  0.4813  1.8341  0.2862
 6659SOL     OW20592   1.969   2.166   3.907  0.2557  0.1300 -0.1747
 6659SOL    HW120593   1.910   2.137   3.977  0.1733  0.3851 -0.1361
 6659SOL    HW220594   1.913   2.216   3.848 -0.3775 -2.5667 -2.0761
 6660SOL     OW20595   5.322   7.084   1.243 -0.3616  0.0779 -0.4186
 6660SOL    HW120596   5.244   7.121   1.286 -1.0117 -1.5381 -0.1314
 6660SOL    HW220597   5.394   7.103   1.304 -0.7508  0.4422 -0.0662
 6661SOL     OW20598   3.060   4.088   2.608  0.1212  0.2622 -0.8755
 6661SOL    HW120599   3.109   4.011   2.639 -1.1243  0.3428  1.5644
 6661SOL    HW220600   3.095   4.161   2.660 -0.7109  0.7930 -1.0407
 6662SOL     OW20601   3.549   2.387   1.430 -0.0314 -0.2297  0.3086
 6662SOL    HW120602   3.631   2.342   1.409  1.5448  1.6161  2.0953
 6662SOL    HW220603   3.516   2.342   1.508  0.2737  0.1455  0.6626
 6663SOL     OW20604   4.232   1.681   6.856 -0.1591  0.2071 -0.1069
 6663SOL    HW120605   4.238   1.774   6.877 -2.2771  0.5366 -0.6918
 6663SOL    HW220606   4.141   1.658   6.873 -0.1436 -1.2969 -1.7310
 6664SOL     OW20607   7.109   2.641   7.047 -0.4585  0.6270  0.3426
 6664SOL    HW120608   7.116   2.617   6.955 -0.2691  1.3086  0.1768
 6664SOL    HW220609   7.049   2.715   7.049 -0.3764  0.6885  0.7585
 6665SOL     OW20610   0.633   3.198   1.939  0.1708  0.0004  0.1196
 6665SOL    HW120611   0.544   3.169   1.959 -0.2764  1.5542  0.5194
 6665SOL    HW220612   0.630   3.223   1.846  0.8686 -2.2377 -0.5677
 6666SOL     OW20613   2.228   1.916   2.825  0.2267  0.0060  0.7032
 6666SOL    HW120614   2.316   1.882   2.810  0.5272  1.0132  0.1563
 6666SOL    HW220615   2.182   1.844   2.869  0.3940 -1.7193 -1.7503
 6667SOL     OW20616   0.971   0.287   1.133 -0.1914  0.9099  0.2466
 6667SOL    HW120617   0.967   0.207   1.186 -0.4802  0.1561 -0.8609
 6667SOL    HW220618   1.063   0.293   1.107 -0.1869  0.8852  0.2565
 6668SOL     OW20619   4.339   5.543   4.776 -0.1981  0.3372 -0.0472
 6668SOL    HW120620   4.294   5.485   4.715 -0.5772  0.8167 -0.2267
 6668SOL    HW220621   4.423   5.500   4.793 -1.9113 -2.3487  2.8748
 6669SOL     OW20622   2.145   6.342   4.302 -0.1658  0.5210  0.5697
 6669SOL    HW120623   2.234   6.354   4.268 -0.2109  1.9037  0.8778
 6669SOL    HW220624   2.093   6.318   4.225  0.1094  1.6627  0.0038
 6670SOL     OW20625   5.110   1.984   3.903  0.0886  0.4820 -0.4694
 6670SOL    HW120626   5.205   1.976   3.904 -0.0354 -1.3067 -0.0098
 6670SOL    HW220627   5.087   2.005   3.994 -0.0887 -1.6997  0.0510
 6671SOL     OW20628   2.572   1.383   6.390  0.7117  0.1580  0.1560
 6671SOL    HW120629   2.587   1.462   6.338 -0.1309 -0.4299 -1.0073
 6671SOL    HW220630   2.479   1.386   6.413  0.6406 -0.5558 -0.0138
 6672SOL     OW20631   6.769   0.679   5.136  0.0569  0.2177  0.3896
 6672SOL    HW120632   6.730   0.755   5.179  0.1757 -0.9995  2.8248
 6672SOL    HW220633   6.864   0.696   5.138 -0.0073  1.1180 -1.4565
 6673SOL     OW20634   5.104   1.709   7.217  0.2819  0.4698  0.1948
 6673SOL    HW120635   5.029   1.734   7.163 -0.1846 -3.0405 -1.0114
 6673SOL    HW220636   5.174   1.690   7.155  0.4460 -1.3974  0.8698
 6674SOL     OW20637   3.076   0.761   6.950 -0.5143  0.3949  0.2005
 6674SOL    HW120638   3.109   0.846   6.980 -0.3649  0.7147 -0.8569
 6674SOL    HW220639   3.130   0.697   6.997 -1.5264  0.8277  2.0617
 6675SOL     OW20640   3.228   4.401   0.200  0.4649  0.4994  0.6301
 6675SOL    HW120641   3.292   4.351   0.251 -1.3819 -1.8507  0.8442
 6675SOL    HW220642   3.148   4.348   0.204 -1.1119  2.6033 -0.7748
 6676SOL     OW20643   3.467   5.957   5.685 -0.5023  0.0605  0.1080
 6676SOL    HW120644   3.481   5.972   5.592 -1.6036  0.3022 -0.0312
 6676SOL    HW220645   3.478   6.043   5.726 -0.1339 -0.0242  0.1907
 6677SOL     OW20646   3.496   6.066   3.793  0.4572  0.0658  0.4290
 6677SOL    HW120647   3.558   6.130   3.757 -0.6221  0.5108 -0.6827
 6677SOL    HW220648   3.512   5.986   3.744 -0.4854  0.4583 -0.5732
 6678SOL     OW20649   6.604   0.907   4.633  0.5183 -0.1316  0.3393
 6678SOL    HW120650   6.674   0.883   4.695  0.2796 -0.8350  0.3443
 6678SOL    HW220651   6.641   0.886   4.547  0.3428 -0.4463  0.3383
 6679SOL     OW20652   0.002   6.203   1.205 -0.1694 -0.1604 -0.4700
 6679SOL    HW120653   0.079   6.196   1.262 -0.3836 -0.0966 -0.1663
 6679SOL    HW220654  -0.054   6.130   1.233 -0.9496  0.7534  0.4485
 6680SOL     OW20655   2.912   3.829   6.834  0.5723 -0.2624 -0.3323
 6680SOL    HW120656   2.950   3.848   6.921  1.1062 -1.7177 -0.2066
 6680SOL    HW220657   2.979   3.859   6.772  0.8865 -0.6178 -0.1762
 6681SOL     OW20658   5.938   2.360   5.006 -0.1967 -0.2851  0.3390
 6681SOL    HW120659   5.847   2.388   5.019 -0.4981  0.1726 -2.1941
 6681SOL    HW220660   5.978   2.431   4.955  1.8380 -0.1359  2.0009
 6682SOL     OW20661   2.142   2.047   3.753  0.5858 -0.3822 -0.3107
 6682SOL    HW120662   2.206   2.004   3.810  0.3644 -0.6870 -0.2926
 6682SOL    HW220663   2.076   2.082   3.813  0.9227  0.2573 -0.3005
 6683SOL     OW20664   4.307   0.998   5.873  0.3535  0.5887  0.0013
 6683SOL    HW120665   4.252   1.033   5.944 -0.9277  0.0031 -0.6746
 6683SOL    HW220666   4.353   0.924   5.913  1.0006  1.3322  0.6839
 6684SOL     OW20667   4.336   4.170   0.225  0.0927 -0.2664  0.3268
 6684SOL    HW120668   4.243   4.177   0.248 -0.0954  1.7456 -0.7959
 6684SOL    HW220669   4.365   4.261   0.215  1.1575 -0.8189 -3.0882
 6685SOL     OW20670   6.715   4.703   3.152 -0.0644 -0.2578 -0.5604
 6685SOL    HW120671   6.743   4.781   3.105 -0.1243 -0.9202 -1.7246
 6685SOL    HW220672   6.627   4.724   3.184  1.1137  1.3159  1.9227
 6686SOL     OW20673   3.122   2.350   7.167 -0.4163 -0.1232  0.5671
 6686SOL    HW120674   3.059   2.326   7.235 -2.2427 -0.8189 -1.2667
 6686SOL    HW220675   3.200   2.378   7.215 -0.8614 -2.5409  2.9037
 6687SOL     OW20676   4.376   0.750   0.326  0.7667  0.1683  0.1400
 6687SOL    HW120677   4.436   0.728   0.397  0.6783  3.0761  1.2432
 6687SOL    HW220678   4.293   0.771   0.369 -0.5320 -1.8660 -1.2112
 6688SOL     OW20679   0.628   6.468   4.343  0.1577  0.5921 -0.6378
 6688SOL    HW120680   0.640   6.483   4.250 -2.5890  2.1026 -0.8330
 6688SOL    HW220681   0.578   6.386   4.348  0.0885  0.6425 -0.4921
 6689SOL     OW20682   6.201   0.377   1.571  0.3472 -0.3450  0.1413
 6689SOL    HW120683   6.245   0.458   1.594  1.0443 -0.0903 -1.9288
 6689SOL    HW220684   6.270   0.310   1.573  0.7551 -0.0803 -2.3480
 6690SOL     OW20685   0.328   4.126   1.657  0.0075  0.0038  0.1805
 6690SOL    HW120686   0.365   4.159   1.575  1.9297 -2.0992  0.0897
 6690SOL    HW220687   0.388   4.157   1.724  0.1909 -0.8350  0.4127
 6691SOL     OW20688   1.015   7.145   6.385 -0.3290  0.4005  0.0842
 6691SOL    HW120689   0.985   7.082   6.450 -0.1515  1.5296  1.3114
 6691SOL    HW220690   1.091   7.104   6.343  2.0432  1.1187  3.3186
 6692SOL     OW20691   0.215   5.166   6.172 -0.1605 -0.3528 -0.0572
 6692SOL    HW120692   0.307   5.142   6.162 -0.1686 -0.8014  0.8579
 6692SOL    HW220693   0.206   5.186   6.265 -1.0468 -0.5358 -0.0991
 6693SOL     OW20694   3.506   4.449   0.520  0.3125 -0.2730 -0.4315
 6693SOL    HW120695   3.471   4.389   0.454 -2.8720 -0.0655  0.8862
 6693SOL    HW220696   3.532   4.392   0.593  0.2391 -0.2502 -0.3874
 6694SOL     OW20697   6.027   0.033   4.614 -0.2568 -0.5214  0.0563
 6694SOL    HW120698   5.965   0.084   4.666 -1.4194  1.0146 -2.6121
 6694SOL    HW220699   6.093   0.004   4.677 -1.5180  1.2060  2.3460
 6695SOL     OW20700   1.842   4.224   1.318 -0.0147  0.6064 -0.1201
 6695SOL    HW120701   1.791   4.250   1.394 -0.4183 -0.2102 -0.1084
 6695SOL    HW220702   1.855   4.306   1.269 -1.5421  0.7959 -0.2501
 6696SOL     OW20703   5.945   3.422   6.275 -0.0951  0.2149  0.2553
 6696SOL    HW120704   5.928   3.477   6.352  0.3024  0.3623  0.2400
 6696SOL    HW220705   5.925   3.333   6.304  3.3640 -0.2389  1.6409
 6697SOL     OW20706   6.618   1.717   1.713  0.7678  0.2503 -0.0700
 6697SOL    HW120707   6.613   1.683   1.802  4.4463 -0.2640  0.0918
 6697SOL    HW220708   6.616   1.639   1.657  0.6121  0.4056 -0.2837
 6698SOL     OW20709   4.987   2.120   0.960  0.0150  0.4407 -0.6136
 6698SOL    HW120710   5.020   2.104   1.048  0.6231 -0.1977 -0.9463
 6698SOL    HW220711   4.957   2.211   0.961  2.3644  1.2625 -0.4671
 6699SOL     OW20712   3.146   3.049   3.764 -0.3967 -0.3405 -0.5569
 6699SOL    HW120713   3.076   3.104   3.728  1.1523  2.3463  0.2538
 6699SOL    HW220714   3.100   2.985   3.818 -2.3410 -0.0513 -1.7613
 6700SOL     OW20715   0.158   3.066   4.250  0.1468 -0.4620  0.7359
 6700SOL    HW120716   0.241   3.077   4.296  0.4614  0.4528 -0.0261
 6700SOL    HW220717   0.103   3.137   4.282  1.0545  1.5063 -1.7146
 6701SOL     OW20718   5.393   3.142   3.596 -0.0560 -0.3406  0.1836
 6701SOL    HW120719   5.460   3.175   3.656  0.0514  1.2111 -0.7263
 6701SOL    HW220720   5.320   3.203   3.606 -0.7214 -1.0844 -0.0113
 6702SOL     OW20721   4.096   6.762   6.993  0.0613 -0.5355 -0.0769
 6702SOL    HW120722   4.078   6.695   7.058 -0.1674 -1.0816 -0.6856
 6702SOL    HW220723   4.081   6.719   6.909  2.6698 -0.5827 -0.6092
 6703SOL     OW20724   1.471   1.846   0.170  0.2778  0.2133  0.0938
 6703SOL    HW120725   1.517   1.786   0.229  1.7262  4.4741  3.8992
 6703SOL    HW220726   1.539   1.878   0.111  0.1725  0.1534 -0.0602
 6704SOL     OW20727   1.242   1.014   6.084  0.2671 -0.0694  0.6113
 6704SOL    HW120728   1.317   1.017   6.143  0.1810  2.1650  0.6965
 6704SOL    HW220729   1.168   0.992   6.141  0.4476  0.3863  1.0286
 6705SOL     OW20730   3.349   5.553   1.615  0.4873 -0.3442 -0.1888
 6705SOL    HW120731   3.387   5.601   1.689  1.8720 -0.5040 -0.7577
 6705SOL    HW220732   3.281   5.611   1.581  0.2747  0.0132  0.8048
 6706SOL     OW20733   2.088   4.707   2.904  0.3165 -0.1590  0.6610
 6706SOL    HW120734   2.125   4.762   2.836  0.4415  0.6393  1.3632
 6706SOL    HW220735   2.037   4.641   2.857  0.3208  0.4394 -0.1904
 6707SOL     OW20736   0.476   3.788   1.564  0.7932  0.6057  0.7495
 6707SOL    HW120737   0.536   3.718   1.590  0.6998  0.4319  0.5051
 6707SOL    HW220738   0.532   3.863   1.546  0.8852  0.6319  1.1261
 6708SOL     OW20739   1.250   3.633   6.574  0.0767  0.3634  0.2543
 6708SOL    HW120740   1.229   3.702   6.511  0.6375 -1.6010 -2.2851
 6708SOL    HW220741   1.191   3.561   6.551  2.4452 -1.5683 -0.2698
 6709SOL     OW20742   6.635   2.420   4.508 -0.1862  0.6256  0.3996
 6709SOL    HW120743   6.624   2.340   4.559  0.9200 -0.4638 -0.9628
 6709SOL    HW220744   6.730   2.436   4.509 -0.1181  0.5424 -1.2529
 6710SOL     OW20745   6.626   1.910   5.877 -0.4182  0.2598 -0.3139
 6710SOL    HW120746   6.698   1.949   5.829  0.9009 -1.6214  0.0625
 6710SOL    HW220747   6.626   1.818   5.852 -1.4726 -0.1751  1.1313
 6711SOL     OW20748   1.901   0.780   4.430 -0.1398 -0.6449  0.2434
 6711SOL    HW120749   1.955   0.842   4.480 -0.7784  1.0440 -1.0446
 6711SOL    HW220750   1.839   0.745   4.495 -0.0715  0.4424  0.9287
 6712SOL     OW20751   6.685   1.394   6.891 -0.0574  0.0853 -0.1172
 6712SOL    HW120752   6.666   1.301   6.907  1.1152 -0.3712 -1.2046
 6712SOL    HW220753   6.648   1.411   6.805 -1.1699  0.9393  0.4971
 6713SOL     OW20754   5.723   0.771   2.873 -0.2366  0.0817 -0.5487
 6713SOL    HW120755   5.764   0.852   2.842 -1.0275  0.2274 -1.2460
 6713SOL    HW220756   5.636   0.773   2.834 -0.1242 -1.2985 -0.9041
 6714SOL     OW20757   5.635   2.366   7.146  0.0813  0.7353 -0.2232
 6714SOL    HW120758   5.673   2.381   7.059  0.7953  1.6242  0.2320
 6714SOL    HW220759   5.706   2.385   7.207 -0.5206  0.4547  0.5812
 6715SOL     OW20760   5.131   1.326   6.280  0.1181 -0.2903  0.1299
 6715SOL    HW120761   5.076   1.301   6.354 -2.0583 -0.3244 -1.3870
 6715SOL    HW220762   5.131   1.422   6.281 -0.1562 -0.2881  0.0169
 6716SOL     OW20763   1.901   1.660   3.068 -0.2296 -0.8972  0.6824
 6716SOL    HW120764   1.928   1.716   3.141 -1.5260  0.6808  0.0214
 6716SOL    HW220765   1.818   1.623   3.097 -0.4589 -0.7228  0.2535
 6717SOL     OW20766   6.934   7.146   0.192  0.1507  0.2802  0.1019
 6717SOL    HW120767   6.914   7.225   0.242  0.5215  0.6576 -0.3288
 6717SOL    HW220768   6.902   7.165   0.104 -0.4328 -0.3509  0.1686
 6718SOL     OW20769   2.983   1.902   1.657 -0.7978 -0.0143 -0.3885
 6718SOL    HW120770   2.984   1.968   1.726 -1.1790 -1.4071  1.0139
 6718SOL    HW220771   2.891   1.892   1.634 -0.8463 -0.6851  0.0611
 6719SOL     OW20772   5.085   1.031   6.674  0.1586 -0.0372 -0.5712
 6719SOL    HW120773   5.141   1.064   6.745 -0.4637 -0.2255  0.0189
 6719SOL    HW220774   5.013   0.988   6.719 -0.6046  0.4388 -1.3188
 6720SOL     OW20775   4.098   1.979   3.399  0.1197  0.0638  0.6126
 6720SOL    HW120776   4.157   2.047   3.366 -0.5856  0.2117 -0.3800
 6720SOL    HW220777   4.013   2.022   3.405  0.0601 -0.1906  1.8935
 6721SOL     OW20778   2.081   3.665   1.499  0.1564  0.6253 -0.4890
 6721SOL    HW120779   2.163   3.714   1.506 -0.5928  1.7730  0.4857
 6721SOL    HW220780   2.102   3.579   1.536  0.2809  1.7414  2.2684
 6722SOL     OW20781   0.791   5.957   3.516 -0.2588  0.2322  0.1343
 6722SOL    HW120782   0.886   5.960   3.508 -0.1892 -1.5592 -0.1016
 6722SOL    HW220783   0.775   5.880   3.571 -1.6329 -0.6512 -1.4230
 6723SOL     OW20784   5.476   4.544   0.301  0.0323 -0.3819  0.5676
 6723SOL    HW120785   5.475   4.533   0.397 -1.8661 -0.1113  0.6267
 6723SOL    HW220786   5.499   4.636   0.288 -2.9024  0.5097  0.9754
 6724SOL     OW20787   2.172   5.746   3.324 -0.0697  0.4661 -0.0398
 6724SOL    HW120788   2.242   5.681   3.318 -0.2307  0.1086  1.5966
 6724SOL    HW220789   2.092   5.695   3.329 -0.1914  0.7468  1.3797
 6725SOL     OW20790   6.588   4.242   3.445 -0.0926 -0.2601  0.3856
 6725SOL    HW120791   6.633   4.319   3.410 -3.4730  2.5408  1.5236
 6725SOL    HW220792   6.592   4.254   3.540 -2.2357 -0.3889  0.5417
 6726SOL     OW20793   6.271   5.453   0.795 -0.1330 -0.0776 -0.1185
 6726SOL    HW120794   6.300   5.542   0.775 -0.1046 -0.2013 -0.6400
 6726SOL    HW220795   6.302   5.437   0.884 -0.0056  0.3767 -0.0794
 6727SOL     OW20796   3.478   0.873   3.061 -0.2486 -0.0134  0.5564
 6727SOL    HW120797   3.480   0.781   3.084 -1.9101  0.3729  2.5265
 6727SOL    HW220798   3.441   0.917   3.138 -0.2870  2.2008 -0.6244
 6728SOL     OW20799   4.952   2.056   0.527  0.0387 -0.0340  0.0165
 6728SOL    HW120800   4.915   2.014   0.450  0.6354 -0.5225 -0.0089
 6728SOL    HW220801   4.882   2.114   0.559  0.0823  0.8236 -1.3763
 6729SOL     OW20802   5.256   2.355   3.398  0.0849 -0.2125 -0.1371
 6729SOL    HW120803   5.264   2.421   3.328  0.4808  0.1372  0.2289
 6729SOL    HW220804   5.180   2.384   3.449  1.0155  0.7181  0.7868
 6730SOL     OW20805   7.156   1.175   5.662  0.0826  0.2105  0.2642
 6730SOL    HW120806   7.137   1.090   5.621 -1.1529  0.3890  0.4180
 6730SOL    HW220807   7.078   1.194   5.714  1.0491  0.6327  1.6298
 6731SOL     OW20808   2.008   6.791   5.074  0.1056 -0.0607 -0.0661
 6731SOL    HW120809   2.082   6.851   5.064 -0.3476  0.7114  1.1092
 6731SOL    HW220810   1.967   6.789   4.987  1.7943 -0.9253 -0.8939
 6732SOL     OW20811   5.525   4.459   2.030 -0.2032 -0.2712 -0.6728
 6732SOL    HW120812   5.549   4.529   2.091  1.0692 -0.0380 -1.4194
 6732SOL    HW220813   5.608   4.428   1.994 -0.9757  1.0765 -3.9637
 6733SOL     OW20814   2.928   1.535   0.781  0.1446 -0.1931 -0.7811
 6733SOL    HW120815   2.863   1.531   0.710 -0.2018  1.6418 -0.6326
 6733SOL    HW220816   2.949   1.628   0.788  0.8456 -0.4422  0.9378
 6734SOL     OW20817   0.078   6.346   0.232 -0.1769 -0.3399 -0.1164
 6734SOL    HW120818   0.015   6.311   0.170 -1.5005  0.4615  0.6996
 6734SOL    HW220819   0.041   6.430   0.259  0.7793 -0.2624  1.0929
 6735SOL     OW20820   4.309   3.345   0.804 -0.1142 -0.1085 -0.2208
 6735SOL    HW120821   4.377   3.412   0.803 -0.3904  0.1971  0.5977
 6735SOL    HW220822   4.354   3.264   0.827 -0.0135  0.0915  0.3064
 6736SOL     OW20823   1.037   5.559   3.146  0.1212  0.1739  0.1421
 6736SOL    HW120824   0.957   5.516   3.115  1.0964 -1.8201  0.2421
 6736SOL    HW220825   1.108   5.515   3.099  1.2229  1.5267  0.4682
 6737SOL     OW20826   0.492   6.104   4.620 -0.1686 -0.0611  0.0070
 6737SOL    HW120827   0.587   6.114   4.620 -0.1716  0.5859  2.1025
 6737SOL    HW220828   0.477   6.012   4.600  0.7896  0.1271 -1.8279
 6738SOL     OW20829   3.828   4.460   5.691  0.2743  0.5969  0.8383
 6738SOL    HW120830   3.829   4.555   5.675 -1.9624  0.7790  1.4982
 6738SOL    HW220831   3.831   4.421   5.603  0.1881  1.2980  0.5158
 6739SOL     OW20832   3.091   2.976   1.491  0.7598 -0.5397  0.2044
 6739SOL    HW120833   3.006   2.984   1.447  0.3491  0.8892  1.1945
 6739SOL    HW220834   3.131   2.898   1.452 -0.1349 -0.0886 -1.7568
 6740SOL     OW20835   4.846   0.324   3.901 -0.0746 -0.2620  0.4076
 6740SOL    HW120836   4.880   0.356   3.818 -1.4812 -3.5480 -1.6314
 6740SOL    HW220837   4.923   0.312   3.956  1.2342 -0.7243 -1.4533
 6741SOL     OW20838   4.391   4.858   4.320  0.3175 -0.2724 -0.0135
 6741SOL    HW120839   4.321   4.821   4.374 -0.8236  0.4135 -0.9728
 6741SOL    HW220840   4.397   4.949   4.346  0.9622 -0.3493  0.1405
 6742SOL     OW20841   6.663   5.065   4.877 -0.2414  0.0034 -0.3253
 6742SOL    HW120842   6.708   5.012   4.810  1.2227  0.7033  0.0689
 6742SOL    HW220843   6.581   5.019   4.892  0.7991 -1.9560 -0.2900
 6743SOL     OW20844   0.734   4.394   2.573  0.4405 -0.0377 -0.7105
 6743SOL    HW120845   0.745   4.299   2.566 -0.6407 -0.1742 -0.6487
 6743SOL    HW220846   0.812   4.423   2.620  0.3869 -0.9923 -0.0017
 6744SOL     OW20847   5.906   1.468   1.974 -0.1785  0.2139 -0.5630
 6744SOL    HW120848   5.870   1.384   2.004 -0.4657  0.6488  0.3497
 6744SOL    HW220849   5.972   1.443   1.909  0.2999 -0.7710  0.2581
 6745SOL     OW20850   3.431   6.174   7.129 -0.7543  0.7471  0.0294
 6745SOL    HW120851   3.416   6.211   7.042  1.2591 -0.5737 -0.9528
 6745SOL    HW220852   3.387   6.235   7.188 -3.6115  0.8314 -1.9507
 6746SOL     OW20853   4.149   2.168   6.278  0.2559  0.0593 -0.4379
 6746SOL    HW120854   4.192   2.253   6.283  1.0647 -0.3530 -0.2534
 6746SOL    HW220855   4.173   2.124   6.360  1.9007 -1.2883 -1.5941
 6747SOL     OW20856   4.053   7.210   5.979 -0.8749  0.1033  0.1641
 6747SOL    HW120857   4.126   7.271   5.974 -0.0840 -0.8852 -0.8731
 6747SOL    HW220858   4.074   7.142   5.915 -2.7045 -0.2048 -0.1647
 6748SOL     OW20859   6.102   5.134   3.065 -0.3157 -0.2549  0.3276
 6748SOL    HW120860   6.106   5.226   3.039  1.0522  0.0243  1.3953
 6748SOL    HW220861   6.028   5.098   3.016 -0.6319  1.3123 -0.4020
 6749SOL     OW20862   2.782   6.886   6.135 -0.0701  0.1743 -0.1090
 6749SOL    HW120863   2.732   6.845   6.206  0.6535 -1.0604 -0.2919
 6749SOL    HW220864   2.785   6.979   6.158 -0.3115 -0.1279  1.1882
 6750SOL     OW20865   6.536   6.814   1.880  0.2676  0.0801  0.1710
 6750SOL    HW120866   6.448   6.818   1.842 -0.2086 -1.6294  0.9948
 6750SOL    HW220867   6.594   6.838   1.808 -0.8856  1.8973 -0.2164
 6751SOL     OW20868   3.267   5.694   0.618  0.3390  0.1139  0.1006
 6751SOL    HW120869   3.199   5.628   0.607 -0.1353  0.7932 -1.4310
 6751SOL    HW220870   3.222   5.768   0.659  0.2913  0.3128 -0.2971
 6752SOL     OW20871   5.296   1.001   0.504  0.1125 -0.3332 -0.3644
 6752SOL    HW120872   5.246   0.923   0.528 -1.3248 -0.1882 -2.5624
 6752SOL    HW220873   5.383   0.967   0.480 -0.8290 -1.5150 -2.4187
 6753SOL     OW20874   6.927   3.953   1.235 -0.0778 -0.8031 -0.3001
 6753SOL    HW120875   6.997   4.018   1.245 -0.6069 -0.2649 -0.0043
 6753SOL    HW220876   6.944   3.888   1.303  0.6806 -1.1885 -0.8460
 6754SOL     OW20877   2.943   6.022   3.652  0.1402  0.1458 -0.2269
 6754SOL    HW120878   2.895   6.104   3.666 -2.9282 -1.7024  1.0627
 6754SOL    HW220879   2.951   6.015   3.557 -1.2803  1.0612 -0.4478
 6755SOL     OW20880   7.070   6.894   3.693  0.1421  0.2595 -1.0091
 6755SOL    HW120881   7.131   6.965   3.669  0.5483  0.0078 -0.7258
 6755SOL    HW220882   7.000   6.938   3.741  1.1864  0.2730  0.5683
 6756SOL     OW20883   5.432   5.624   3.535  1.0476 -0.9411 -0.3968
 6756SOL    HW120884   5.471   5.539   3.555  0.6961 -0.8183  0.8873
 6756SOL    HW220885   5.420   5.666   3.620 -0.7441 -0.4878 -0.8181
 6757SOL     OW20886   0.136   6.596   1.376  0.1065  0.6680  0.1390
 6757SOL    HW120887   0.134   6.684   1.412 -0.7849  0.7603 -0.1290
 6757SOL    HW220888   0.230   6.575   1.370  0.4341  2.3823 -1.7287
 6758SOL     OW20889   5.713   1.919   5.052 -0.0111 -0.3112  0.0378
 6758SOL    HW120890   5.701   1.943   4.960  0.4047 -0.6726 -0.1131
 6758SOL    HW220891   5.626   1.928   5.091 -0.6259 -2.0390 -0.8266
 6759SOL     OW20892   5.383   1.382   3.830  0.2482 -0.5898 -0.1742
 6759SOL    HW120893   5.367   1.390   3.736  0.6706 -0.1787 -0.2146
 6759SOL    HW220894   5.433   1.301   3.839  0.5499 -0.4255 -0.3501
 6760SOL     OW20895   6.840   3.849   2.710  0.0919  0.0427 -0.3929
 6760SOL    HW120896   6.818   3.790   2.638  0.6532 -1.2757  0.4743
 6760SOL    HW220897   6.906   3.908   2.672  1.1215 -1.2578 -0.7316
 6761SOL     OW20898   0.906   2.916   4.851  0.8364  0.1555  0.3690
 6761SOL    HW120899   0.937   2.928   4.761 -1.0786  1.0183 -0.2164
 6761SOL    HW220900   0.889   3.005   4.883  0.2517 -0.2132  1.1209
 6762SOL     OW20901   1.964   4.122   1.927  0.4937 -0.0904  0.1881
 6762SOL    HW120902   1.886   4.133   1.980  0.1851  0.0231 -0.2857
 6762SOL    HW220903   1.975   4.027   1.920  0.6084 -0.1059  0.5537
 6763SOL     OW20904   4.342   6.400   2.941  0.6682 -0.0206  0.3037
 6763SOL    HW120905   4.403   6.331   2.965  2.6683  1.6382  0.2916
 6763SOL    HW220906   4.352   6.409   2.846  0.5529  0.3671  0.3241
 6764SOL     OW20907   6.412   6.670   7.219 -0.5643  0.0271 -0.1363
 6764SOL    HW120908   6.423   6.765   7.219 -0.2154  0.0188 -1.7176
 6764SOL    HW220909   6.499   6.635   7.235 -0.9473 -0.0679  2.0563
 6765SOL     OW20910   6.696   5.149   6.651 -0.4059 -0.0281  0.0227
 6765SOL    HW120911   6.644   5.102   6.717 -0.3217  1.2579  1.0364
 6765SOL    HW220912   6.677   5.241   6.667  0.1333  0.3431 -1.3467
 6766SOL     OW20913   0.583   4.913   5.637 -0.2544  0.2791  0.8389
 6766SOL    HW120914   0.587   4.857   5.714  0.6609 -0.4425  0.2854
 6766SOL    HW220915   0.667   4.959   5.635 -0.2822  0.3181  0.2991
 6767SOL     OW20916   0.902   2.734   2.831 -0.2575  0.2541 -0.2937
 6767SOL    HW120917   0.874   2.816   2.872 -0.4464  0.0150  0.0701
 6767SOL    HW220918   0.841   2.668   2.865 -2.6128  0.5448 -3.5498
 6768SOL     OW20919   4.348   4.230   6.288  0.3029 -0.1734 -0.1135
 6768SOL    HW120920   4.298   4.176   6.226 -0.1030 -1.3338  1.1761
 6768SOL    HW220921   4.301   4.313   6.291 -1.7840 -1.3460  1.2993
 6769SOL     OW20922   6.633   2.683   5.116 -0.1066  0.4032  0.4353
 6769SOL    HW120923   6.688   2.662   5.040  0.1616  0.6647  0.5582
 6769SOL    HW220924   6.694   2.716   5.182 -0.5887  2.3168 -0.0202
 6770SOL     OW20925   5.052   1.286   6.009 -0.2134 -0.1237  0.7121
 6770SOL    HW120926   4.993   1.361   6.012 -0.2268 -0.1109  0.0912
 6770SOL    HW220927   5.091   1.283   6.097 -1.0218 -0.0444  1.0828
 6771SOL     OW20928   1.616   2.340   1.403 -0.5145 -0.0336  0.8021
 6771SOL    HW120929   1.700   2.381   1.383  0.8388 -2.2749  1.6166
 6771SOL    HW220930   1.575   2.399   1.467  0.6623  0.8208  0.7947
 6772SOL     OW20931   4.533   6.066   0.680 -0.2322  0.4044 -0.0122
 6772SOL    HW120932   4.584   5.987   0.660  0.5090  1.0856 -0.9414
 6772SOL    HW220933   4.488   6.087   0.598  3.4833  3.7101 -1.5726
 6773SOL     OW20934   0.305   4.634   1.782  0.2997  0.2696 -0.0877
 6773SOL    HW120935   0.345   4.692   1.717  0.8973  1.5130  1.3235
 6773SOL    HW220936   0.238   4.687   1.825 -1.9789 -1.3494 -1.4155
 6774SOL     OW20937   1.318   6.491   2.870 -0.6648 -0.3501  0.5422
 6774SOL    HW120938   1.411   6.485   2.894 -1.1796  0.9798  3.3326
 6774SOL    HW220939   1.277   6.416   2.913 -0.9744 -0.6922 -0.3257
 6775SOL     OW20940   3.620   5.014   2.886 -0.2226  0.4851  0.1384
 6775SOL    HW120941   3.651   5.062   2.810  0.0513  1.1100  0.6365
 6775SOL    HW220942   3.526   5.004   2.871 -0.0523 -0.0452 -0.6258
 6776SOL     OW20943   4.850   5.508   2.323 -0.0963 -0.0485  0.6816
 6776SOL    HW120944   4.828   5.415   2.314 -1.4450  0.4359 -4.4620
 6776SOL    HW220945   4.945   5.511   2.313 -0.2035 -0.8708 -0.9750
 6777SOL     OW20946   1.966   1.692   1.520 -0.6364  0.1568  0.6539
 6777SOL    HW120947   1.939   1.750   1.591 -0.2419 -0.8048  1.6262
 6777SOL    HW220948   1.889   1.686   1.464 -0.9987  0.8505  1.0624
 6778SOL     OW20949   2.872   3.047   2.421 -0.4454 -0.0900 -0.5993
 6778SOL    HW120950   2.816   2.970   2.430  0.0403 -0.3164  0.6076
 6778SOL    HW220951   2.941   3.020   2.361 -0.5971 -0.4022 -0.6367
 6779SOL     OW20952   6.050   6.418   6.500 -0.4637  0.1537  0.0829
 6779SOL    HW120953   6.064   6.512   6.513 -1.2606  0.3483 -0.3789
 6779SOL    HW220954   6.136   6.379   6.512  0.0212  1.0277 -0.4742
 6780SOL     OW20955   2.283   3.578   2.790  0.3905  0.2749  0.2295
 6780SOL    HW120956   2.234   3.543   2.864  0.1534 -3.3304 -1.4150
 6780SOL    HW220957   2.243   3.538   2.713  2.8927  0.9731 -1.5626
 6781SOL     OW20958   6.211   6.839   0.513  0.0343 -0.0115 -0.4440
 6781SOL    HW120959   6.194   6.819   0.422  0.2073 -0.3485 -0.4050
 6781SOL    HW220960   6.284   6.902   0.511  1.5704 -1.6994 -0.4822
 6782SOL     OW20961   3.811   4.951   0.792  0.3648 -0.4093  0.2158
 6782SOL    HW120962   3.824   5.028   0.736 -0.5894  0.6156  1.3775
 6782SOL    HW220963   3.768   4.887   0.735 -0.0721  0.4079 -0.3872
 6783SOL     OW20964   0.668   5.795   0.419 -0.3196  0.0706 -0.2877
 6783SOL    HW120965   0.695   5.883   0.444  0.0994 -0.9118  3.3577
 6783SOL    HW220966   0.744   5.759   0.372  0.1866  1.0684 -0.2568
 6784SOL     OW20967   0.809   7.253   4.695  0.1594  0.0249 -0.4568
 6784SOL    HW120968   0.818   7.318   4.765 -1.2354  0.7792 -0.9336
 6784SOL    HW220969   0.872   7.280   4.629 -0.2090  0.7411 -0.5254
 6785SOL     OW20970   2.324   2.851   0.496  0.1694  0.0367 -0.5558
 6785SOL    HW120971   2.351   2.915   0.430  0.2940  1.0153  0.4183
 6785SOL    HW220972   2.361   2.768   0.466  1.9298  0.8341 -0.6945
 6786SOL     OW20973   6.450   4.550   3.602 -0.1173  0.1223  0.0636
 6786SOL    HW120974   6.542   4.532   3.580  0.0691  0.5839  0.4390
 6786SOL    HW220975   6.444   4.529   3.695  0.5741  3.5760  1.0249
 6787SOL     OW20976   2.686   2.309   6.334  0.5925 -0.2457  0.2659
 6787SOL    HW120977   2.606   2.261   6.312  0.8267 -0.4309 -0.2083
 6787SOL    HW220978   2.683   2.319   6.429  1.0721 -2.2073  0.5314
 6788SOL     OW20979   6.464   0.947   3.257  0.9712 -0.0417 -0.6435
 6788SOL    HW120980   6.454   1.035   3.294  1.3343 -0.7569  1.2677
 6788SOL    HW220981   6.382   0.932   3.210  0.0653  0.5753  0.6734
 6789SOL     OW20982   4.448   3.545   1.613  0.1557 -0.0893 -0.0091
 6789SOL    HW120983   4.364   3.532   1.657 -0.6565 -1.9821 -1.9507
 6789SOL    HW220984   4.425   3.569   1.523  1.6619 -1.1161 -0.7148
 6790SOL     OW20985   6.129   3.775   6.310  0.3452 -0.0560 -0.1062
 6790SOL    HW120986   6.087   3.771   6.224  0.3477 -3.2980 -0.0789
 6790SOL    HW220987   6.056   3.782   6.371  0.2372  0.5334 -0.3000
 6791SOL     OW20988   6.218   1.472   1.325 -0.4437  0.4869  0.0573
 6791SOL    HW120989   6.126   1.486   1.306 -0.0436  4.9666  0.4100
 6791SOL    HW220990   6.264   1.540   1.276  2.5801 -0.8577  0.7882
 6792SOL     OW20991   5.501   0.896   6.233 -0.4514  0.2090  0.0976
 6792SOL    HW120992   5.446   0.894   6.155 -1.0640 -0.3804  0.5343
 6792SOL    HW220993   5.487   0.811   6.274  0.7037  0.0935  0.2763
 6793SOL     OW20994   1.241   6.070   5.370 -0.1852  0.0494 -0.1423
 6793SOL    HW120995   1.149   6.073   5.398  0.1148  1.2107  0.7918
 6793SOL    HW220996   1.287   6.030   5.443  0.2054  0.5089 -0.1341
 6794SOL     OW20997   4.687   1.614   2.027  0.7751  0.2624 -0.4728
 6794SOL    HW120998   4.768   1.568   2.048  0.2038 -0.4046  0.3106
 6794SOL    HW220999   4.665   1.663   2.106  1.0347  1.4014 -1.0837
 6795SOL     OW21000   6.691   5.693   5.842 -0.7405  0.7243  0.0983
 6795SOL    HW121001   6.741   5.768   5.875  0.3809 -0.0643  0.2327
 6795SOL    HW221002   6.600   5.720   5.851 -0.3956  1.5911  1.3390
 6796SOL     OW21003   5.686   1.078   6.844  0.2681  0.2171 -0.2686
 6796SOL    HW121004   5.670   1.110   6.933  1.2862  1.2088 -0.4176
 6796SOL    HW221005   5.600   1.051   6.812 -0.7632  3.1845 -0.2706
 6797SOL     OW21006   4.421   0.359   3.430  0.1293  0.2698 -0.5965
 6797SOL    HW121007   4.474   0.406   3.366  1.8008 -0.4372  0.2030
 6797SOL    HW221008   4.425   0.413   3.509 -0.3140  0.1899 -0.5190
 6798SOL     OW21009   2.737   6.906   4.714 -0.6737 -0.4643  0.2840
 6798SOL    HW121010   2.711   6.938   4.628  2.2972  1.0003 -0.2159
 6798SOL    HW221011   2.707   6.974   4.775  0.0779  0.1397 -0.0121
 6799SOL     OW21012   6.093   3.830   5.093 -0.0256  0.0351 -0.3256
 6799SOL    HW121013   6.011   3.874   5.071 -2.8307 -3.5967  1.7585
 6799SOL    HW221014   6.109   3.852   5.185  1.3021  0.5461 -0.6545
 6800SOL     OW21015   4.286   7.098   5.772 -0.2988  0.3089 -0.1521
 6800SOL    HW121016   4.340   7.045   5.713 -2.9386 -2.2046 -0.5464
 6800SOL    HW221017   4.260   7.173   5.719  0.2415 -0.0930 -1.0267
 6801SOL     OW21018   4.736   4.245   6.302  0.7238 -0.1023 -0.2827
 6801SOL    HW121019   4.810   4.213   6.355  0.7826  0.6843  0.1297
 6801SOL    HW221020   4.664   4.186   6.324  0.9671 -0.2729  0.0717
 6802SOL     OW21021   1.580   4.298   5.221 -0.3080  0.0756  0.3333
 6802SOL    HW121022   1.596   4.387   5.188 -2.4050  0.6449  0.7019
 6802SOL    HW221023   1.584   4.307   5.316  0.2658 -0.4171  0.3607
 6803SOL     OW21024   2.569   0.743   6.731  0.0717  0.2270  0.0190
 6803SOL    HW121025   2.659   0.722   6.756  0.0160  0.4420  0.4192
 6803SOL    HW221026   2.570   0.744   6.635  0.3795 -0.2527  0.0135
 6804SOL     OW21027   2.477   4.276   7.126  0.4105  0.1753 -0.2005
 6804SOL    HW121028   2.417   4.211   7.090  1.4616 -0.6559 -0.5280
 6804SOL    HW221029   2.451   4.285   7.218  0.3564 -0.8499 -0.1027
 6805SOL     OW21030   7.033   0.637   0.748  0.3934  0.1554 -0.1129
 6805SOL    HW121031   7.001   0.575   0.814 -1.8352  1.3871  0.0390
 6805SOL    HW221032   7.055   0.716   0.798 -0.4925  0.8060 -0.7344
 6806SOL     OW21033   7.040   0.982   2.908 -0.3150 -0.1045  0.4725
 6806SOL    HW121034   6.953   0.945   2.894 -0.0804 -0.8750  0.9548
 6806SOL    HW221035   7.076   0.931   2.981  0.5686  0.1423  0.2244
 6807SOL     OW21036   3.956   2.523   2.449  0.1963 -0.0546  0.1670
 6807SOL    HW121037   3.947   2.548   2.541 -0.5384 -0.1411  0.1286
 6807SOL    HW221038   4.038   2.475   2.444  0.7983  0.9110  0.5600
 6808SOL     OW21039   3.575   7.101   4.231 -0.6258 -0.1557 -0.1777
 6808SOL    HW121040   3.504   7.085   4.169 -0.8709  1.6254 -0.3921
 6808SOL    HW221041   3.562   7.036   4.300 -2.2789 -0.0603 -0.3793
 6809SOL     OW21042   4.093   3.056   1.930  0.0418  0.5093  0.3220
 6809SOL    HW121043   4.019   3.002   1.958  0.0255  0.3801  0.0336
 6809SOL    HW221044   4.087   3.135   1.985  0.2751  0.0670  0.9991
 6810SOL     OW21045   0.452   7.126   3.252 -0.3234  0.2642  0.2333
 6810SOL    HW121046   0.547   7.131   3.248 -0.3881  2.3910  0.5831
 6810SOL    HW221047   0.426   7.090   3.168  0.7743 -0.2855  0.1196
 6811SOL     OW21048   3.781   5.716   6.008  0.0419  0.6301  0.6307
 6811SOL    HW121049   3.703   5.695   5.958 -0.5090 -1.2979  2.1739
 6811SOL    HW221050   3.847   5.653   5.977  0.4137  0.9993  0.6612
 6812SOL     OW21051   4.494   2.944   2.122  0.1876 -0.0396  0.0811
 6812SOL    HW121052   4.558   2.918   2.188  1.0023  2.2018  0.2381
 6812SOL    HW221053   4.440   3.010   2.165 -1.1692 -0.6760 -0.5948
 6813SOL     OW21054   1.424   3.788   2.063 -0.4390  0.4055 -0.4174
 6813SOL    HW121055   1.509   3.747   2.081  0.3981  2.2177 -0.0697
 6813SOL    HW221056   1.378   3.723   2.009  1.8497  0.1019 -2.1788
 6814SOL     OW21057   3.362   3.992   3.244  0.0916  0.3037 -1.0387
 6814SOL    HW121058   3.294   3.927   3.233 -0.3343  0.6122 -0.3097
 6814SOL    HW221059   3.333   4.046   3.318  0.7902  0.8589 -1.1488
 6815SOL     OW21060   1.887   5.736   6.393 -0.3178  0.1800  0.2238
 6815SOL    HW121061   1.951   5.686   6.444 -0.4060  0.0211  0.1774
 6815SOL    HW221062   1.922   5.825   6.393 -0.6028  0.3041  1.0410
 6816SOL     OW21063   1.941   5.610   4.108  0.1353  0.4122  0.3862
 6816SOL    HW121064   1.965   5.690   4.155  0.4009 -0.0400  1.0445
 6816SOL    HW221065   1.970   5.540   4.166 -0.1352 -0.1595 -0.1662
 6817SOL     OW21066   1.814   4.264   6.012  0.5634 -0.0590 -0.4302
 6817SOL    HW121067   1.903   4.293   6.029  1.2052 -2.1177  0.0037
 6817SOL    HW221068   1.816   4.170   6.027 -1.8316 -0.0878  0.1433
 6818SOL     OW21069   4.406   4.218   3.797  0.2993 -0.0318  0.2761
 6818SOL    HW121070   4.372   4.173   3.719  1.5177 -0.8499  0.1963
 6818SOL    HW221071   4.328   4.232   3.851 -0.3052 -1.1531 -0.2477
 6819SOL     OW21072   0.415   5.138   3.203  0.1163 -0.4463 -0.2833
 6819SOL    HW121073   0.370   5.125   3.120 -0.4492  0.1938 -0.0848
 6819SOL    HW221074   0.492   5.081   3.197  0.3377 -0.0749 -1.4403
 6820SOL     OW21075   6.286   5.458   0.211 -0.6867  0.2702  0.4364
 6820SOL    HW121076   6.278   5.491   0.301  0.2681 -0.8422  0.9614
 6820SOL    HW221077   6.200   5.421   0.192 -0.7689  0.1248  1.0584
 6821SOL     OW21078   6.786   2.095   4.325 -0.4297  0.2131 -0.8346
 6821SOL    HW121079   6.752   2.016   4.367  0.1708  0.8745  1.0076
 6821SOL    HW221080   6.708   2.149   4.312 -0.6393 -0.0111 -0.5625
 6822SOL     OW21081   6.747   6.238   1.718 -0.2615 -0.6602 -0.3828
 6822SOL    HW121082   6.833   6.235   1.761  0.0385 -0.4798 -0.9513
 6822SOL    HW221083   6.749   6.165   1.657  0.4768  0.7689 -2.1757
 6823SOL     OW21084   0.563   3.637   3.581  0.3735  0.2561  1.1386
 6823SOL    HW121085   0.604   3.559   3.545  0.8997  0.3047  1.6232
 6823SOL    HW221086   0.493   3.603   3.637  0.5759  0.1302  1.3173
 6824SOL     OW21087   5.630   0.441   0.960  0.1828 -0.2542  0.4971
 6824SOL    HW121088   5.537   0.431   0.981 -0.0885  1.6610  0.4062
 6824SOL    HW221089   5.640   0.403   0.873 -0.3279 -1.2034  0.8416
 6825SOL     OW21090   0.765   0.649   4.060  0.4137 -0.3920 -0.2597
 6825SOL    HW121091   0.829   0.669   4.128  0.3049  0.6135 -0.4314
 6825SOL    HW221092   0.688   0.617   4.109 -0.2614  1.8423  0.2821
 6826SOL     OW21093   1.698   7.005   6.218  0.1468  0.1578 -0.1242
 6826SOL    HW121094   1.650   7.088   6.220 -0.9235 -0.4433 -0.3237
 6826SOL    HW221095   1.785   7.029   6.186 -0.2656  1.1422 -0.5500
 6827SOL     OW21096   3.736   6.889   4.806 -0.1471  0.2273 -0.0122
 6827SOL    HW121097   3.717   6.806   4.764  0.3497  0.3414 -0.4761
 6827SOL    HW221098   3.743   6.868   4.899 -0.6282 -0.1376 -0.0559
 6828SOL     OW21099   4.682   2.968   3.775 -0.0729 -0.1202  0.0186
 6828SOL    HW121100   4.640   2.906   3.715  0.0133  1.1203 -1.4047
 6828SOL    HW221101   4.616   2.987   3.841 -0.4548 -0.9335 -0.1191
 6829SOL     OW21102   2.018   3.988   3.206  0.7049  0.0980  0.1368
 6829SOL    HW121103   2.035   3.894   3.198 -0.9098 -0.2022 -0.0533
 6829SOL    HW221104   1.987   4.015   3.120 -2.2373  0.0195  1.0792
 6830SOL     OW21105   1.495   4.419   4.906 -0.2264 -0.0060  0.4788
 6830SOL    HW121106   1.500   4.514   4.903  0.2354 -0.0498 -0.7715
 6830SOL    HW221107   1.524   4.395   4.994  2.2705  0.8786 -0.0350
 6831SOL     OW21108   0.555   4.126   3.601 -0.2051 -0.5384 -0.4839
 6831SOL    HW121109   0.595   4.213   3.610 -0.4573 -0.3868 -0.8417
 6831SOL    HW221110   0.464   4.143   3.579 -0.5084 -0.8894  0.4483
 6832SOL     OW21111   0.477   6.341   7.082 -0.4575  0.2108 -0.3749
 6832SOL    HW121112   0.409   6.392   7.038  0.6257  1.7579 -0.3317
 6832SOL    HW221113   0.440   6.253   7.090 -3.4561  1.5051  1.8426
 6833SOL     OW21114   5.905   7.112   0.076 -0.3921  0.4128  0.4021
 6833SOL    HW121115   5.922   7.062  -0.004  0.7303 -0.5789  1.2198
 6833SOL    HW221116   5.814   7.093   0.098  0.0680 -1.5378  0.8235
 6834SOL     OW21117   4.223   1.003   5.213  0.5375 -0.8737  0.3337
 6834SOL    HW121118   4.223   1.093   5.245  1.6346 -0.4657 -0.7430
 6834SOL    HW221119   4.199   0.950   5.289 -1.4456  0.4130  0.6606
 6835SOL     OW21120   5.564   6.719   7.012  0.0047  0.2493 -0.2176
 6835SOL    HW121121   5.654   6.743   6.987 -0.2641  0.3785 -1.1052
 6835SOL    HW221122   5.558   6.626   6.993 -0.0301  0.2306 -0.1138
 6836SOL     OW21123   0.582   0.547   4.250 -0.2516  0.0066  0.4375
 6836SOL    HW121124   0.609   0.471   4.302  0.7351  0.7059  0.9772
 6836SOL    HW221125   0.489   0.557   4.269 -0.7451 -1.8764 -0.7004
 6837SOL     OW21126   3.706   1.223   7.115 -0.2942 -0.5712 -0.2841
 6837SOL    HW121127   3.797   1.228   7.144 -0.1862 -0.9037 -0.5549
 6837SOL    HW221128   3.656   1.201   7.194 -0.2269  0.2969  0.0034
 6838SOL     OW21129   4.525   4.258   6.045  0.5556  0.0009  0.2926
 6838SOL    HW121130   4.458   4.220   5.988  1.3312 -0.3530 -0.4005
 6838SOL    HW221131   4.491   4.244   6.134 -0.6368  0.5065 -0.0627
 6839SOL     OW21132   0.468   4.190   1.443 -0.1908 -0.0856  0.3647
 6839SOL    HW121133   0.561   4.167   1.443 -0.1539  0.0563  0.9337
 6839SOL    HW221134   0.443   4.189   1.350 -0.2709 -2.6568  0.3440
 6840SOL     OW21135   0.248   1.541   2.705  0.3297 -0.1287  0.1048
 6840SOL    HW121136   0.282   1.620   2.665 -1.7967  2.0874  2.2988
 6840SOL    HW221137   0.168   1.522   2.656  1.3356 -1.5676 -1.0407
 6841SOL     OW21138   4.994   2.016   1.226  0.6607 -0.1634  0.1056
 6841SOL    HW121139   5.019   1.925   1.245  0.8649 -0.2952 -0.7367
 6841SOL    HW221140   5.021   2.065   1.303 -0.3576 -0.9696  0.9992
 6842SOL     OW21141   5.928   3.562   6.020  0.8310  0.3571  0.1969
 6842SOL    HW121142   5.925   3.503   6.095  1.1289  2.2156  1.7415
 6842SOL    HW221143   5.925   3.650   6.058  0.1291  1.3653 -2.0253
 6843SOL     OW21144   1.702   5.241   4.414  0.5164  0.2091  1.2355
 6843SOL    HW121145   1.794   5.256   4.435  0.3452 -0.5729  2.6622
 6843SOL    HW221146   1.704   5.185   4.337  1.2186  0.5359  1.0041
 6844SOL     OW21147   3.283   6.919   1.058 -0.1176 -0.4203 -0.0417
 6844SOL    HW121148   3.344   6.867   1.110  1.3983  0.7790 -0.5445
 6844SOL    HW221149   3.264   6.865   0.981 -2.5090 -2.2873  1.6692
 6845SOL     OW21150   0.592   5.912   0.792 -0.1711  0.1812  0.4560
 6845SOL    HW121151   0.559   5.841   0.737 -0.0967 -0.3058  1.0375
 6845SOL    HW221152   0.678   5.933   0.754  0.2592 -0.7317  0.8801
 6846SOL     OW21153   2.912   2.066   6.925  0.3028 -0.2716 -0.2165
 6846SOL    HW121154   2.846   2.092   6.989  1.4913  0.6198  0.6949
 6846SOL    HW221155   2.929   1.974   6.944  0.0610 -0.2270  0.2257
 6847SOL     OW21156   2.445   4.917   0.945  0.4150 -0.4304  0.3461
 6847SOL    HW121157   2.538   4.904   0.964  0.2566 -0.1368  1.3909
 6847SOL    HW221158   2.423   5.000   0.988 -0.1199 -0.0312 -0.6715
 6848SOL     OW21159   5.870   4.983   6.825 -0.6783  0.0458  0.1959
 6848SOL    HW121160   5.931   5.046   6.787  0.0040 -1.2607 -0.9552
 6848SOL    HW221161   5.788   4.996   6.777 -0.4426 -0.1708 -0.2632
 6849SOL     OW21162   6.276   2.423   5.988  0.2512  0.1296  0.3838
 6849SOL    HW121163   6.256   2.477   6.064 -0.6467 -1.2638  1.1920
 6849SOL    HW221164   6.190   2.400   5.952  0.6166 -0.6765  0.0046
 6850SOL     OW21165   2.668   1.346   6.659  0.1838 -0.7069 -0.5984
 6850SOL    HW121166   2.616   1.362   6.579 -0.5644 -2.4747 -0.5205
 6850SOL    HW221167   2.603   1.316   6.723  1.1179 -1.7005 -0.0969
 6851SOL     OW21168   0.595   3.971   1.842 -0.0227 -0.0775  0.1333
 6851SOL    HW121169   0.514   4.019   1.862 -2.7847 -3.4672 -1.8906
 6851SOL    HW221170   0.593   3.895   1.900  1.7416 -0.2967 -0.0348
 6852SOL     OW21171   5.558   2.976   2.304 -0.0825  0.6065 -0.3275
 6852SOL    HW121172   5.500   2.925   2.247  0.0315  1.1399 -0.9369
 6852SOL    HW221173   5.500   3.017   2.367 -0.2885  0.5319 -0.4680
 6853SOL     OW21174   2.845   2.099   6.010  0.3321  0.8905 -0.9727
 6853SOL    HW121175   2.761   2.053   6.007 -0.5432  2.3300 -0.0098
 6853SOL    HW221176   2.910   2.030   6.028 -0.8712 -0.0143  0.1109
 6854SOL     OW21177   5.221   6.300   0.682  0.1755 -0.7025 -0.5276
 6854SOL    HW121178   5.189   6.228   0.628  0.3135 -1.6091  0.5683
 6854SOL    HW221179   5.193   6.279   0.771  0.7599  0.2744 -0.0875
 6855SOL     OW21180   4.020   4.334   4.810  0.3106 -0.1382 -0.7795
 6855SOL    HW121181   4.031   4.244   4.841  0.2092 -0.0854 -0.5814
 6855SOL    HW221182   3.988   4.382   4.887 -0.4121 -0.1014 -1.0861
 6856SOL     OW21183   3.967   2.758   2.700 -0.0780  0.7153  0.2485
 6856SOL    HW121184   3.961   2.742   2.794 -0.9839 -1.8219 -0.1587
 6856SOL    HW221185   4.050   2.718   2.673 -0.5632  0.0008 -0.2382
 6857SOL     OW21186   6.484   0.843   7.232 -0.7283  0.4263  0.2020
 6857SOL    HW121187   6.459   0.751   7.231 -1.1391  0.5366  0.4055
 6857SOL    HW221188   6.485   0.868   7.140 -2.5926  0.7505  0.2357
 6858SOL     OW21189   5.377   2.259   0.772 -0.7571 -0.5705 -0.0520
 6858SOL    HW121190   5.451   2.205   0.745 -1.3307 -0.4145 -2.0704
 6858SOL    HW221191   5.301   2.202   0.763 -1.0258 -0.3751  0.8908
 6859SOL     OW21192   6.405   6.067   5.135 -0.3237 -0.0553  0.2550
 6859SOL    HW121193   6.423   6.022   5.052 -0.0409  0.5233 -0.0042
 6859SOL    HW221194   6.339   6.012   5.178  1.2152 -1.6023  0.7116
 6860SOL     OW21195   5.234   4.954   1.988 -0.4389 -0.1624  0.6751
 6860SOL    HW121196   5.264   4.865   2.006 -2.8047 -1.0480  0.6741
 6860SOL    HW221197   5.197   4.984   2.071 -0.1013  0.6371  0.5449
 6861SOL     OW21198   3.236   6.472   1.822  0.3775  0.0830  0.6322
 6861SOL    HW121199   3.297   6.545   1.831 -0.8309  1.4568 -1.4019
 6861SOL    HW221200   3.162   6.496   1.878  0.4448 -0.1129  0.8043
 6862SOL     OW21201   2.146   3.977   1.668  0.8440  0.2641 -0.0710
 6862SOL    HW121202   2.208   3.916   1.707  1.5770  0.8102 -0.3642
 6862SOL    HW221203   2.192   4.015   1.593  0.5609  1.4988  0.3594
 6863SOL     OW21204   6.406   1.166   4.593  0.3873 -0.0540 -0.2299
 6863SOL    HW121205   6.347   1.091   4.605 -0.8458  0.5771 -1.8816
 6863SOL    HW221206   6.489   1.137   4.629 -0.8767 -0.9923  2.2066
 6864SOL     OW21207   0.718   3.784   5.074  0.1828  0.1104 -0.3285
 6864SOL    HW121208   0.712   3.797   4.980  1.8205 -0.8914 -0.6077
 6864SOL    HW221209   0.728   3.690   5.085 -2.2496 -0.0920  1.0347
 6865SOL     OW21210   6.533   3.959   6.574  0.1635 -0.0436 -0.1782
 6865SOL    HW121211   6.540   4.054   6.564  0.9242  0.0474  0.9895
 6865SOL    HW221212   6.462   3.934   6.515 -0.0474  1.2507 -0.5082
 6866SOL     OW21213   1.109   5.263   4.072 -0.3247 -0.1962  0.2447
 6866SOL    HW121214   1.172   5.305   4.130  0.6096 -1.8125  0.4800
 6866SOL    HW221215   1.120   5.308   3.988  2.0178 -1.1425 -0.0458
 6867SOL     OW21216   1.394   6.625   0.147 -0.1108  0.3748 -0.1215
 6867SOL    HW121217   1.489   6.614   0.153 -0.2449 -0.8587 -0.0326
 6867SOL    HW221218   1.382   6.682   0.070  0.6707  0.0947 -0.4695
 6868SOL     OW21219   3.208   1.450   6.583 -0.2312 -0.0137 -1.1919
 6868SOL    HW121220   3.291   1.432   6.539  0.7684 -0.5633  0.8326
 6868SOL    HW221221   3.199   1.545   6.578  1.7306  0.3343  0.5241
 6869SOL     OW21222   3.180   5.890   5.474 -0.1376 -0.1002  0.5318
 6869SOL    HW121223   3.161   5.797   5.486 -2.5956  0.2819  0.1835
 6869SOL    HW221224   3.126   5.916   5.399  1.2977  1.4098 -0.0499
 6870SOL     OW21225   1.102   0.508   1.406  0.9453  0.7138  0.3210
 6870SOL    HW121226   1.119   0.491   1.498  1.8040  1.0623  0.2389
 6870SOL    HW221227   1.061   0.595   1.404  0.8312  0.6608  0.3836
 6871SOL     OW21228   4.890   5.545   3.756  0.2051 -0.2928  0.2975
 6871SOL    HW121229   4.839   5.619   3.724 -0.5162 -0.0420  1.9714
 6871SOL    HW221230   4.830   5.470   3.751  0.6706 -0.6338 -0.5944
 6872SOL     OW21231   6.396   2.199   3.924 -0.0191  0.5871  0.3178
 6872SOL    HW121232   6.439   2.282   3.944 -0.8868  1.8026 -2.3991
 6872SOL    HW221233   6.303   2.217   3.935 -0.1669 -0.3769  0.7394
 6873SOL     OW21234   2.052   2.086   2.665  0.2124 -0.1688  0.6311
 6873SOL    HW121235   2.110   2.024   2.709  0.2737  0.0117  0.8023
 6873SOL    HW221236   2.091   2.172   2.682 -0.0305 -0.0591  0.6328
 6874SOL     OW21237   1.275   5.627   0.644 -0.2740 -0.1115 -0.0129
 6874SOL    HW121238   1.239   5.683   0.711  0.4557 -1.7034  1.8063
 6874SOL    HW221239   1.293   5.544   0.688 -0.0851 -1.3628 -2.2524
 6875SOL     OW21240   0.411   3.771   0.389  0.4166 -0.4906 -0.2877
 6875SOL    HW121241   0.420   3.799   0.480  0.1892 -2.4172  0.3705
 6875SOL    HW221242   0.342   3.828   0.354  2.5200  2.3011 -0.1921
 6876SOL     OW21243   1.735   3.782   5.528  0.1703  0.0582 -0.5665
 6876SOL    HW121244   1.645   3.788   5.561 -0.6959  0.4398 -2.8028
 6876SOL    HW221245   1.761   3.873   5.515  0.4143 -0.0733 -1.0254
 6877SOL     OW21246   3.335   0.419   3.594  0.4581  0.6523  0.4422
 6877SOL    HW121247   3.371   0.495   3.547  0.1735  0.2815 -0.3908
 6877SOL    HW221248   3.252   0.450   3.630  0.8886  1.0716  1.1065
 6878SOL     OW21249   2.883   7.177   0.901  0.3380  0.1232 -0.3370
 6878SOL    HW121250   2.926   7.208   0.821 -1.5926  0.4829 -1.3136
 6878SOL    HW221251   2.799   7.223   0.901 -0.0873 -0.6009  1.4241
 6879SOL     OW21252   3.823   0.612   3.267  0.6041 -0.0145  0.1680
 6879SOL    HW121253   3.745   0.668   3.274 -0.3148 -1.3411  1.0715
 6879SOL    HW221254   3.845   0.590   3.358  1.7739 -0.0165 -0.1069
 6880SOL     OW21255   3.816   5.512   1.376  0.0712 -0.3237 -0.2486
 6880SOL    HW121256   3.726   5.488   1.400 -0.0871 -0.4080 -0.9010
 6880SOL    HW221257   3.848   5.437   1.326 -0.0449  0.3398 -1.3563
 6881SOL     OW21258   0.736   1.570   0.791 -0.3114 -0.1503 -0.1634
 6881SOL    HW121259   0.781   1.486   0.797 -0.7357 -0.5218 -1.6890
 6881SOL    HW221260   0.799   1.627   0.747 -0.6084 -0.1232 -0.5574
 6882SOL     OW21261   6.145   2.142   0.926  0.3386  0.5664  0.6350
 6882SOL    HW121262   6.057   2.170   0.899 -0.4637 -1.6977  0.7123
 6882SOL    HW221263   6.144   2.151   1.022  0.4644  1.2271  0.5804
 6883SOL     OW21264   3.341   1.896   6.173  0.2047  0.2285  0.1768
 6883SOL    HW121265   3.310   1.853   6.093 -1.0075 -1.6239  1.5493
 6883SOL    HW221266   3.263   1.938   6.209  0.8499  1.4816  0.1712
 6884SOL     OW21267   3.304   4.250   4.851  0.2808 -0.0357  0.1648
 6884SOL    HW121268   3.265   4.172   4.814 -0.2203  0.0340  0.5364
 6884SOL    HW221269   3.353   4.289   4.779  0.6408 -0.7569  0.0103
 6885SOL     OW21270   4.568   3.856   1.335  0.3416  0.1583 -0.3402
 6885SOL    HW121271   4.515   3.813   1.402  0.6660 -2.4343 -1.6089
 6885SOL    HW221272   4.619   3.922   1.383 -1.5630  0.4313  1.4199
 6886SOL     OW21273   7.198   1.912   5.866  0.5763 -0.0294  0.2445
 6886SOL    HW121274   7.277   1.857   5.861 -0.3177 -1.2913 -1.3314
 6886SOL    HW221275   7.128   1.854   5.837 -0.2899  2.2005 -2.6255
 6887SOL     OW21276   0.061   4.527   2.917  0.5453 -0.8866  0.0261
 6887SOL    HW121277   0.121   4.454   2.901  0.5324 -0.6971 -0.9500
 6887SOL    HW221278  -0.026   4.490   2.904  0.5212 -0.7853 -0.1007
 6888SOL     OW21279   5.692   6.428   0.094 -0.2563  0.3974 -0.0197
 6888SOL    HW121280   5.640   6.404   0.018  0.6993  1.7013 -1.1258
 6888SOL    HW221281   5.782   6.432   0.062  0.6820 -2.2512  1.9441
 6889SOL     OW21282   5.097   1.368   4.998 -0.0306  0.8126 -0.0410
 6889SOL    HW121283   5.171   1.355   4.940  0.2603  0.6890  0.3544
 6889SOL    HW221284   5.021   1.338   4.948  0.5511 -2.1641  0.7140
 6890SOL     OW21285   3.167   5.158   5.873 -0.3284  0.6485  0.5262
 6890SOL    HW121286   3.141   5.069   5.898  1.3401 -0.6618 -1.9639
 6890SOL    HW221287   3.086   5.207   5.872 -1.6273 -1.3848  0.0131
 6891SOL     OW21288   1.427   2.457   3.596 -0.5462  0.0374 -0.3482
 6891SOL    HW121289   1.350   2.464   3.540 -0.4888 -0.0620 -0.4403
 6891SOL    HW221290   1.484   2.528   3.569  0.6911 -1.5863 -2.2993
 6892SOL     OW21291   6.176   0.441   0.589 -0.6063  0.4875  0.2193
 6892SOL    HW121292   6.178   0.436   0.685 -0.0955 -0.6191  0.1647
 6892SOL    HW221293   6.268   0.440   0.563 -0.7421  0.8113 -0.2885
 6893SOL     OW21294   1.511   4.921   2.248  0.0656 -0.0341 -0.3169
 6893SOL    HW121295   1.459   4.953   2.175 -0.1754 -2.1374 -1.1557
 6893SOL    HW221296   1.450   4.912   2.321 -0.4022 -0.8184 -0.7874
 6894SOL     OW21297   3.906   3.712   6.184  0.3624 -0.2603  0.6581
 6894SOL    HW121298   3.941   3.671   6.263  1.4301  1.0595  0.9074
 6894SOL    HW221299   3.850   3.645   6.145  4.0732 -3.0336 -0.4608
 6895SOL     OW21300   5.219   3.931   0.273 -0.4951 -0.3771  0.6155
 6895SOL    HW121301   5.312   3.919   0.296 -0.0754  0.3465 -0.6044
 6895SOL    HW221302   5.190   3.844   0.246 -0.3342 -0.7247  1.5045
 6896SOL     OW21303   1.168   2.341   0.901  0.1065  0.2565  0.2048
 6896SOL    HW121304   1.137   2.273   0.841  0.3773  0.2484  0.0714
 6896SOL    HW221305   1.252   2.308   0.933  2.1604  2.1143 -2.7017
 6897SOL     OW21306   2.250   0.447   4.858 -0.2592 -0.1823 -0.1214
 6897SOL    HW121307   2.339   0.428   4.888  0.1437  0.0207 -1.1392
 6897SOL    HW221308   2.201   0.366   4.874  0.1461 -0.3513  0.2803
 6898SOL     OW21309   1.705   5.945   5.390  0.1862  0.1728  0.1841
 6898SOL    HW121310   1.783   5.952   5.444  1.1175  1.6321 -1.2440
 6898SOL    HW221311   1.658   6.027   5.403 -1.4228 -0.8692  1.3909
 6899SOL     OW21312   6.350   3.991   0.160  0.3902 -0.1451 -0.0728
 6899SOL    HW121313   6.294   3.921   0.194  1.3203 -1.1017 -0.4841
 6899SOL    HW221314   6.427   3.947   0.126  0.2651  0.9250 -1.8989
 6900SOL     OW21315   2.148   5.001   6.425 -0.4588  0.1493  0.0448
 6900SOL    HW121316   2.156   4.925   6.368  0.0665 -0.2998  0.7042
 6900SOL    HW221317   2.089   5.060   6.378  1.5063  0.6804 -1.9299
 6901SOL     OW21318   2.286   4.653   5.809  0.2309  0.1697 -0.3156
 6901SOL    HW121319   2.374   4.677   5.783  0.0003 -0.0532 -1.3496
 6901SOL    HW221320   2.282   4.672   5.902  2.0214 -1.7580  0.2297
 6902SOL     OW21321   6.267   5.377   2.171 -0.1577  0.5189  0.1906
 6902SOL    HW121322   6.183   5.377   2.127 -0.0863  0.0866  0.0516
 6902SOL    HW221323   6.262   5.303   2.232  0.6657 -0.4601 -0.8770
 6903SOL     OW21324   4.843   2.152   4.149  0.1178 -0.5633 -0.0120
 6903SOL    HW121325   4.784   2.208   4.199  0.4061  0.7287 -1.0294
 6903SOL    HW221326   4.832   2.181   4.058  0.5798 -1.9178 -0.5305
 6904SOL     OW21327   4.530   6.276   2.552 -0.5555  0.3981  0.1155
 6904SOL    HW121328   4.486   6.194   2.576 -2.0439  1.1807  0.1608
 6904SOL    HW221329   4.503   6.292   2.461  0.8441  0.1588 -0.3766
 6905SOL     OW21330   6.951   1.646   4.801 -0.3674 -0.7603 -0.3346
 6905SOL    HW121331   6.873   1.685   4.763 -0.1169 -1.8336 -2.0335
 6905SOL    HW221332   6.943   1.552   4.784  0.0370 -1.2339  1.8257
 6906SOL     OW21333   5.944   1.873   1.119  0.4341 -0.4653 -0.0593
 6906SOL    HW121334   5.997   1.898   1.195  0.0181 -0.0388  0.1030
 6906SOL    HW221335   5.870   1.934   1.122 -2.0381 -3.2834  1.8483
 6907SOL     OW21336   4.886   4.222   2.596 -0.3139  0.7055  0.2935
 6907SOL    HW121337   4.860   4.171   2.673 -2.4156  0.0804 -0.7719
 6907SOL    HW221338   4.862   4.167   2.522  0.5177  1.8312 -0.8476
 6908SOL     OW21339   4.349   0.487   3.690  0.4525 -0.2215 -0.1370
 6908SOL    HW121340   4.393   0.422   3.746  1.6149 -0.5862 -1.4151
 6908SOL    HW221341   4.402   0.567   3.700  0.2203 -0.0681 -0.1316
 6909SOL     OW21342   0.567   5.790   6.439  0.4110  0.3373 -0.4804
 6909SOL    HW121343   0.477   5.788   6.469 -0.4721  3.2684 -2.4956
 6909SOL    HW221344   0.618   5.810   6.518 -0.6031 -1.3600  0.6806
 6910SOL     OW21345   0.895   3.007   0.581  0.6369 -0.0543 -0.0741
 6910SOL    HW121346   0.845   3.070   0.634  1.7574  0.8002 -0.0055
 6910SOL    HW221347   0.969   3.057   0.546  0.2005 -0.6956 -2.0941
 6911SOL     OW21348   2.600   3.495   6.135 -0.1436 -0.1770  0.0368
 6911SOL    HW121349   2.551   3.553   6.193 -1.3763 -0.4802 -0.6687
 6911SOL    HW221350   2.628   3.551   6.062 -1.8716 -0.5436 -0.9619
 6912SOL     OW21351   2.175   5.989   3.491  0.1090  0.0836 -0.1850
 6912SOL    HW121352   2.258   5.992   3.538 -0.1353  0.6334  0.2319
 6912SOL    HW221353   2.121   6.056   3.534 -0.6599 -0.4929 -0.2303
 6913SOL     OW21354   2.082   2.276   4.875 -0.5125  0.0352 -0.0101
 6913SOL    HW121355   2.142   2.203   4.889  0.4107  0.6022 -0.7823
 6913SOL    HW221356   2.094   2.332   4.952 -1.8390 -1.0038  0.9833
 6914SOL     OW21357   1.138   5.240   0.895  0.1472 -0.7594  0.1011
 6914SOL    HW121358   1.046   5.255   0.915  0.3597 -0.9031  1.2788
 6914SOL    HW221359   1.169   5.184   0.966  1.8943  1.8223  1.5411
 6915SOL     OW21360   5.254   5.056   6.983 -0.5396  0.6136 -0.3212
 6915SOL    HW121361   5.314   4.984   6.964 -0.6513  0.5516 -0.4443
 6915SOL    HW221362   5.233   5.046   7.075 -0.3224  0.6649 -0.2642
 6916SOL     OW21363   5.665   2.812   4.369 -0.4291  0.1797 -0.0082
 6916SOL    HW121364   5.621   2.887   4.410 -1.3783 -0.6748  0.5843
 6916SOL    HW221365   5.699   2.846   4.286 -0.2728  1.4223  0.5491
 6917SOL     OW21366   3.263   6.740   4.783 -0.6542  0.1535 -0.5606
 6917SOL    HW121367   3.175   6.775   4.766 -0.7586  0.8987  1.3218
 6917SOL    HW221368   3.261   6.653   4.743 -3.0289 -0.7422  1.2484
 6918SOL     OW21369   4.276   2.383   6.072 -0.1643  0.0921 -0.7334
 6918SOL    HW121370   4.239   2.295   6.074  0.8729 -0.3620 -1.0360
 6918SOL    HW221371   4.297   2.402   6.164 -1.6304  0.5830 -0.4762
 6919SOL     OW21372   4.044   2.407   4.766 -0.0123  0.6851 -0.0103
 6919SOL    HW121373   4.014   2.469   4.700  2.2197  0.3131 -1.4654
 6919SOL    HW221374   3.964   2.384   4.814 -1.8462  0.6741 -2.8099
 6920SOL     OW21375   2.820   3.519   6.761  0.2028  0.0483 -0.1434
 6920SOL    HW121376   2.876   3.479   6.695  1.1039 -0.9061  1.1418
 6920SOL    HW221377   2.864   3.602   6.783 -1.3733  1.6156 -2.4042
 6921SOL     OW21378   3.433   2.496   6.437 -0.2773  0.3337  0.6782
 6921SOL    HW121379   3.514   2.538   6.408 -0.3742 -0.1328 -0.3267
 6921SOL    HW221380   3.456   2.452   6.519 -0.2309  2.5060  1.9037
 6922SOL     OW21381   0.144   6.606   3.885 -0.5434  0.7822  0.2105
 6922SOL    HW121382   0.138   6.583   3.793 -0.1600 -0.3456  0.4551
 6922SOL    HW221383   0.231   6.646   3.895  0.2710 -0.9486  0.4444
 6923SOL     OW21384   5.947   1.858   1.614  0.0939 -0.1762 -0.1292
 6923SOL    HW121385   6.027   1.905   1.637 -0.2137 -0.0321  0.6877
 6923SOL    HW221386   5.919   1.816   1.696 -1.0672  0.4038 -0.2008
 6924SOL     OW21387   5.423   6.368   3.851  0.1361  0.2560 -0.3573
 6924SOL    HW121388   5.508   6.410   3.843  0.2846 -0.1348 -0.8666
 6924SOL    HW221389   5.361   6.431   3.813  0.5025 -0.4643 -2.2542
 6925SOL     OW21390   6.549   3.444   2.539  0.3114  0.3782 -0.5601
 6925SOL    HW121391   6.546   3.538   2.519  0.4431  0.2723 -1.1045
 6925SOL    HW221392   6.613   3.409   2.476  0.1579 -0.0970 -0.4511
 6926SOL     OW21393   3.684   7.204   0.453  0.0353 -0.1833  0.2873
 6926SOL    HW121394   3.711   7.240   0.369 -0.2558  0.5974  0.5262
 6926SOL    HW221395   3.616   7.140   0.431 -0.1856  0.1672 -0.0588
 6927SOL     OW21396   0.518   5.040   2.346 -0.1725 -0.5149 -0.2305
 6927SOL    HW121397   0.548   5.080   2.427  0.6611  1.4531 -1.4253
 6927SOL    HW221398   0.582   5.067   2.280 -0.7619 -2.1275 -1.5518
 6928SOL     OW21399   1.222   0.193   0.790 -0.5652  0.5021  0.3552
 6928SOL    HW121400   1.305   0.146   0.799 -0.2433  1.4831  3.4417
 6928SOL    HW221401   1.159   0.126   0.765  0.3546 -1.1229  2.1601
 6929SOL     OW21402   6.518   1.249   7.192 -0.2785  0.2245  0.0111
 6929SOL    HW121403   6.554   1.162   7.210  0.5472  0.5155 -0.2165
 6929SOL    HW221404   6.593   1.308   7.199 -1.1557  1.2068  2.1675
 6930SOL     OW21405   2.728   3.631   0.689 -0.1561 -0.0392 -0.3815
 6930SOL    HW121406   2.675   3.705   0.658  0.1069  0.3834  0.1750
 6930SOL    HW221407   2.816   3.667   0.700  0.2491 -0.7163 -1.2229
 6931SOL     OW21408   1.772   1.736   6.977 -0.1009  0.4622 -0.9001
 6931SOL    HW121409   1.684   1.770   6.962 -0.1121  0.0439 -1.8254
 6931SOL    HW221410   1.826   1.780   6.911 -0.3697 -2.2979 -3.1195
 6932SOL     OW21411   5.990   5.303   2.536 -0.1375  0.3609 -0.2894
 6932SOL    HW121412   5.999   5.214   2.570 -1.0935  1.2757  2.6790
 6932SOL    HW221413   5.906   5.302   2.490 -0.1801 -0.2731 -0.2137
 6933SOL     OW21414   4.387   1.596   1.316  0.2139 -0.6033 -0.1835
 6933SOL    HW121415   4.346   1.620   1.233 -1.6498 -0.1143  0.8284
 6933SOL    HW221416   4.326   1.534   1.356  1.4192 -1.3611  0.5379
 6934SOL     OW21417   3.391   4.150   6.821 -0.4588  0.2386  0.0379
 6934SOL    HW121418   3.338   4.230   6.819  1.2261  1.3877 -0.5695
 6934SOL    HW221419   3.473   4.174   6.779  0.3521 -1.6484  0.4316
 6935SOL     OW21420   5.740   0.386   2.377  0.5685  0.4030 -0.2758
 6935SOL    HW121421   5.786   0.444   2.316  0.1588 -1.0944 -2.0973
 6935SOL    HW221422   5.648   0.411   2.368  0.6232  1.0597  0.7719
 6936SOL     OW21423   3.414   5.675   4.765  0.1142 -0.5071  0.7183
 6936SOL    HW121424   3.483   5.741   4.773 -0.3849  0.0574  0.4023
 6936SOL    HW221425   3.451   5.597   4.807  0.5791  0.0646  1.3990
 6937SOL     OW21426   2.735   1.103   4.408 -0.0104 -0.8727 -0.2766
 6937SOL    HW121427   2.789   1.043   4.459 -2.0718 -0.9684  1.9466
 6937SOL    HW221428   2.646   1.068   4.415 -1.1305  1.7981  0.1738
 6938SOL     OW21429   0.934   0.816   2.478  0.4785 -0.2008  0.0409
 6938SOL    HW121430   0.955   0.907   2.496  0.1313 -0.0969 -0.0721
 6938SOL    HW221431   0.919   0.778   2.565 -0.2052  0.0583  0.0454
 6939SOL     OW21432   0.234   5.009   6.858 -0.4221  0.3109  0.0162
 6939SOL    HW121433   0.236   5.104   6.852 -0.9587  0.2938 -0.5860
 6939SOL    HW221434   0.157   4.984   6.807  0.3739 -0.5167 -0.8186
 6940SOL     OW21435   1.984   5.386   5.839 -1.1725  0.0780 -0.7493
 6940SOL    HW121436   2.051   5.392   5.771  0.8588  1.8263  1.2462
 6940SOL    HW221437   1.966   5.476   5.863 -1.4276 -0.4807  1.3432
 6941SOL     OW21438   4.231   4.361   5.026  0.0405 -0.1065  0.2817
 6941SOL    HW121439   4.264   4.271   5.033 -1.4736 -0.6165  1.4765
 6941SOL    HW221440   4.300   4.408   4.980  0.6020 -2.0173 -0.9781
 6942SOL     OW21441   3.690   4.994   3.346 -0.0201  0.0289 -0.1090
 6942SOL    HW121442   3.688   5.017   3.253  0.0675  3.7139  0.6683
 6942SOL    HW221443   3.600   5.006   3.376  0.1132 -0.3354  0.4452
 6943SOL     OW21444   5.050   5.802   0.519 -0.6783 -0.6676 -0.3286
 6943SOL    HW121445   4.982   5.741   0.490 -0.5250 -0.3528 -1.3909
 6943SOL    HW221446   5.002   5.879   0.551 -0.8378 -0.5027 -0.9468
 6944SOL     OW21447   3.056   5.712   0.042 -0.7758 -0.3167 -0.0159
 6944SOL    HW121448   2.972   5.665   0.040 -1.7222  1.3001  0.0355
 6944SOL    HW221449   3.061   5.756  -0.042  0.4976 -1.1457 -0.3894
 6945SOL     OW21450   3.718   1.934   0.270  0.5370 -0.2377 -0.1329
 6945SOL    HW121451   3.662   1.947   0.347 -0.0743  3.4851 -1.0085
 6945SOL    HW221452   3.682   1.994   0.205  4.4080  0.9630 -1.3998
 6946SOL     OW21453   2.265   1.771   4.210 -0.1534 -0.6130 -0.1179
 6946SOL    HW121454   2.315   1.700   4.170  1.1808  1.1852 -1.8235
 6946SOL    HW221455   2.174   1.741   4.207  0.4128 -2.4752 -0.1832
 6947SOL     OW21456   5.771   5.512   5.536  1.0280 -0.1712 -0.1629
 6947SOL    HW121457   5.845   5.452   5.545 -0.6020 -2.2423  0.3147
 6947SOL    HW221458   5.748   5.535   5.626 -0.5402 -1.7833 -0.0788
 6948SOL     OW21459   5.874   5.263   6.172  0.0316 -0.4477 -0.8088
 6948SOL    HW121460   5.781   5.260   6.150  0.2391  0.7598 -1.9341
 6948SOL    HW221461   5.897   5.356   6.171  1.1948 -0.6979 -0.2398
 6949SOL     OW21462   6.477   3.028   6.143  0.4285 -0.1671  0.0393
 6949SOL    HW121463   6.528   3.109   6.139  1.3409 -0.7816 -2.3439
 6949SOL    HW221464   6.387   3.058   6.151  0.7113  1.1293 -1.1230
 6950SOL     OW21465   1.399   5.400   5.437 -0.0124  0.2047 -1.1983
 6950SOL    HW121466   1.448   5.319   5.431 -2.5328 -1.4415 -1.1495
 6950SOL    HW221467   1.345   5.401   5.358 -1.8205  0.5197 -0.0295
 6951SOL     OW21468   1.962   0.068   0.534  0.3747  0.0921 -0.0953
 6951SOL    HW121469   1.880   0.051   0.581  0.1503  1.6037  0.0812
 6951SOL    HW221470   2.026   0.013   0.579 -0.4117 -0.6661  0.1373
 6952SOL     OW21471   2.543   0.577   2.184 -0.5334  0.0555  0.4726
 6952SOL    HW121472   2.518   0.552   2.095 -1.1439 -0.5679  0.8066
 6952SOL    HW221473   2.637   0.562   2.187 -0.2089  1.7037 -0.5801
 6953SOL     OW21474   1.423   5.807   0.124 -0.4174 -0.6448 -0.3180
 6953SOL    HW121475   1.448   5.842   0.209  0.4073  0.7162 -1.1016
 6953SOL    HW221476   1.348   5.750   0.144  0.0403 -0.7302  1.3664
 6954SOL     OW21477   3.547   5.491   1.447 -0.0312  0.2984 -0.2248
 6954SOL    HW121478   3.464   5.535   1.467 -0.9159 -0.0343 -2.8027
 6954SOL    HW221479   3.553   5.419   1.510 -1.3047  0.7779  0.4716
 6955SOL     OW21480   5.870   1.736   6.564 -0.1366 -0.5009  0.3469
 6955SOL    HW121481   5.948   1.720   6.618 -0.8876  1.4531  2.1695
 6955SOL    HW221482   5.892   1.814   6.513 -0.9764  0.3141  1.1782
 6956SOL     OW21483   4.924   0.828   0.593 -0.2093 -0.7092  0.4074
 6956SOL    HW121484   4.868   0.756   0.623  0.7465 -1.3261  0.7606
 6956SOL    HW221485   4.956   0.868   0.674 -2.5271  1.6266  0.3059
 6957SOL     OW21486   2.891   1.625   1.357 -0.4053 -0.0816  0.3432
 6957SOL    HW121487   2.853   1.644   1.443  1.0423  0.6643  0.8587
 6957SOL    HW221488   2.885   1.530   1.349 -1.0110 -0.1144  1.0415
 6958SOL     OW21489   1.623   5.880   1.825 -0.3476 -0.1013 -0.5274
 6958SOL    HW121490   1.710   5.873   1.787 -0.0353 -1.7588  0.4035
 6958SOL    HW221491   1.594   5.969   1.802  2.1341  1.0169  0.2919
 6959SOL     OW21492   5.930   4.668   1.799 -0.3498 -0.6296 -0.0969
 6959SOL    HW121493   5.945   4.638   1.888 -0.9470 -0.7190 -0.0169
 6959SOL    HW221494   5.839   4.642   1.780  0.1345 -1.6580 -1.1399
 6960SOL     OW21495   4.505   1.140   2.779  0.0077  0.0319 -0.2776
 6960SOL    HW121496   4.536   1.228   2.801  1.7715 -1.0984  2.3306
 6960SOL    HW221497   4.409   1.148   2.779  0.1266  2.1215 -1.1060
 6961SOL     OW21498   6.737   3.860   3.760 -0.1471 -0.0496 -0.1855
 6961SOL    HW121499   6.760   3.780   3.807  2.0922  0.5052 -0.2093
 6961SOL    HW221500   6.725   3.831   3.669  0.9462 -0.3581 -0.2521
 6962SOL     OW21501   1.922   4.959   3.924 -0.2051 -0.1798 -0.0587
 6962SOL    HW121502   1.967   4.994   3.848  1.4483  0.0950  0.9981
 6962SOL    HW221503   1.968   4.878   3.944  2.5612  1.9092  3.2806
 6963SOL     OW21504   0.793   0.963   0.716  0.1431  0.5804 -0.3385
 6963SOL    HW121505   0.876   0.916   0.704 -0.3460 -0.5242  0.4222
 6963SOL    HW221506   0.743   0.942   0.637 -0.0973 -0.2739  0.0225
 6964SOL     OW21507   6.761   6.098   4.010 -0.5191 -0.0544 -0.0460
 6964SOL    HW121508   6.706   6.065   3.939  1.2921 -0.3927 -1.3688
 6964SOL    HW221509   6.839   6.132   3.966  0.2150  0.6921  1.7289
 6965SOL     OW21510   5.381   0.948   4.586  0.1449  0.6546 -0.9022
 6965SOL    HW121511   5.306   1.008   4.586 -1.6716 -1.4962 -0.5000
 6965SOL    HW221512   5.458   1.006   4.585 -1.2719  3.2558  4.0868
 6966SOL     OW21513   5.929   5.876   1.291 -0.0087 -0.2943  0.2882
 6966SOL    HW121514   5.900   5.896   1.201 -0.3646 -1.0221  0.2362
 6966SOL    HW221515   6.013   5.831   1.280  0.4216  0.4718  0.3712
 6967SOL     OW21516   6.288   3.018   3.746  0.1677  0.1582  0.1433
 6967SOL    HW121517   6.339   3.040   3.668 -0.5249  0.6782 -0.1713
 6967SOL    HW221518   6.329   3.068   3.816 -0.9036  1.9107 -0.4179
 6968SOL     OW21519   1.764   5.685   0.707 -0.2062 -0.0315 -0.2693
 6968SOL    HW121520   1.782   5.631   0.784  0.0383  0.0728 -0.2547
 6968SOL    HW221521   1.715   5.760   0.742  1.8168  1.1631  0.1379
 6969SOL     OW21522   6.810   5.702   6.931  0.0665 -0.0087  0.5362
 6969SOL    HW121523   6.844   5.782   6.890 -0.0065  0.5556  1.5459
 6969SOL    HW221524   6.855   5.631   6.885  2.8940  0.7033  1.9622
 6970SOL     OW21525   0.203   1.922   0.258  0.2057  0.1135  0.1749
 6970SOL    HW121526   0.276   1.980   0.237 -0.1645 -0.3653 -2.9563
 6970SOL    HW221527   0.244   1.844   0.295  1.2439  0.1400 -0.8610
 6971SOL     OW21528   3.294   6.317   2.225 -0.1963  0.2712 -1.1929
 6971SOL    HW121529   3.320   6.287   2.312  0.5451 -1.0451 -1.8515
 6971SOL    HW221530   3.231   6.252   2.195 -0.0053  0.3972 -1.8736
 6972SOL     OW21531   3.616   4.791   5.945 -0.2044  0.6564  0.1870
 6972SOL    HW121532   3.575   4.820   5.863  0.3047 -0.5263 -0.5098
 6972SOL    HW221533   3.710   4.789   5.925 -0.1510 -0.5479  0.4935
 6973SOL     OW21534   0.867   2.887   6.720  0.2377 -0.2120  0.2293
 6973SOL    HW121535   0.954   2.928   6.721  0.0965  0.1016 -0.3066
 6973SOL    HW221536   0.865   2.834   6.800  1.3785 -1.1720 -0.3426
 6974SOL     OW21537   4.760   0.434   2.688  0.1435  0.2423  0.1499
 6974SOL    HW121538   4.802   0.421   2.603  0.5918  0.6395  0.3042
 6974SOL    HW221539   4.697   0.505   2.673  0.0932  0.1884  0.1062
 6975SOL     OW21540   1.591   5.321   0.194  0.3211  0.8850 -0.4950
 6975SOL    HW121541   1.632   5.280   0.270  0.5284  2.3413  0.2074
 6975SOL    HW221542   1.647   5.295   0.120  1.1920  0.9638  0.1209
 6976SOL     OW21543   4.623   6.648   3.677 -0.2402  0.3736 -0.2986
 6976SOL    HW121544   4.707   6.623   3.713  0.3669  1.0017 -1.2160
 6976SOL    HW221545   4.641   6.730   3.629 -1.4460  0.7321 -0.1711
 6977SOL     OW21546   6.987   4.270   3.491  0.3183 -0.4008  0.0486
 6977SOL    HW121547   6.975   4.295   3.399  2.5021  1.0713  0.1071
 6977SOL    HW221548   6.954   4.345   3.541  2.0174  0.1629  0.3676
 6978SOL     OW21549   2.821   5.355   1.879 -0.2359 -0.7217 -0.0309
 6978SOL    HW121550   2.768   5.393   1.949  1.1213  1.5537 -0.1736
 6978SOL    HW221551   2.805   5.411   1.803  1.3810 -0.7655 -0.4293
 6979SOL     OW21552   0.635   7.191   4.492 -0.0509  0.0487 -0.3553
 6979SOL    HW121553   0.625   7.096   4.485 -0.5909  0.2008 -2.0909
 6979SOL    HW221554   0.704   7.203   4.557  0.2850 -1.5425 -0.3792
 6980SOL     OW21555   4.794   0.145   6.587  0.2152 -0.0990  0.0671
 6980SOL    HW121556   4.718   0.195   6.557  0.0394  0.3180  1.1552
 6980SOL    HW221557   4.782   0.058   6.549 -0.7062  0.0219  0.0533
 6981SOL     OW21558   3.675   0.100   0.930  0.4958 -0.3531 -0.2780
 6981SOL    HW121559   3.594   0.104   0.981  1.6182 -2.5090  1.8263
 6981SOL    HW221560   3.649   0.063   0.846 -1.1994  2.2247 -1.0097
 6982SOL     OW21561   3.718   2.990   0.778 -0.0834  0.3943 -0.5975
 6982SOL    HW121562   3.799   3.016   0.821 -0.6338  0.3912  0.4633
 6982SOL    HW221563   3.711   3.048   0.702  1.1149  0.1082 -0.9341
 6983SOL     OW21564   6.305   3.403   2.323  0.0123 -0.4981 -0.2197
 6983SOL    HW121565   6.380   3.355   2.358 -1.5298 -2.6691  0.3027
 6983SOL    HW221566   6.248   3.417   2.399 -0.1876  1.0558 -0.6230
 6984SOL     OW21567   1.638   3.490   2.425 -0.0696  0.0693  0.1193
 6984SOL    HW121568   1.727   3.490   2.462 -0.7933  1.8994  2.1045
 6984SOL    HW221569   1.581   3.492   2.502 -1.7782  0.9244 -1.1145
 6985SOL     OW21570   5.659   3.446   7.119  0.0806  0.2295  0.5990
 6985SOL    HW121571   5.698   3.455   7.032  0.4781  1.1048  0.8484
 6985SOL    HW221572   5.588   3.382   7.108  0.8192 -0.4820 -0.1242
 6986SOL     OW21573   4.800   5.616   0.869 -0.5796 -0.0691 -0.1487
 6986SOL    HW121574   4.745   5.545   0.837  1.5552 -1.1294 -1.7080
 6986SOL    HW221575   4.741   5.670   0.923 -3.1115 -1.0538 -1.7612
 6987SOL     OW21576   2.999   1.160   0.332 -0.0265 -0.2047 -0.0414
 6987SOL    HW121577   2.991   1.150   0.427 -1.1427 -0.4284 -0.1480
 6987SOL    HW221578   2.984   1.072   0.297 -1.1632  0.1547 -0.5029
 6988SOL     OW21579   6.779   0.456   1.904 -0.1940  0.7046  0.3820
 6988SOL    HW121580   6.801   0.538   1.861 -0.7515  0.6591 -0.0002
 6988SOL    HW221581   6.720   0.481   1.975 -0.6022  0.6069  0.0801
 6989SOL     OW21582   4.777   2.281   3.545 -0.1446  0.4167 -0.1528
 6989SOL    HW121583   4.762   2.363   3.497  1.6433  1.2330  0.5706
 6989SOL    HW221584   4.810   2.221   3.479 -3.7007 -0.6032 -1.2141
 6990SOL     OW21585   5.680   0.412   5.365 -0.1414 -1.0385 -0.1113
 6990SOL    HW121586   5.608   0.418   5.428  0.7726 -0.1473  0.8834
 6990SOL    HW221587   5.637   0.415   5.280 -1.3349 -1.2982  0.4574
 6991SOL     OW21588   5.605   7.184   3.834 -0.9092  0.5238  0.5582
 6991SOL    HW121589   5.679   7.207   3.890  0.3180 -0.2616 -0.6944
 6991SOL    HW221590   5.626   7.097   3.800 -1.7692  0.8442 -0.8716
 6992SOL     OW21591   3.396   6.276   1.449 -0.2695 -0.7331  0.5997
 6992SOL    HW121592   3.439   6.191   1.443  2.2055  0.3146  2.1225
 6992SOL    HW221593   3.399   6.312   1.361  1.0773 -1.1387  0.4668
 6993SOL     OW21594   5.377   2.417   1.712 -0.3302  0.4834 -0.0861
 6993SOL    HW121595   5.290   2.453   1.699 -1.6084 -1.4150  2.3827
 6993SOL    HW221596   5.395   2.430   1.806  1.9147  0.4698 -0.4432
 6994SOL     OW21597   3.648   1.613   4.833  0.5384  0.1272  0.6116
 6994SOL    HW121598   3.636   1.676   4.762  1.5128  2.5401  2.4536
 6994SOL    HW221599   3.728   1.566   4.809  0.5778  0.5445 -0.1317
 6995SOL     OW21600   2.010   6.544   0.555 -0.4278  0.5557  0.0020
 6995SOL    HW121601   2.086   6.564   0.610 -1.9529  3.4579  1.3007
 6995SOL    HW221602   2.038   6.565   0.466  0.6770  0.2884  0.2743
 6996SOL     OW21603   0.074   6.728   3.135  0.4484  0.3716  0.4030
 6996SOL    HW121604   0.051   6.639   3.108  2.1160 -0.4579  1.5334
 6996SOL    HW221605   0.023   6.742   3.215 -0.3967  0.7533 -0.1875
 6997SOL     OW21606   7.096   5.476   7.169  0.0575 -0.1952 -0.3398
 6997SOL    HW121607   7.090   5.446   7.079  0.7200 -0.5674 -0.2732
 6997SOL    HW221608   7.184   5.514   7.176  0.2968 -0.8328  0.3253
 6998SOL     OW21609   1.685   2.937   6.651  0.1557 -0.4110  0.0409
 6998SOL    HW121610   1.623   3.010   6.646 -0.9031 -1.3402 -0.9840
 6998SOL    HW221611   1.683   2.898   6.564 -1.3626 -3.3014  1.2488
 6999SOL     OW21612   5.595   4.433   6.865  0.4272  0.0162  0.1629
 6999SOL    HW121613   5.527   4.493   6.896 -0.3746 -0.0488 -1.3905
 6999SOL    HW221614   5.614   4.378   6.941 -1.3465 -0.0410  0.6154
 7000SOL     OW21615   1.416   0.718   0.704 -0.1318  0.9070  0.0960
 7000SOL    HW121616   1.425   0.775   0.628 -1.4930  1.5685  0.3975
 7000SOL    HW221617   1.420   0.776   0.779 -0.3235  0.4493  0.4671
 7001SOL     OW21618   3.839   2.583   0.658  0.6108  0.0035 -0.5934
 7001SOL    HW121619   3.787   2.530   0.719  0.0002  1.5492  0.3065
 7001SOL    HW221620   3.907   2.524   0.626  1.0954 -0.8420  1.7846
 7002SOL     OW21621   0.553   5.509   6.059  0.0974  0.3121 -0.7417
 7002SOL    HW121622   0.541   5.601   6.082 -2.0816  0.1761 -1.1233
 7002SOL    HW221623   0.493   5.495   5.986  0.0202 -1.5394 -0.3567
 7003SOL     OW21624   1.230   5.703   4.125  0.0973  0.0160  0.4627
 7003SOL    HW121625   1.268   5.631   4.176 -0.4456  0.4340  1.4943
 7003SOL    HW221626   1.248   5.781   4.178  0.3515  0.5951 -0.4613
 7004SOL     OW21627   1.975   0.725   0.534  0.2770  0.2701  0.2110
 7004SOL    HW121628   2.003   0.727   0.443 -0.8370  2.0019 -0.1227
 7004SOL    HW221629   2.006   0.640   0.566 -0.1944 -0.8210 -2.0361
 7005SOL     OW21630   5.342   2.031   1.436  0.2227  0.5429  0.3082
 7005SOL    HW121631   5.248   2.047   1.441  0.1784  0.2178  0.5847
 7005SOL    HW221632   5.353   1.943   1.472  0.4245 -0.1810 -1.4519
 7006SOL     OW21633   1.450   5.065   5.150 -0.2327 -0.3094 -0.4902
 7006SOL    HW121634   1.483   5.131   5.212  1.1303 -2.4928  1.2509
 7006SOL    HW221635   1.355   5.069   5.160 -0.0747 -0.4217  1.6475
 7007SOL     OW21636   5.355   1.820   4.932  0.1484 -0.2230  0.4292
 7007SOL    HW121637   5.326   1.734   4.963  0.2634  0.4422  2.5325
 7007SOL    HW221638   5.276   1.874   4.930  0.0189 -0.4017 -1.1892
 7008SOL     OW21639   6.596   6.132   2.260 -0.1325 -0.3104  0.1058
 7008SOL    HW121640   6.633   6.170   2.180 -2.8076  1.3811 -0.4665
 7008SOL    HW221641   6.502   6.129   2.243 -0.5253 -2.4466  2.2196
 7009SOL     OW21642   4.205   0.172   2.208  0.2618 -0.0902  0.6743
 7009SOL    HW121643   4.249   0.109   2.265  1.5930  0.8566  0.7453
 7009SOL    HW221644   4.225   0.257   2.246  0.3330  0.4978 -0.6338
 7010SOL     OW21645   3.262   2.774   5.215 -0.1395  0.2359  0.3361
 7010SOL    HW121646   3.224   2.688   5.199 -2.3766  1.2917 -0.4080
 7010SOL    HW221647   3.187   2.832   5.227  1.2785  2.2164  0.1554
 7011SOL     OW21648   0.428   4.758   4.868 -0.2955 -0.1876  0.2497
 7011SOL    HW121649   0.345   4.717   4.845 -0.0827  0.0776 -1.0405
 7011SOL    HW221650   0.425   4.765   4.964 -1.3301 -1.0593  0.3025
 7012SOL     OW21651   5.124   0.133   0.892  0.5440  0.4743 -0.0536
 7012SOL    HW121652   5.068   0.078   0.947  0.8800 -0.1799 -0.3570
 7012SOL    HW221653   5.212   0.098   0.905  0.7262  0.7700 -0.4604
 7013SOL     OW21654   5.802   1.700   5.172  0.3400  0.0839 -0.1185
 7013SOL    HW121655   5.881   1.659   5.136 -0.0174 -0.3270 -0.4336
 7013SOL    HW221656   5.801   1.788   5.134  1.1957  0.4656  0.6898
 7014SOL     OW21657   1.753   4.294   2.305 -0.5827 -0.6385 -0.2350
 7014SOL    HW121658   1.676   4.245   2.333  0.7297 -1.3543  2.4485
 7014SOL    HW221659   1.719   4.381   2.284 -2.2000 -1.1108  0.2863
 7015SOL     OW21660   0.349   1.333   3.062  0.3445  0.4554 -0.1102
 7015SOL    HW121661   0.409   1.349   2.990  1.9071 -0.3744  0.9316
 7015SOL    HW221662   0.383   1.253   3.104  1.1513  2.2820  3.0863
 7016SOL     OW21663   2.281   3.305   2.992 -0.3100 -0.7092  0.5776
 7016SOL    HW121664   2.216   3.236   2.984 -1.1792  0.2127 -0.9252
 7016SOL    HW221665   2.232   3.382   3.020  0.2668 -0.1879  0.1911
 7017SOL     OW21666   0.481   0.914   4.325  0.0433 -0.0643  0.2200
 7017SOL    HW121667   0.386   0.917   4.310  0.1275  1.2628 -0.2448
 7017SOL    HW221668   0.491   0.860   4.403 -1.1119 -0.1019  0.3720
 7018SOL     OW21669   6.852   2.001   0.776  0.2029 -0.1892 -0.4815
 7018SOL    HW121670   6.872   2.034   0.688 -0.7351  1.9068  0.0318
 7018SOL    HW221671   6.764   1.964   0.769  0.1311 -0.0286 -0.4336
 7019SOL     OW21672   2.830   0.519   6.644 -0.1378 -0.2582  0.0722
 7019SOL    HW121673   2.871   0.575   6.709  1.3467  0.0508 -1.0729
 7019SOL    HW221674   2.861   0.552   6.560 -1.4502 -1.0688 -0.7756
 7020SOL     OW21675   6.937   4.541   1.264  0.2906 -0.9899  0.1295
 7020SOL    HW121676   6.931   4.635   1.248 -1.0227 -0.6800  2.0280
 7020SOL    HW221677   6.946   4.502   1.177 -0.9166  0.7722 -0.8532
 7021SOL     OW21678   0.984   4.633   6.421  0.3660  0.3513  0.3872
 7021SOL    HW121679   1.038   4.557   6.401  0.1864  0.4754 -0.6402
 7021SOL    HW221680   1.034   4.708   6.389  0.1730  0.5896  0.6316
 7022SOL     OW21681   2.877   1.933   3.761  0.5432 -0.1415  0.2796
 7022SOL    HW121682   2.852   1.846   3.792 -1.3757  0.7337  1.3734
 7022SOL    HW221683   2.898   1.982   3.840 -1.5546  1.2851  0.0337
 7023SOL     OW21684   3.240   4.874   0.468  0.1350  0.4621  0.1260
 7023SOL    HW121685   3.256   4.805   0.532  0.6865 -0.1689 -0.6617
 7023SOL    HW221686   3.308   4.862   0.402 -2.8738 -1.7194 -2.9175
 7024SOL     OW21687   1.459   2.966   1.396 -0.1316  0.2012  0.0358
 7024SOL    HW121688   1.377   3.011   1.418 -0.2877 -0.6303  1.2976
 7024SOL    HW221689   1.446   2.934   1.307 -1.0180  0.4532  0.0668
 7025SOL     OW21690   4.875   1.693   3.581 -0.9778  0.4701  0.2777
 7025SOL    HW121691   4.950   1.636   3.565  0.0517  1.2754  2.0152
 7025SOL    HW221692   4.860   1.737   3.497 -1.9242 -2.3945 -1.1769
 7026SOL     OW21693   6.794   3.726   5.246 -0.2813  0.2567  0.5087
 7026SOL    HW121694   6.839   3.684   5.173  0.2791  1.4119  0.1748
 7026SOL    HW221695   6.701   3.712   5.228 -0.1181 -0.6349  0.2951
 7027SOL     OW21696   6.432   2.643   0.656  0.0345  0.5904 -0.0416
 7027SOL    HW121697   6.417   2.585   0.582 -0.6346  0.5400  0.1287
 7027SOL    HW221698   6.375   2.610   0.725 -0.8114  1.7950 -0.1378
 7028SOL     OW21699   3.425   0.115   1.058 -0.3247  0.0295 -0.4569
 7028SOL    HW121700   3.358   0.047   1.061 -0.1454 -0.2210 -1.6047
 7028SOL    HW221701   3.436   0.142   1.149 -0.3904 -1.4691  0.0173
 7029SOL     OW21702   3.695   2.602   2.723  0.2188  0.1728  0.4607
 7029SOL    HW121703   3.751   2.617   2.799  0.0247 -0.8213  0.8154
 7029SOL    HW221704   3.696   2.507   2.711 -1.1883  0.1624  0.3103
 7030SOL     OW21705   6.275   1.001   5.434 -0.0663 -0.4085  0.2116
 7030SOL    HW121706   6.334   1.039   5.369 -2.3256  1.1759 -1.1003
 7030SOL    HW221707   6.211   0.953   5.382 -0.9288 -0.6006  1.4129
 7031SOL     OW21708   0.757   2.186   5.934 -0.3105  0.0982 -0.4039
 7031SOL    HW121709   0.761   2.144   6.020  1.3783  1.0869  0.0452
 7031SOL    HW221710   0.848   2.209   5.914 -0.9991  2.6090 -1.0580
 7032SOL     OW21711   6.044   1.301   6.028 -0.7390  0.3316 -0.4845
 7032SOL    HW121712   6.102   1.233   5.993 -0.5572  0.1819  0.0939
 7032SOL    HW221713   6.075   1.382   5.988  0.4576  0.3859  0.5039
 7033SOL     OW21714   1.754   2.184   0.186  0.1358 -0.0371  0.8130
 7033SOL    HW121715   1.686   2.219   0.244 -0.4386  1.1678 -0.5196
 7033SOL    HW221716   1.829   2.169   0.243  0.6384  3.9973  1.4413
 7034SOL     OW21717   0.594   1.839   5.537 -0.0118 -0.3165  0.0948
 7034SOL    HW121718   0.639   1.816   5.456 -1.7319 -1.0777 -0.7108
 7034SOL    HW221719   0.615   1.931   5.551  1.4903 -0.5620 -0.4116
 7035SOL     OW21720   0.405   4.920   5.973  0.0083  0.1798  0.3422
 7035SOL    HW121721   0.398   4.998   5.918 -0.6744  0.4325  0.7837
 7035SOL    HW221722   0.340   4.859   5.938 -0.3413  0.2928  0.7862
 7036SOL     OW21723   2.670   5.792   1.568 -0.3571  0.2185  0.0658
 7036SOL    HW121724   2.740   5.809   1.504 -0.5574 -0.2502 -0.2809
 7036SOL    HW221725   2.684   5.858   1.636  0.4060  0.1592 -0.0163
 7037SOL     OW21726   4.819   2.787   2.709  0.0981 -0.0991 -0.2490
 7037SOL    HW121727   4.813   2.708   2.655  1.0714 -0.1284 -0.3331
 7037SOL    HW221728   4.778   2.763   2.792  0.7636 -0.8389 -0.1237
 7038SOL     OW21729   3.160   1.949   5.753  0.5821 -0.6694  0.2173
 7038SOL    HW121730   3.104   1.894   5.808 -0.5884 -0.3520 -0.6215
 7038SOL    HW221731   3.146   2.038   5.787  0.9857 -0.6419  0.3263
 7039SOL     OW21732   4.686   0.215   3.027  0.0498 -0.1310 -0.3013
 7039SOL    HW121733   4.722   0.163   2.955 -0.9345 -0.3884 -0.6179
 7039SOL    HW221734   4.757   0.220   3.091  0.3402 -1.4157 -0.5007
 7040SOL     OW21735   2.683   2.478   1.808 -0.5977 -0.5169  0.5250
 7040SOL    HW121736   2.766   2.474   1.855 -0.3855 -0.2239  0.1810
 7040SOL    HW221737   2.620   2.513   1.872 -0.5644 -1.1945  0.9294
 7041SOL     OW21738   5.121   6.201   2.969 -0.2460  0.4134  0.0566
 7041SOL    HW121739   5.045   6.215   3.025  0.4494  0.1783  1.0951
 7041SOL    HW221740   5.096   6.238   2.884 -0.6571  2.4852  1.0121
 7042SOL     OW21741   3.052   4.797   1.316 -0.0972  0.6282  0.6186
 7042SOL    HW121742   3.142   4.826   1.332  0.3000 -1.0203  1.7226
 7042SOL    HW221743   3.042   4.801   1.221  2.2305 -1.9499  0.1175
 7043SOL     OW21744   1.666   5.205   4.098 -0.0439 -0.0605  0.6580
 7043SOL    HW121745   1.730   5.147   4.057  0.3197 -0.1017  1.2804
 7043SOL    HW221746   1.592   5.205   4.038  0.4180 -0.2498  0.0802
 7044SOL     OW21747   3.450   0.981   5.257  0.1205  0.1527  0.1005
 7044SOL    HW121748   3.512   0.971   5.184  0.9393  0.9287  0.6629
 7044SOL    HW221749   3.488   0.927   5.327  0.1254  0.5763  0.4260
 7045SOL     OW21750   5.356   0.418   3.149  0.3082 -0.0182 -0.9826
 7045SOL    HW121751   5.441   0.457   3.131  0.6889 -0.9359 -1.2139
 7045SOL    HW221752   5.296   0.493   3.155  1.4760  0.8336  1.3254
 7046SOL     OW21753   6.238   7.153   3.788 -0.3551 -0.4198 -0.7315
 7046SOL    HW121754   6.159   7.195   3.752  0.8031  1.6330 -1.0343
 7046SOL    HW221755   6.243   7.185   3.878  0.3809 -0.1494 -0.8654
 7047SOL     OW21756   2.686   6.651   2.226 -0.2832  0.1268 -0.2972
 7047SOL    HW121757   2.755   6.717   2.240  0.6988 -1.1845  1.4631
 7047SOL    HW221758   2.641   6.645   2.310 -0.0563 -1.7437 -0.2727
 7048SOL     OW21759   4.840   2.655   4.457  0.2155  0.6374  0.5752
 7048SOL    HW121760   4.775   2.636   4.389 -0.2563 -1.1862  1.4804
 7048SOL    HW221761   4.789   2.667   4.537  0.8971  0.7650  0.9987
 7049SOL     OW21762   0.753   4.063   1.272 -0.0953 -0.3123  0.0528
 7049SOL    HW121763   0.753   4.118   1.194  3.0012  0.2293  0.2861
 7049SOL    HW221764   0.767   4.124   1.345 -2.6295 -0.8405  1.0955
 7050SOL     OW21765   6.741   5.703   1.181  0.0592  0.5660 -0.4266
 7050SOL    HW121766   6.793   5.734   1.255 -0.9637  0.2370  0.4632
 7050SOL    HW221767   6.666   5.658   1.221 -0.3645  0.1074 -1.6636
 7051SOL     OW21768   0.890   5.567   4.268 -0.2335 -0.3699 -0.0355
 7051SOL    HW121769   0.965   5.543   4.323 -0.4869 -0.6709  0.1888
 7051SOL    HW221770   0.827   5.496   4.283 -1.2022  0.6633  1.0083
 7052SOL     OW21771   7.213   5.572   1.246 -0.7670  0.4958  0.1162
 7052SOL    HW121772   7.193   5.482   1.219  0.8650 -0.4135  1.6940
 7052SOL    HW221773   7.155   5.589   1.319  1.4437 -0.8110  2.3487
 7053SOL     OW21774   1.350   6.875   4.609  0.1458 -1.0310  0.1456
 7053SOL    HW121775   1.306   6.790   4.613  0.9983 -1.4893  0.0182
 7053SOL    HW221776   1.406   6.869   4.531  1.6082 -1.0645  1.1595
 7054SOL     OW21777   5.465   6.221   0.427 -0.1409  0.5373 -0.0690
 7054SOL    HW121778   5.430   6.146   0.475  1.8913  0.8929  2.1288
 7054SOL    HW221779   5.399   6.289   0.438 -0.6438 -0.0217  0.4497
 7055SOL     OW21780   4.803   2.246   2.476  0.3344  0.6805  0.4219
 7055SOL    HW121781   4.896   2.263   2.463  0.2777 -0.0293 -1.1395
 7055SOL    HW221782   4.762   2.267   2.392 -0.2810 -2.9221 -0.3688
 7056SOL     OW21783   2.577   3.541   3.748 -0.1334  1.0156 -0.4027
 7056SOL    HW121784   2.516   3.467   3.751 -1.7597  2.3138 -0.0356
 7056SOL    HW221785   2.565   3.578   3.660  1.2610  0.4099 -0.8754
 7057SOL     OW21786   3.862   6.735   1.807 -0.1114  0.2119 -0.2320
 7057SOL    HW121787   3.909   6.790   1.745  1.1557  0.5908  1.0143
 7057SOL    HW221788   3.926   6.668   1.833 -0.5344  0.1989  0.8292
 7058SOL     OW21789   2.649   1.008   3.947 -0.2791 -0.0590 -0.0875
 7058SOL    HW121790   2.567   1.054   3.930  0.4050 -0.0527 -4.2854
 7058SOL    HW221791   2.694   1.062   4.012 -2.4405  1.2865  0.3976
 7059SOL     OW21792   3.663   4.859   6.467 -0.4810  0.2314  0.3765
 7059SOL    HW121793   3.633   4.821   6.384  0.6612  1.0479 -0.4532
 7059SOL    HW221794   3.730   4.922   6.441 -0.9887  1.4473  1.8343
 7060SOL     OW21795   0.913   4.960   2.697  0.0855  0.0377 -0.4076
 7060SOL    HW121796   0.925   5.040   2.645 -0.5486  0.0610 -0.5321
 7060SOL    HW221797   0.998   4.916   2.694  0.2808  0.4312 -0.8064
 7061SOL     OW21798   4.935   6.180   5.223  0.2444 -0.5067 -0.1541
 7061SOL    HW121799   4.952   6.179   5.129  0.9111 -2.3011 -0.0577
 7061SOL    HW221800   5.022   6.176   5.264 -0.0750 -0.8813  0.5115
 7062SOL     OW21801   2.362   4.196   4.610  0.9533 -0.2640  0.3603
 7062SOL    HW121802   2.339   4.146   4.688  1.8059  2.3822  2.4684
 7062SOL    HW221803   2.350   4.135   4.538 -3.0606 -1.9610  2.1538
 7063SOL     OW21804   0.707   0.665   5.394  0.6354  0.3530 -0.4006
 7063SOL    HW121805   0.709   0.641   5.301  2.3287  0.0038 -0.2995
 7063SOL    HW221806   0.697   0.760   5.394 -0.8346  0.2266 -0.8919
 7064SOL     OW21807   5.895   0.216   0.392 -0.0731  0.1772 -0.3609
 7064SOL    HW121808   5.843   0.258   0.324  0.7860 -0.9264 -1.7497
 7064SOL    HW221809   5.980   0.261   0.389  0.5857 -1.0715 -1.3214
 7065SOL     OW21810   4.854   5.052   2.880 -0.0726  0.1985 -0.4648
 7065SOL    HW121811   4.838   5.145   2.865  2.6852  0.8310 -0.0654
 7065SOL    HW221812   4.820   5.035   2.968  0.5744  1.1976  0.0025
 7066SOL     OW21813   1.631   1.502   2.021  0.1051  0.3447  0.2654
 7066SOL    HW121814   1.588   1.585   2.042  0.2889  0.3629  0.5803
 7066SOL    HW221815   1.722   1.527   2.004  0.3300  0.1146  1.0930
 7067SOL     OW21816   6.609   2.872   7.109 -0.2366  0.5173  0.3492
 7067SOL    HW121817   6.597   2.849   7.202 -2.0523  0.1464  0.0632
 7067SOL    HW221818   6.602   2.967   7.107  0.6330  0.5960  0.6870
 7068SOL     OW21819   4.851   4.269   3.195 -0.1010  0.1067  0.8360
 7068SOL    HW121820   4.900   4.349   3.176 -0.9657  0.0106 -2.3930
 7068SOL    HW221821   4.912   4.198   3.177 -0.2397  0.0114  0.7407
 7069SOL     OW21822   2.519   3.823   1.371  0.4406  0.2865 -0.3305
 7069SOL    HW121823   2.532   3.913   1.399  0.1031  0.8174 -1.7886
 7069SOL    HW221824   2.592   3.805   1.312  0.4756 -0.3786 -0.0973
 7070SOL     OW21825   0.190   0.478   1.276 -0.2903 -0.3677  0.8729
 7070SOL    HW121826   0.246   0.555   1.267  1.0144 -1.3309  0.5034
 7070SOL    HW221827   0.201   0.452   1.368 -2.5485  1.1943  1.6632
 7071SOL     OW21828   4.293   4.865   3.162  0.7398 -0.3318  0.2931
 7071SOL    HW121829   4.290   4.797   3.230 -0.0506 -0.3835  0.2147
 7071SOL    HW221830   4.208   4.908   3.167  0.9017  0.0656 -0.2595
 7072SOL     OW21831   2.403   3.003   6.044  0.1504  0.1424 -0.2193
 7072SOL    HW121832   2.474   3.029   6.102 -0.3028 -2.3840  1.6338
 7072SOL    HW221833   2.325   3.044   6.081 -0.1025 -1.2819  0.8897
 7073SOL     OW21834   6.953   1.517   0.295 -0.2319  0.2183  0.0705
 7073SOL    HW121835   6.921   1.555   0.377 -0.7646  0.5103 -0.2653
 7073SOL    HW221836   6.993   1.435   0.321 -1.8528 -0.5019  0.4559
 7074SOL     OW21837   0.412   4.806   6.731  0.6731  0.2280 -0.2707
 7074SOL    HW121838   0.361   4.886   6.742  0.4869  0.0022  0.5548
 7074SOL    HW221839   0.351   4.735   6.752  0.4302 -0.2436 -2.2818
 7075SOL     OW21840   6.513   4.914   0.772  0.2965  0.0171  0.0034
 7075SOL    HW121841   6.466   4.981   0.724  1.5482  1.3400  0.5504
 7075SOL    HW221842   6.488   4.927   0.864 -0.3786 -1.0652 -0.0064
 7076SOL     OW21843   4.304   5.479   3.630 -0.1826  0.5442 -0.7901
 7076SOL    HW121844   4.267   5.417   3.692  0.6540  0.8316  0.0291
 7076SOL    HW221845   4.259   5.562   3.648  0.6210  0.8203 -0.0033
 7077SOL     OW21846   4.668   1.239   5.940 -0.0933  0.7228  0.3173
 7077SOL    HW121847   4.694   1.184   5.866  1.2361  0.2468  1.1028
 7077SOL    HW221848   4.631   1.317   5.900 -2.8718 -1.0308 -0.8463
 7078SOL     OW21849   5.108   2.602   1.286 -0.0622  0.1984  0.2116
 7078SOL    HW121850   5.108   2.512   1.317 -0.6870 -0.4037 -1.4298
 7078SOL    HW221851   5.181   2.606   1.223  1.9312  1.6960  2.4365
 7079SOL     OW21852   5.224   3.453   1.053  0.4653  0.1800  0.5622
 7079SOL    HW121853   5.167   3.529   1.066  2.0477  1.2364  1.7781
 7079SOL    HW221854   5.265   3.469   0.968  0.3126  0.3541  0.5194
 7080SOL     OW21855   3.779   1.428   1.231  0.8466  0.1474 -0.1126
 7080SOL    HW121856   3.726   1.507   1.227  0.9437  0.1791 -1.0918
 7080SOL    HW221857   3.776   1.401   1.323  0.5651  1.1126  0.1705
 7081SOL     OW21858   1.645   1.507   3.760 -0.1654  0.0591 -0.3680
 7081SOL    HW121859   1.686   1.551   3.686  0.4780 -0.5636 -0.3938
 7081SOL    HW221860   1.702   1.528   3.834  0.0393 -0.5693 -0.3460
 7082SOL     OW21861   1.355   0.707   1.975  0.2879  0.0176  0.0318
 7082SOL    HW121862   1.382   0.797   1.960 -1.0853  0.3562 -0.5580
 7082SOL    HW221863   1.369   0.693   2.069 -0.4096  1.1844  0.3327
 7083SOL     OW21864   3.949   0.319   2.380  0.1779 -0.1770  0.0680
 7083SOL    HW121865   3.976   0.236   2.420  0.6736 -0.4217 -0.7553
 7083SOL    HW221866   3.928   0.297   2.290  0.8407  0.6852 -0.3138
 7084SOL     OW21867   6.376   3.535   5.650 -0.4494 -0.3758 -0.0291
 7084SOL    HW121868   6.315   3.467   5.679  0.3121 -0.8364  0.5138
 7084SOL    HW221869   6.446   3.487   5.605 -0.0847  0.0849  0.0459
 7085SOL     OW21870   7.227   6.517   7.196 -0.0107  0.3087 -0.2677
 7085SOL    HW121871   7.163   6.531   7.266 -0.9773  1.1691 -1.2757
 7085SOL    HW221872   7.178   6.535   7.116  1.5201  1.0557 -1.0734
 7086SOL     OW21873   5.763   2.618   3.506  0.7312  0.2345 -0.3241
 7086SOL    HW121874   5.692   2.662   3.553  0.8267 -2.0119  2.1633
 7086SOL    HW221875   5.830   2.601   3.573  2.1768 -0.6113 -1.8914
 7087SOL     OW21876   5.128   1.989   3.159  0.4014 -0.7237  0.0570
 7087SOL    HW121877   5.082   1.931   3.098 -1.0683 -0.6283  1.0260
 7087SOL    HW221878   5.211   1.945   3.176 -0.3129 -2.1077  0.0876
 7088SOL     OW21879   7.036   2.758   2.306 -0.4012 -0.2822  0.2709
 7088SOL    HW121880   7.087   2.835   2.331  0.3480 -0.2138 -1.3390
 7088SOL    HW221881   6.983   2.787   2.232 -0.1467 -1.2834 -0.3270
 7089SOL     OW21882   4.087   4.352   2.618 -0.5018  0.2366 -0.2804
 7089SOL    HW121883   4.090   4.380   2.709  0.3740 -0.4365 -0.0823
 7089SOL    HW221884   4.094   4.433   2.567 -0.1090  0.5468  0.2603
 7090SOL     OW21885   4.283   2.053   0.195 -0.1323 -0.3418 -0.3587
 7090SOL    HW121886   4.299   1.960   0.209 -0.6344 -0.5284 -0.9569
 7090SOL    HW221887   4.339   2.075   0.120  0.9640  0.1546  0.5657
 7091SOL     OW21888   7.140   1.083   6.040 -0.2950 -0.3040  0.6128
 7091SOL    HW121889   7.115   1.004   6.089 -2.0731 -0.2145 -0.0795
 7091SOL    HW221890   7.073   1.091   5.972 -0.6671  2.2748  1.1808
 7092SOL     OW21891   4.823   5.857   1.366 -0.4238 -0.1731 -0.2597
 7092SOL    HW121892   4.903   5.870   1.417  0.5143  0.7961 -1.8739
 7092SOL    HW221893   4.810   5.762   1.365  1.9211 -0.5886 -1.6164
 7093SOL     OW21894   6.292   5.841   6.800  0.0762  0.3474  0.8236
 7093SOL    HW121895   6.381   5.807   6.808  0.1665  0.2907 -0.2357
 7093SOL    HW221896   6.301   5.936   6.809  0.3472  0.4027  0.0327
 7094SOL     OW21897   2.274   2.977   2.736  0.1068 -0.0593  0.1991
 7094SOL    HW121898   2.285   2.920   2.660  1.6208 -0.1606  0.4617
 7094SOL    HW221899   2.219   3.049   2.705  1.4920  0.4111 -1.3083
 7095SOL     OW21900   1.649   0.725   6.715 -0.4239  0.0898 -0.4940
 7095SOL    HW121901   1.686   0.643   6.746  2.1704  1.1786 -0.3958
 7095SOL    HW221902   1.656   0.721   6.620 -0.8874 -0.0451 -0.5246
 7096SOL     OW21903   1.013   2.671   1.558 -0.4480 -0.0994 -0.2079
 7096SOL    HW121904   0.952   2.635   1.494  0.5963 -0.2127 -1.1951
 7096SOL    HW221905   1.090   2.614   1.551 -0.7429 -0.8332  2.0249
 7097SOL     OW21906   2.461   4.767   7.234 -0.1330 -0.4071  0.2116
 7097SOL    HW121907   2.473   4.826   7.160  0.2988 -0.3165  0.3497
 7097SOL    HW221908   2.384   4.800   7.279 -0.3891 -0.4565 -0.1924
 7098SOL     OW21909   0.549   6.260   5.407  0.2116 -0.3639  0.0160
 7098SOL    HW121910   0.596   6.330   5.452  1.0825 -1.2535  0.5226
 7098SOL    HW221911   0.488   6.306   5.349 -0.2966  0.8189  1.4144
 7099SOL     OW21912   4.222   5.799   4.672  0.2337 -0.6387 -0.4718
 7099SOL    HW121913   4.269   5.824   4.593  2.8698 -1.0118  0.8477
 7099SOL    HW221914   4.285   5.745   4.721 -0.3162  1.4803  2.9340
 7100SOL     OW21915   0.634   2.377   1.185  0.0238  0.4521  0.1444
 7100SOL    HW121916   0.581   2.416   1.254 -3.0543 -0.3062 -1.6104
 7100SOL    HW221917   0.666   2.295   1.222  1.5779  1.7246  1.8200
 7101SOL     OW21918   6.997   2.027   7.048  0.6454 -0.0319  0.1275
 7101SOL    HW121919   7.006   1.932   7.045  3.0291  0.1798 -1.0357
 7101SOL    HW221920   7.003   2.055   6.957 -4.5036  1.0449 -0.2048
 7102SOL     OW21921   6.452   2.709   5.339 -0.0631 -0.1615 -0.0570
 7102SOL    HW121922   6.475   2.670   5.255 -1.4904 -1.4476  0.1138
 7102SOL    HW221923   6.467   2.803   5.327 -1.1777 -0.2030 -2.0608
 7103SOL     OW21924   3.557   1.658   5.316 -0.4876 -0.0960 -0.4636
 7103SOL    HW121925   3.572   1.653   5.410  1.4964 -0.0536 -0.7411
 7103SOL    HW221926   3.583   1.573   5.282 -0.8872 -0.0051 -1.0268
 7104SOL     OW21927   5.792   7.228   0.437 -0.2754  0.2551 -0.2791
 7104SOL    HW121928   5.752   7.233   0.350  2.2042 -0.3430 -1.5457
 7104SOL    HW221929   5.848   7.305   0.442 -0.2680  0.1971  0.7510
 7105SOL     OW21930   7.072   2.099   6.073  0.0537  0.4079  0.4598
 7105SOL    HW121931   7.098   2.024   6.019 -2.6158 -0.2638 -0.0279
 7105SOL    HW221932   7.077   2.174   6.013 -1.0264 -0.0295 -0.2061
 7106SOL     OW21933   0.638   4.235   4.596 -0.2828 -0.0815  0.7817
 7106SOL    HW121934   0.688   4.276   4.526 -0.9077  0.5561  0.7046
 7106SOL    HW221935   0.602   4.308   4.646 -2.3345 -0.4842 -0.0092
 7107SOL     OW21936   4.237   5.374   6.056  0.2004  0.1738 -0.2366
 7107SOL    HW121937   4.190   5.363   6.138  1.2769  1.8593  0.6607
 7107SOL    HW221938   4.328   5.356   6.078  0.3905 -0.2997 -1.3101
 7108SOL     OW21939   4.673   5.072   1.548  0.1146 -0.0929 -0.4079
 7108SOL    HW121940   4.681   4.981   1.578  0.7448 -0.1740 -0.8008
 7108SOL    HW221941   4.717   5.124   1.616 -1.4520  0.0745  0.5264
 7109SOL     OW21942   1.345   4.876   4.645  0.0155 -0.1458  0.5660
 7109SOL    HW121943   1.380   4.891   4.732  0.0205 -3.8369  1.3483
 7109SOL    HW221944   1.420   4.847   4.593 -0.3333  0.2451 -0.1835
 7110SOL     OW21945   0.989   3.651   6.687  0.1569  0.0393  0.3390
 7110SOL    HW121946   0.980   3.580   6.624  0.0780  1.2717 -1.0831
 7110SOL    HW221947   1.015   3.726   6.635  0.9897  0.8910  1.9178
 7111SOL     OW21948   3.444   4.599   7.188  0.2998 -0.0367 -0.1567
 7111SOL    HW121949   3.524   4.548   7.200 -0.4512 -1.9997 -2.5474
 7111SOL    HW221950   3.389   4.545   7.131 -2.8940  1.0744  1.5792
 7112SOL     OW21951   2.411   6.004   5.011 -0.1334 -0.2792 -0.2303
 7112SOL    HW121952   2.449   6.002   5.098 -0.3729  1.4163 -0.0507
 7112SOL    HW221953   2.484   5.984   4.952  0.2643 -0.3482  0.2840
 7113SOL     OW21954   1.541   3.187   7.222 -0.4549  0.1945 -0.4754
 7113SOL    HW121955   1.524   3.101   7.261 -0.6514  0.7274  0.6765
 7113SOL    HW221956   1.457   3.233   7.230  0.3659  1.4756  1.6053
 7114SOL     OW21957   3.075   6.551   0.044  0.1764  1.1292 -0.1736
 7114SOL    HW121958   3.134   6.487   0.005  1.2313  1.8637  0.1906
 7114SOL    HW221959   3.005   6.562  -0.021  1.6858  2.0351 -1.7113
 7115SOL     OW21960   0.169   6.967   5.762  0.2488  0.3485  0.6985
 7115SOL    HW121961   0.076   6.989   5.768  0.3892  1.9032 -1.5238
 7115SOL    HW221962   0.197   6.953   5.852 -1.9526  0.6275  1.4797
 7116SOL     OW21963   5.043   0.199   4.942 -0.0410  0.2244 -0.3365
 7116SOL    HW121964   5.061   0.211   5.035  0.6378 -2.2660 -0.0566
 7116SOL    HW221965   5.062   0.283   4.902 -0.3015  1.3470  1.7537
 7117SOL     OW21966   5.849   7.181   1.743  0.3233 -0.0955 -0.2596
 7117SOL    HW121967   5.859   7.275   1.757 -0.7702 -0.1957  1.5135
 7117SOL    HW221968   5.843   7.171   1.648  0.1575  1.6440 -0.4618
 7118SOL     OW21969   0.654   5.461   2.409  0.0894  0.6642 -0.0168
 7118SOL    HW121970   0.734   5.415   2.384 -1.4790 -1.3642 -1.6210
 7118SOL    HW221971   0.650   5.536   2.350  0.1789  0.0554 -0.8079
 7119SOL     OW21972   2.460   2.132   1.871 -0.1850  0.6574  0.2263
 7119SOL    HW121973   2.404   2.077   1.927 -0.2533  0.9046  0.4046
 7119SOL    HW221974   2.398   2.180   1.816 -0.0922 -1.7419 -2.2038
 7120SOL     OW21975   1.874   3.005   4.158  0.0760 -0.2797 -0.0534
 7120SOL    HW121976   1.908   3.094   4.147  1.8571 -1.1974 -2.8437
 7120SOL    HW221977   1.787   3.008   4.118 -1.8588  1.1131  3.7103
 7121SOL     OW21978   2.675   5.026   1.803 -0.6985 -0.3478  0.8019
 7121SOL    HW121979   2.740   4.959   1.777 -0.5950 -0.1407  0.5145
 7121SOL    HW221980   2.727   5.106   1.812 -1.0375  0.0229 -0.3073
 7122SOL     OW21981   4.158   2.670   5.443  0.1359  0.7422  0.0395
 7122SOL    HW121982   4.090   2.628   5.390 -0.7003  1.9418  0.1137
 7122SOL    HW221983   4.110   2.732   5.499  1.2016  0.9329  0.7836
 7123SOL     OW21984   1.735   1.708   1.307 -0.5457  0.4681 -0.0574
 7123SOL    HW121985   1.795   1.688   1.236  0.8695  0.4992  1.0800
 7123SOL    HW221986   1.706   1.797   1.290 -0.7396  0.2449 -0.9378
 7124SOL     OW21987   2.694   4.310   5.978 -0.4031 -0.2158  0.4197
 7124SOL    HW121988   2.709   4.372   6.049 -0.8700 -0.3707  0.6536
 7124SOL    HW221989   2.776   4.260   5.971  0.2382  0.8782 -0.2284
 7125SOL     OW21990   1.051   2.381   1.146  0.6047 -0.7866  0.0135
 7125SOL    HW121991   1.088   2.462   1.182  2.2222 -1.1100 -0.7889
 7125SOL    HW221992   1.081   2.380   1.055 -1.7106 -0.9570 -0.8113
 7126SOL     OW21993   6.673   1.488   3.540  0.1551 -0.4643  0.0013
 7126SOL    HW121994   6.600   1.468   3.482 -0.6714 -1.9296  1.4288
 7126SOL    HW221995   6.633   1.531   3.616  1.0573  0.4732 -0.0274
 7127SOL     OW21996   2.265   6.802   4.319  0.3706  0.6664  0.2459
 7127SOL    HW121997   2.291   6.886   4.356  1.0197  0.7994 -0.4844
 7127SOL    HW221998   2.301   6.736   4.379  0.5080  0.8929  0.4118
 7128SOL     OW21999   6.663   0.331   1.057 -0.5048 -0.1892  0.3828
 7128SOL    HW122000   6.743   0.343   1.109 -0.3826  0.0425  0.1449
 7128SOL    HW222001   6.594   0.319   1.122 -0.5034  1.0245  0.6289
 7129SOL     OW22002   0.032   3.044   6.217 -0.4329 -0.3635 -0.2095
 7129SOL    HW122003   0.010   3.104   6.145  1.2083 -1.4828 -1.7096
 7129SOL    HW222004  -0.023   2.967   6.201 -0.4918 -0.3886  0.1031
 7130SOL     OW22005   1.804   5.521   0.931 -0.1727 -0.0824  0.1003
 7130SOL    HW122006   1.872   5.456   0.918  1.4680  1.5124  0.2311
 7130SOL    HW222007   1.832   5.570   1.009  0.2430  2.5812 -1.5974
 7131SOL     OW22008   4.069   3.951   0.243 -0.0912 -0.1442 -0.3210
 7131SOL    HW122009   4.103   4.037   0.266 -1.7042  0.6548 -0.7691
 7131SOL    HW222010   4.039   3.961   0.153  0.6080 -1.4814 -0.7269
 7132SOL     OW22011   3.682   6.261   3.688  0.0534  0.3042  0.1172
 7132SOL    HW122012   3.734   6.338   3.663 -0.0931  0.7684  1.2046
 7132SOL    HW222013   3.746   6.199   3.723 -0.0211  0.5729  0.7396
 7133SOL     OW22014   6.325   4.320   5.240  0.0395 -0.5637  0.0252
 7133SOL    HW122015   6.415   4.350   5.252  0.2051 -1.5238  1.4188
 7133SOL    HW222016   6.275   4.400   5.223  1.2211 -0.0746 -1.4094
 7134SOL     OW22017   4.427   0.617   2.638 -0.4864 -0.6256  0.0434
 7134SOL    HW122018   4.494   0.624   2.706 -1.3800  0.9419  0.8429
 7134SOL    HW222019   4.474   0.633   2.556  0.3206 -0.8199  0.4591
 7135SOL     OW22020   0.054   7.111   4.980  0.0024 -0.4344  0.3019
 7135SOL    HW122021   0.057   7.168   4.903 -0.9399  0.6562  1.0310
 7135SOL    HW222022  -0.033   7.071   4.976 -1.1514  1.6234  2.0925
 7136SOL     OW22023   5.303   6.859   3.823  0.1239 -0.2332  0.0473
 7136SOL    HW122024   5.398   6.870   3.820  0.1930 -0.6706  0.5352
 7136SOL    HW222025   5.285   6.830   3.913 -0.6658  1.6672  0.5730
 7137SOL     OW22026   3.411   4.896   0.257  0.2596 -0.7005 -0.4843
 7137SOL    HW122027   3.389   4.807   0.230  0.0131 -0.0843 -2.5011
 7137SOL    HW222028   3.397   4.949   0.178  1.7692  0.9079  0.2669
 7138SOL     OW22029   6.035   2.871   3.740 -0.0170  0.4302 -0.1216
 7138SOL    HW122030   6.119   2.910   3.763  0.2205  0.1197 -0.4651
 7138SOL    HW222031   5.972   2.913   3.800  0.5335 -0.0767  0.8238
 7139SOL     OW22032   0.362   4.962   0.456 -0.4160  0.0378  0.3904
 7139SOL    HW122033   0.356   4.987   0.548 -0.6440  0.1770  0.3397
 7139SOL    HW222034   0.271   4.948   0.430 -0.4207  0.8563 -0.0524
 7140SOL     OW22035   0.812   5.151   2.356  0.4670  0.0725 -0.8051
 7140SOL    HW122036   0.770   5.207   2.291 -1.2252 -0.2265 -0.0333
 7140SOL    HW222037   0.818   5.065   2.313 -1.2634 -0.2953 -0.3861
 7141SOL     OW22038   2.518   0.947   4.429  0.2687  0.0494 -0.4713
 7141SOL    HW122039   2.503   0.880   4.363  2.4202 -1.5566  0.5453
 7141SOL    HW222040   2.435   0.953   4.476 -0.6898 -0.1410 -2.0776
 7142SOL     OW22041   4.878   4.124   3.938  0.2827  0.1532  0.0022
 7142SOL    HW122042   4.794   4.125   3.892 -2.3718 -0.4409  4.3533
 7142SOL    HW222043   4.878   4.043   3.988  1.0860  2.2404  3.7949
 7143SOL     OW22044   2.481   3.744   1.901 -0.0319 -0.2169 -0.0740
 7143SOL    HW122045   2.569   3.750   1.937  1.0938  1.2111 -2.7342
 7143SOL    HW222046   2.482   3.664   1.849  0.4941  0.8511 -1.8070
 7144SOL     OW22047   1.859   0.463   1.162 -0.2047 -0.3670  0.1574
 7144SOL    HW122048   1.931   0.465   1.225  0.3085 -2.0946 -0.3198
 7144SOL    HW222049   1.823   0.552   1.164  0.0630 -0.2492  2.5577
 7145SOL     OW22050   5.190   4.776   4.293  0.2834  0.2954 -0.1026
 7145SOL    HW122051   5.102   4.740   4.281  0.3191 -0.2836  1.1447
 7145SOL    HW222052   5.245   4.727   4.232 -0.0856 -0.1310 -0.1003
 7146SOL     OW22053   4.240   3.873   2.529 -0.1239  0.1521 -0.5789
 7146SOL    HW122054   4.228   3.780   2.549  1.0213  0.2845  0.8289
 7146SOL    HW222055   4.294   3.907   2.600 -1.6286  2.2166 -0.3073
 7147SOL     OW22056   5.265   4.411   6.587 -0.3575 -0.3861  0.0190
 7147SOL    HW122057   5.302   4.406   6.499  1.6733  1.5467  0.6579
 7147SOL    HW222058   5.283   4.325   6.626  0.7409 -0.5105 -0.7292
 7148SOL     OW22059   0.522   6.947   6.753 -0.7249 -0.3274 -0.3285
 7148SOL    HW122060   0.585   6.996   6.701 -1.6509  1.8439  0.4539
 7148SOL    HW222061   0.528   6.986   6.841 -1.1455 -1.9992  0.4785
 7149SOL     OW22062   6.484   0.433   7.019  0.1550 -0.1245 -0.3383
 7149SOL    HW122063   6.561   0.381   6.997 -0.3246 -0.2384 -1.8615
 7149SOL    HW222064   6.515   0.523   7.018  1.2278 -0.2595  3.2576
 7150SOL     OW22065   0.033   3.710   7.141 -1.0532  0.4767 -0.0773
 7150SOL    HW122066   0.008   3.731   7.051  0.1386  0.9333 -0.3299
 7150SOL    HW222067  -0.007   3.625   7.158  0.6830 -0.8147 -1.9457
 7151SOL     OW22068   2.575   3.077   1.237  0.2032  0.4399 -0.2241
 7151SOL    HW122069   2.504   3.013   1.249  1.5900 -0.9834  0.9978
 7151SOL    HW222070   2.535   3.161   1.255 -1.0454 -0.3887  1.0898
 7152SOL     OW22071   1.355   2.767   2.428  0.3724  0.2042 -0.6758
 7152SOL    HW122072   1.328   2.817   2.505 -0.7921  0.3356 -1.1488
 7152SOL    HW222073   1.276   2.721   2.400  1.1895 -1.1459 -0.8238
 7153SOL     OW22074   4.218   4.142   0.547  0.3588 -0.1516  0.1613
 7153SOL    HW122075   4.290   4.194   0.511 -0.1084  0.3741 -0.0133
 7153SOL    HW222076   4.162   4.205   0.591 -0.0515 -0.5525  0.2246
 7154SOL     OW22077   3.752   0.648   0.833  0.9213  0.4690 -0.0127
 7154SOL    HW122078   3.750   0.556   0.860  2.6954  0.6629  0.9055
 7154SOL    HW222079   3.721   0.647   0.743  0.1654 -0.9100  0.2219
 7155SOL     OW22080   0.813   7.001   3.495  0.0626  0.1309 -0.2488
 7155SOL    HW122081   0.864   6.960   3.425 -1.2320  0.4297 -1.3866
 7155SOL    HW222082   0.738   6.943   3.508 -0.7069  1.0659 -0.4423
 7156SOL     OW22083   6.744   1.440   4.958 -0.0054 -0.1773  0.3610
 7156SOL    HW122084   6.704   1.360   4.993 -0.4416  0.3216  1.0430
 7156SOL    HW222085   6.697   1.511   5.003  1.2021  0.4415  0.6849
 7157SOL     OW22086   6.471   7.028   4.324 -0.2366  0.1290  0.2049
 7157SOL    HW122087   6.541   6.994   4.268 -0.7473 -0.3035 -0.1829
 7157SOL    HW222088   6.516   7.059   4.402  0.3292 -0.7453  0.2438
 7158SOL     OW22089   6.517   1.750   2.822 -0.1485  0.0390  0.0350
 7158SOL    HW122090   6.522   1.654   2.822  0.6738  0.0657 -0.6081
 7158SOL    HW222091   6.460   1.771   2.748 -0.0819  0.0531 -0.0122
 7159SOL     OW22092   6.907   0.875   2.559  0.3832 -0.1404  0.3613
 7159SOL    HW122093   6.845   0.848   2.491 -0.4925 -0.0729  1.1173
 7159SOL    HW222094   6.928   0.966   2.537 -0.5447  0.1583  0.6258
 7160SOL     OW22095   3.005   2.739   5.514 -0.6699  0.2733  0.3373
 7160SOL    HW122096   3.023   2.796   5.440 -2.1125  1.2949  0.7428
 7160SOL    HW222097   3.058   2.774   5.586 -0.3664  0.1517  0.1720
 7161SOL     OW22098   6.876   6.166   5.873  0.0552  0.3066  0.3209
 7161SOL    HW122099   6.785   6.179   5.846  0.1877 -1.6815 -1.3663
 7161SOL    HW222100   6.925   6.233   5.826 -0.3905  0.4816  0.1030
 7162SOL     OW22101   2.622   6.219   4.186  0.2062 -0.1364 -0.0803
 7162SOL    HW122102   2.655   6.307   4.200  1.0895 -0.2915 -1.1260
 7162SOL    HW222103   2.654   6.194   4.100 -2.4951 -0.3677 -1.1276
 7163SOL     OW22104   3.314   2.518   4.013  0.2107 -0.5070  0.2699
 7163SOL    HW122105   3.357   2.511   4.098 -0.0108 -0.5557  0.3775
 7163SOL    HW222106   3.250   2.447   4.012 -0.4846  0.0965  0.4661
 7164SOL     OW22107   4.646   6.412   5.916  0.6203  0.0190  0.1552
 7164SOL    HW122108   4.577   6.411   5.982  0.1632 -2.6730 -0.2402
 7164SOL    HW222109   4.607   6.457   5.841 -0.0791  0.0597  0.5351
 7165SOL     OW22110   0.310   6.455   6.421 -0.2364  0.4842  0.1789
 7165SOL    HW122111   0.311   6.473   6.515  2.4399  1.1167  0.1230
 7165SOL    HW222112   0.336   6.363   6.414 -0.8536  0.3162  0.0619
 7166SOL     OW22113   3.802   2.017   5.917  0.0110 -0.3086 -0.2074
 7166SOL    HW122114   3.840   1.966   5.989  1.1206  0.6922 -0.0530
 7166SOL    HW222115   3.712   1.987   5.911 -0.0642 -0.4985  1.5207
 7167SOL     OW22116   2.816   3.578   4.383 -0.0716 -0.5287 -0.4218
 7167SOL    HW122117   2.807   3.670   4.410 -2.4935 -0.7394 -0.2592
 7167SOL    HW222118   2.762   3.571   4.305 -0.2880 -1.9153 -0.1660
 7168SOL     OW22119   5.361   0.978   4.894  0.2926 -1.0056 -0.2841
 7168SOL    HW122120   5.280   1.019   4.925  0.5363 -0.7190 -0.0122
 7168SOL    HW222121   5.359   0.989   4.799 -0.6217 -2.1774 -0.4260
 7169SOL     OW22122   2.105   4.149   6.258  0.2369 -0.2966  0.9026
 7169SOL    HW122123   2.193   4.125   6.232  0.5069  1.8338 -0.3789
 7169SOL    HW222124   2.072   4.202   6.186 -1.8540 -0.4417  1.6629
 7170SOL     OW22125   2.923   1.116   6.465  0.2170 -0.3465  0.0120
 7170SOL    HW122126   3.002   1.128   6.517  0.5977 -2.3225 -0.0437
 7170SOL    HW222127   2.865   1.064   6.521 -1.4803  1.8017  0.4157
 7171SOL     OW22128   0.861   1.446   4.541  0.0106  0.4174  0.3292
 7171SOL    HW122129   0.805   1.523   4.541 -0.8840 -0.2173  0.8557
 7171SOL    HW222130   0.883   1.432   4.632  0.0488 -0.0295  0.2536
 7172SOL     OW22131   3.738   6.165   7.178  0.0374 -0.0113  1.0622
 7172SOL    HW122132   3.644   6.176   7.162 -0.4687 -2.6778  1.6916
 7172SOL    HW222133   3.777   6.164   7.090 -0.5307  0.8439  0.7813
 7173SOL     OW22134   5.259   5.733   6.000  0.0640 -0.2490 -0.3404
 7173SOL    HW122135   5.344   5.765   6.030 -0.4474  1.1939 -0.3356
 7173SOL    HW222136   5.267   5.729   5.905  0.6411 -1.6886 -0.2497
 7174SOL     OW22137   2.782   4.510   7.008 -0.2060  0.0657  0.2261
 7174SOL    HW122138   2.763   4.494   7.101 -1.4524 -0.6890 -0.1403
 7174SOL    HW222139   2.805   4.425   6.972  0.9542  0.4655 -0.0355
 7175SOL     OW22140   4.567   2.704   1.991  0.5453 -0.3816  0.1464
 7175SOL    HW122141   4.527   2.765   2.053 -0.3770 -1.1705  0.3489
 7175SOL    HW222142   4.602   2.761   1.922 -0.3522  0.3849  0.2981
 7176SOL     OW22143   0.424   0.415   6.743 -0.8827 -0.7478 -0.4941
 7176SOL    HW122144   0.484   0.480   6.708 -0.0775 -2.2806 -2.1087
 7176SOL    HW222145   0.339   0.459   6.745 -0.1950  0.6328 -0.6383
 7177SOL     OW22146   3.847   3.546   6.413  0.0381  0.3455  0.1967
 7177SOL    HW122147   3.756   3.516   6.419  0.2125 -0.2591 -0.1428
 7177SOL    HW222148   3.859   3.600   6.491 -0.2617 -0.5165  0.8507
 7178SOL     OW22149   4.085   0.755   4.612  0.3828  0.4609 -0.3644
 7178SOL    HW122150   4.066   0.841   4.576  1.6891  0.1217 -2.0068
 7178SOL    HW222151   4.181   0.748   4.607  0.2721 -1.2697 -0.7645
 7179SOL     OW22152   1.966   3.666   5.409  0.3856  0.2201 -0.6599
 7179SOL    HW122153   1.909   3.730   5.452 -0.0749  0.0172 -0.9608
 7179SOL    HW222154   2.032   3.645   5.476 -0.5376 -0.3753  0.0979
 7180SOL     OW22155   4.854   3.501   0.453  0.0959 -0.2423 -0.2635
 7180SOL    HW122156   4.796   3.555   0.508 -0.2381 -1.2218  0.3747
 7180SOL    HW222157   4.818   3.510   0.365 -2.8876 -3.0484  0.4734
 7181SOL     OW22158   6.539   6.717   0.617 -0.3000  0.6470  0.1750
 7181SOL    HW122159   6.578   6.631   0.634 -1.4884  0.0411 -0.0823
 7181SOL    HW222160   6.605   6.763   0.565  0.0319 -0.3897 -0.3545
 7182SOL     OW22161   2.149   6.670   0.341  0.1389  0.2407  0.1129
 7182SOL    HW122162   2.194   6.755   0.341 -0.1693  0.4436 -1.3058
 7182SOL    HW222163   2.195   6.619   0.274 -0.6013 -0.1751 -0.0901
 7183SOL     OW22164   0.564   5.982   3.980  0.3892  0.2507  0.0994
 7183SOL    HW122165   0.482   5.993   4.027  1.1614 -1.0526  1.8296
 7183SOL    HW222166   0.566   6.055   3.918 -2.3019  0.0105 -0.3885
 7184SOL     OW22167   6.603   6.965   6.235 -0.0037 -0.1349  0.1547
 7184SOL    HW122168   6.634   6.877   6.253  0.1805 -0.1641 -0.2946
 7184SOL    HW222169   6.608   6.974   6.139  0.8904  0.6878  0.2593
 7185SOL     OW22170   4.500   3.733   5.267 -0.1764  0.4506  0.4281
 7185SOL    HW122171   4.524   3.820   5.300 -0.2490  0.0162  1.6816
 7185SOL    HW222172   4.444   3.696   5.335 -1.3327 -0.0395 -0.7400
 7186SOL     OW22173   1.998   4.040   2.482 -0.0035  0.2511  0.3252
 7186SOL    HW122174   2.044   4.071   2.403 -0.2902 -0.2483 -0.0412
 7186SOL    HW222175   2.040   4.088   2.554  0.2256  0.7557 -0.1341
 7187SOL     OW22176   6.080   0.368   6.126  0.2030  0.4342 -0.3344
 7187SOL    HW122177   6.150   0.331   6.072 -1.0661 -2.2697 -0.2757
 7187SOL    HW222178   6.094   0.331   6.213 -1.5555 -0.6807 -0.4571
 7188SOL     OW22179   3.736   4.761   5.409 -1.0374  0.1282  0.0460
 7188SOL    HW122180   3.815   4.737   5.458  0.1320 -0.1168 -1.8365
 7188SOL    HW222181   3.672   4.694   5.432  0.8627 -2.6211 -1.9478
 7189SOL     OW22182   4.893   5.588   0.446  0.5424 -0.0232 -0.6410
 7189SOL    HW122183   4.803   5.557   0.447  0.4928  0.0321  1.6298
 7189SOL    HW222184   4.946   5.509   0.436  0.2838 -0.4471  0.9945
 7190SOL     OW22185   5.597   0.952   5.803 -0.2702 -0.3780 -0.0950
 7190SOL    HW122186   5.664   0.990   5.860  0.2221 -2.7647  1.0350
 7190SOL    HW222187   5.641   0.944   5.718  0.4796 -0.7066  0.3050
 7191SOL     OW22188   2.860   4.545   4.142 -0.9050  0.5564  0.4621
 7191SOL    HW122189   2.894   4.634   4.136  2.7328 -0.6376  0.6132
 7191SOL    HW222190   2.836   4.523   4.052 -0.2831  1.1912  0.1289
 7192SOL     OW22191   2.955   4.208   5.977 -0.2290  0.0157  0.6225
 7192SOL    HW122192   3.028   4.269   5.990 -0.4363 -0.1302  2.8624
 7192SOL    HW222193   2.998   4.123   5.962  0.0357  0.3071 -0.4006
 7193SOL     OW22194   6.744   0.176   4.154  1.2739 -0.3785 -0.5457
 7193SOL    HW122195   6.666   0.165   4.208 -0.7218  0.7926 -2.9838
 7193SOL    HW222196   6.767   0.268   4.163  0.4420  0.0367 -2.1493
 7194SOL     OW22197   2.918   2.790   1.111 -0.0834  0.2972  1.1471
 7194SOL    HW122198   2.914   2.847   1.187 -1.8439 -2.2104  3.1036
 7194SOL    HW222199   2.934   2.703   1.147 -1.5829 -1.1124 -1.2746
 7195SOL     OW22200   2.835   4.352   0.413  0.4470 -0.0523 -0.3328
 7195SOL    HW122201   2.897   4.400   0.469 -0.4225  1.4108 -0.5581
 7195SOL    HW222202   2.857   4.260   0.426 -0.2320  0.1062  3.1417
 7196SOL     OW22203   6.580   6.682   2.112 -0.0050 -0.2826 -0.4171
 7196SOL    HW122204   6.560   6.731   2.033  1.2164 -1.1169 -1.2815
 7196SOL    HW222205   6.652   6.731   2.153 -0.3567 -0.0793 -0.0402
 7197SOL     OW22206   1.424   0.453   1.479  0.7669  0.8369  0.1148
 7197SOL    HW122207   1.517   0.472   1.478  1.0320 -0.3294  0.8550
 7197SOL    HW222208   1.389   0.509   1.550  0.9930  0.8554  0.2105
 7198SOL     OW22209   5.981   0.806   2.510  0.1055 -0.5329  0.2192
 7198SOL    HW122210   6.006   0.794   2.418 -1.1810  0.0125 -0.2299
 7198SOL    HW222211   5.907   0.747   2.522 -1.0254  0.8609  0.3080
 7199SOL     OW22212   1.783   6.612   2.919  0.3987 -0.0781  0.3115
 7199SOL    HW122213   1.760   6.701   2.891  1.6203  0.5234  1.1224
 7199SOL    HW222214   1.709   6.585   2.974  1.0019  1.3768  1.9429
 7200SOL     OW22215   6.967   0.699   5.432  0.3352 -0.0739 -0.2852
 7200SOL    HW122216   6.991   0.634   5.367  1.7116  0.9497 -0.8403
 7200SOL    HW222217   6.949   0.779   5.381 -1.8262 -0.1149  0.3294
 7201SOL     OW22218   6.594   4.075   1.867 -0.0579 -0.0469  0.3180
 7201SOL    HW122219   6.502   4.073   1.843 -0.3525  1.0971  1.2977
 7201SOL    HW222220   6.623   4.164   1.848  1.7092 -1.1165 -2.9074
 7202SOL     OW22221   0.291   3.317   4.598  0.2590  0.0045  0.0491
 7202SOL    HW122222   0.311   3.258   4.670  0.2708 -0.9986 -0.7468
 7202SOL    HW222223   0.249   3.392   4.639  1.1901 -0.0752  1.2063
 7203SOL     OW22224   6.945   4.547   3.080 -0.3239 -0.1906  0.0944
 7203SOL    HW122225   6.863   4.588   3.106 -0.0718  1.8543 -1.9847
 7203SOL    HW222226   7.012   4.596   3.128 -0.1927 -0.0148 -0.2599
 7204SOL     OW22227   5.884   3.685   2.274  0.1567 -0.0618  0.2060
 7204SOL    HW122228   5.869   3.773   2.310  0.6176 -0.1466  0.6090
 7204SOL    HW222229   5.962   3.654   2.319  0.7076 -0.1958 -0.8285
 7205SOL     OW22230   1.123   5.761   3.273  0.3875 -0.0343  0.0705
 7205SOL    HW122231   1.085   5.679   3.242  0.0775 -0.1976  0.8611
 7205SOL    HW222232   1.215   5.758   3.245  0.4895 -0.8577  0.4771
 7206SOL     OW22233   4.755   3.216   1.110 -0.1853 -0.4118  0.1743
 7206SOL    HW122234   4.762   3.142   1.051 -1.0665  0.4804 -1.0864
 7206SOL    HW222235   4.818   3.197   1.180 -0.1019 -2.1272 -0.3344
 7207SOL     OW22236   2.685   2.868   0.661  1.1845  0.2111 -0.6670
 7207SOL    HW122237   2.631   2.945   0.643  1.5813  0.2513 -1.8270
 7207SOL    HW222238   2.664   2.844   0.751 -0.2620  0.6110 -0.8751
 7208SOL     OW22239   4.702   4.340   0.311 -0.3678 -0.1886 -0.1475
 7208SOL    HW122240   4.706   4.245   0.311 -1.5437 -0.2532  0.5364
 7208SOL    HW222241   4.763   4.367   0.242  0.7219 -1.3876  0.3197
 7209SOL     OW22242   6.834   3.359   1.321 -0.2020  0.2588  0.5854
 7209SOL    HW122243   6.894   3.284   1.322  1.0538  1.1748 -0.7715
 7209SOL    HW222244   6.886   3.431   1.356 -0.7029  0.9366 -0.0550
 7210SOL     OW22245   1.573   2.036   4.136 -0.1760  0.2373 -0.3340
 7210SOL    HW122246   1.508   2.053   4.205 -0.1814 -0.8048 -0.0514
 7210SOL    HW222247   1.532   1.969   4.082  0.3686  0.1035 -0.5798
 7211SOL     OW22248   4.010   5.362   3.570 -0.0785 -0.4572 -0.2486
 7211SOL    HW122249   3.936   5.301   3.575  0.2410 -0.7859  0.5354
 7211SOL    HW222250   4.034   5.379   3.661 -0.2661  0.9816 -0.4533
 7212SOL     OW22251   0.719   1.948   0.778  0.0360  0.2835 -0.2364
 7212SOL    HW122252   0.645   1.922   0.722  0.1007 -1.2567  0.3618
 7212SOL    HW222253   0.692   1.923   0.866  0.6690  1.0833  0.1929
 7213SOL     OW22254   1.467   6.338   6.389  0.1443  0.1525 -0.2542
 7213SOL    HW122255   1.417   6.305   6.314  1.9146  0.5939 -1.7267
 7213SOL    HW222256   1.527   6.267   6.411  0.9129  0.7076 -0.5096
 7214SOL     OW22257   4.674   1.895   1.421 -0.3506 -0.7184 -0.4213
 7214SOL    HW122258   4.689   1.835   1.493  0.6143 -0.5991 -0.5119
 7214SOL    HW222259   4.747   1.957   1.426 -0.4337 -0.5392 -1.3197
 7215SOL     OW22260   5.926   3.502   0.406  0.2170  0.0739  0.0159
 7215SOL    HW122261   6.015   3.467   0.395  1.6097  3.2207  0.2898
 7215SOL    HW222262   5.896   3.464   0.488  2.2045  0.5672  1.0433
 7216SOL     OW22263   0.589   6.369   1.306 -0.1724 -0.3829 -0.5206
 7216SOL    HW122264   0.527   6.298   1.291  0.2909 -0.7706 -0.6373
 7216SOL    HW222265   0.671   6.338   1.266  0.1459  0.0365 -0.2076
 7217SOL     OW22266   4.788   3.961   2.468  0.2514 -0.2897  0.1512
 7217SOL    HW122267   4.713   3.970   2.410  0.2622 -1.0251  0.0079
 7217SOL    HW222268   4.751   3.940   2.554  0.2289  0.9363  0.4572
 7218SOL     OW22269   5.630   6.909   0.375 -0.2496 -0.0016 -0.8563
 7218SOL    HW122270   5.591   6.912   0.463 -0.5392 -0.7705 -0.9531
 7218SOL    HW222271   5.686   6.832   0.376  2.0509  1.5604 -0.4252
 7219SOL     OW22272   6.796   6.041   1.549  0.1344  0.1676  0.0715
 7219SOL    HW122273   6.891   6.036   1.551  0.1798  0.6694  2.4701
 7219SOL    HW222274   6.766   5.953   1.570  0.0366  0.0383 -0.5662
 7220SOL     OW22275   5.394   0.489   2.653  0.7024 -0.3174  0.4708
 7220SOL    HW122276   5.450   0.539   2.713  0.3021 -0.6048  1.1036
 7220SOL    HW222277   5.322   0.548   2.632  1.8831  0.5186 -1.3805
 7221SOL     OW22278   4.644   5.485   5.242  0.5431  0.6258  0.1942
 7221SOL    HW122279   4.714   5.453   5.185 -1.0840 -1.9311 -0.5515
 7221SOL    HW222280   4.621   5.409   5.296 -0.4685  1.9275  1.6773
 7222SOL     OW22281   2.903   0.662   1.605 -0.4337 -0.1338  0.2208
 7222SOL    HW122282   2.918   0.659   1.511  1.5584 -0.3156  0.5112
 7222SOL    HW222283   2.893   0.570   1.631 -0.7955 -0.0953  0.2296
 7223SOL     OW22284   6.065   3.798   1.194  0.1563 -0.4201 -0.0562
 7223SOL    HW122285   6.125   3.829   1.263  0.2324 -1.0300  0.1616
 7223SOL    HW222286   6.103   3.715   1.166  0.0931 -0.1995 -0.8077
 7224SOL     OW22287   1.790   2.211   1.741  0.3080 -0.3664  0.0678
 7224SOL    HW122288   1.729   2.173   1.678  1.2854 -1.1254 -0.4429
 7224SOL    HW222289   1.735   2.265   1.798 -0.5182  0.8441 -1.7745
 7225SOL     OW22290   0.571   6.098   5.937 -0.0923  0.0856  0.1143
 7225SOL    HW122291   0.624   6.019   5.926 -1.2646 -0.8874  1.1239
 7225SOL    HW222292   0.557   6.130   5.848 -1.0776 -1.9020 -0.5089
 7226SOL     OW22293   4.817   4.475   4.963  0.0907 -0.3827  0.1303
 7226SOL    HW122294   4.732   4.452   4.926 -0.3254 -0.0916  0.8932
 7226SOL    HW222295   4.839   4.402   5.020  0.1887 -0.3008  0.1981
 7227SOL     OW22296   3.669   2.798   1.662  0.2997 -0.6229 -0.5519
 7227SOL    HW122297   3.577   2.793   1.686  0.2230  0.3825 -0.6089
 7227SOL    HW222298   3.668   2.815   1.568  0.4074  3.1902 -0.0267
 7228SOL     OW22299   7.023   4.194   5.131  0.0070  0.0493  0.1608
 7228SOL    HW122300   6.989   4.116   5.177  0.6444  0.4857  1.4280
 7228SOL    HW222301   6.946   4.249   5.119 -0.4432 -0.7395 -0.7009
 7229SOL     OW22302   4.600   2.603   5.558 -0.1105 -0.3769 -0.3552
 7229SOL    HW122303   4.547   2.525   5.541  1.1254 -1.0798 -1.1059
 7229SOL    HW222304   4.639   2.587   5.644  0.2069 -0.6316 -0.5446
 7230SOL     OW22305   1.853   1.842   4.002  0.0316 -0.1423  0.2440
 7230SOL    HW122306   1.935   1.802   3.976 -1.1142 -2.5816  0.1559
 7230SOL    HW222307   1.874   1.891   4.081  1.9381  0.9723 -0.8899
 7231SOL     OW22308   6.170   1.076   2.060  0.1793 -0.3191  0.3764
 7231SOL    HW122309   6.132   1.113   2.140  0.2436  0.6102 -0.0101
 7231SOL    HW222310   6.111   1.105   1.990  0.8597  0.0250 -0.0706
 7232SOL     OW22311   0.272   1.736   3.865  0.2875  0.2117 -0.8263
 7232SOL    HW122312   0.313   1.803   3.810  2.1700  0.2428  0.4977
 7232SOL    HW222313   0.178   1.746   3.849  0.5936  2.2213 -1.7402
 7233SOL     OW22314   5.749   6.998   3.562  0.4162  0.0844 -0.2062
 7233SOL    HW122315   5.725   7.012   3.471 -2.1106  2.0450  0.6413
 7233SOL    HW222316   5.713   6.912   3.584  0.4604 -0.1009 -0.8479
 7234SOL     OW22317   1.000   3.968   1.510  0.6040 -0.3464 -0.3610
 7234SOL    HW122318   1.018   4.040   1.569  0.1035 -0.8291  0.3941
 7234SOL    HW222319   1.016   4.004   1.422  0.3231  0.6829  0.0003
 7235SOL     OW22320   2.410   5.975   3.296  0.3551  0.4876  0.0569
 7235SOL    HW122321   2.467   6.045   3.266 -0.4970  1.3521  0.4182
 7235SOL    HW222322   2.463   5.895   3.286  1.1277  1.1013 -0.8951
 7236SOL     OW22323   3.074   1.385   6.092  0.3803  0.5295  0.1682
 7236SOL    HW122324   3.019   1.307   6.094  0.5790  0.3801 -0.1331
 7236SOL    HW222325   3.020   1.453   6.132 -0.1508  0.4690 -0.4254
 7237SOL     OW22326   6.449   6.760   0.326  0.1737 -0.0198  0.3525
 7237SOL    HW122327   6.448   6.666   0.343 -2.0040  0.1771  1.6610
 7237SOL    HW222328   6.449   6.800   0.412 -0.3963  1.1554 -0.1718
 7238SOL     OW22329   1.203   5.487   3.842 -0.1946 -0.4987  0.1194
 7238SOL    HW122330   1.290   5.460   3.874 -0.4950  0.2294  1.6318
 7238SOL    HW222331   1.160   5.404   3.820  0.3472 -0.9831  0.8100
 7239SOL     OW22332   4.673   7.143   0.597  0.0184  0.0768 -0.3255
 7239SOL    HW122333   4.670   7.235   0.572 -2.6066  0.0881 -0.2413
 7239SOL    HW222334   4.583   7.122   0.622  0.4978 -2.5697 -0.5452
 7240SOL     OW22335   6.549   6.285   6.373  0.3696 -0.0764 -0.2566
 7240SOL    HW122336   6.632   6.289   6.421 -0.0991 -0.0541  0.5532
 7240SOL    HW222337   6.509   6.204   6.401  0.3146 -0.3186 -1.0007
 7241SOL     OW22338   6.485   7.202   2.467  0.1110 -0.4191  0.4850
 7241SOL    HW122339   6.532   7.236   2.544  0.6794 -0.1452  0.0224
 7241SOL    HW222340   6.399   7.177   2.501 -0.5133  1.9155  0.7707
 7242SOL     OW22341   4.900   4.950   4.606 -0.1338  0.2455 -0.0877
 7242SOL    HW122342   4.808   4.929   4.623 -0.0901 -1.1899 -1.3703
 7242SOL    HW222343   4.900   4.992   4.520  0.5236 -1.1843 -0.8290
 7243SOL     OW22344   6.358   4.485   2.425 -0.3751 -0.1399  0.5006
 7243SOL    HW122345   6.381   4.549   2.358  1.2570 -0.5131  0.6561
 7243SOL    HW222346   6.442   4.446   2.451 -1.2549 -2.0641  0.6783
 7244SOL     OW22347   3.969   3.083   3.060  0.1126 -0.6182  0.1857
 7244SOL    HW122348   3.914   3.130   3.122 -2.7590 -0.1487 -2.4830
 7244SOL    HW222349   3.908   3.031   3.008  2.6897 -3.6277 -0.1610
 7245SOL     OW22350   0.065   3.411   0.350 -0.0727 -0.1979  0.2700
 7245SOL    HW122351   0.031   3.324   0.368 -0.7475  0.0302  0.1246
 7245SOL    HW222352   0.008   3.446   0.281  0.8324 -0.0408 -0.4304
 7246SOL     OW22353   1.565   4.624   4.318  0.1804  0.0113  0.0349
 7246SOL    HW122354   1.615   4.705   4.307 -1.6928  1.0270 -1.7959
 7246SOL    HW222355   1.612   4.560   4.264 -0.1700  0.8202 -1.2837
 7247SOL     OW22356   5.714   4.710   6.606  0.6031 -0.3352  0.5065
 7247SOL    HW122357   5.641   4.769   6.625  0.4795 -0.3305  0.0425
 7247SOL    HW222358   5.778   4.765   6.561 -0.2978 -0.9187 -1.6483
 7248SOL     OW22359   1.042   5.844   6.713 -0.6969 -0.5572 -0.2537
 7248SOL    HW122360   1.067   5.819   6.802 -0.0117 -1.0443 -0.5780
 7248SOL    HW222361   1.036   5.940   6.716 -2.1848 -0.6415  0.6921
 7249SOL     OW22362   1.915   4.099   6.996 -0.1725  0.1250  0.0528
 7249SOL    HW122363   1.884   4.085   7.085  0.3017 -0.0477  0.1905
 7249SOL    HW222364   1.933   4.012   6.962 -0.4506  0.1823 -0.2522
 7250SOL     OW22365   6.878   1.886   1.594  0.1010 -0.6923 -0.0566
 7250SOL    HW122366   6.915   1.862   1.679 -1.7854 -0.8954  0.7494
 7250SOL    HW222367   6.863   1.803   1.550  1.0608 -0.5881 -0.6146
 7251SOL     OW22368   2.746   1.688   0.147 -0.2195  0.8170 -0.4201
 7251SOL    HW122369   2.769   1.724   0.233  0.4065  0.6432 -0.5132
 7251SOL    HW222370   2.828   1.686   0.099 -0.1958 -0.8968 -0.3550
 7252SOL     OW22371   5.049   3.599   1.739  0.0014  0.4031 -0.3127
 7252SOL    HW122372   5.089   3.608   1.653  0.7010 -0.0796 -0.0454
 7252SOL    HW222373   5.015   3.686   1.759  0.3190  0.6500 -0.8453
 7253SOL     OW22374   1.225   3.316   5.604  0.3157 -0.5545  0.2155
 7253SOL    HW122375   1.214   3.222   5.618 -1.1267 -0.2515  1.3051
 7253SOL    HW222376   1.320   3.329   5.602  0.5400 -2.0337 -0.0676
 7254SOL     OW22377   6.070   6.056   2.189  0.5259 -0.4100 -0.3472
 7254SOL    HW122378   6.015   6.135   2.188 -0.5077 -1.0748 -2.3920
 7254SOL    HW222379   6.022   5.993   2.135  1.6575 -2.2299  0.6747
 7255SOL     OW22380   1.972   7.139   2.616 -0.3614  0.5087  0.1949
 7255SOL    HW122381   2.066   7.121   2.603 -0.2993  0.8120  0.2123
 7255SOL    HW222382   1.928   7.058   2.590 -0.0961  0.3780  0.1502
 7256SOL     OW22383   2.899   6.766   5.579  0.3311 -0.3508 -0.3987
 7256SOL    HW122384   2.826   6.770   5.517  0.1769 -1.5109 -0.3326
 7256SOL    HW222385   2.967   6.717   5.532  0.6835 -0.1581 -0.0928
 7257SOL     OW22386   3.781   4.362   2.346  0.6153 -0.7372 -0.4148
 7257SOL    HW122387   3.723   4.425   2.389  1.8116 -1.0185  1.7715
 7257SOL    HW222388   3.724   4.291   2.319 -0.0680 -1.3783  2.3646
 7258SOL     OW22389   4.680   0.428   2.205  0.3412  0.0822 -0.6734
 7258SOL    HW122390   4.661   0.385   2.122  0.1571  1.5202 -1.4058
 7258SOL    HW222391   4.621   0.386   2.268 -1.7123  1.0087 -1.8790
 7259SOL     OW22392   3.658   3.579   0.115  0.1237  0.0958 -0.1397
 7259SOL    HW122393   3.675   3.672   0.100 -0.6598  0.0659 -1.3797
 7259SOL    HW222394   3.604   3.577   0.194  0.1487  0.6907 -0.1021
 7260SOL     OW22395   2.421   5.782   6.281  0.5324 -0.2890 -0.1418
 7260SOL    HW122396   2.386   5.783   6.192  0.3780 -0.0268 -0.0804
 7260SOL    HW222397   2.408   5.872   6.313  0.3504 -0.4473  0.2376
 7261SOL     OW22398   5.824   6.802   7.065 -0.3313  0.0885 -0.3704
 7261SOL    HW122399   5.807   6.896   7.065  1.1196  0.3960  1.2896
 7261SOL    HW222400   5.844   6.781   7.156  2.8700 -1.1446 -1.2199
 7262SOL     OW22401   1.784   4.013   5.180  0.1978  0.6455  0.2645
 7262SOL    HW122402   1.745   4.095   5.150  1.0653  1.0729  0.2554
 7262SOL    HW222403   1.721   3.945   5.155 -0.3961  1.2776  0.0144
 7263SOL     OW22404   1.996   0.803   0.255 -0.4444  0.3113  0.2596
 7263SOL    HW122405   1.971   0.760   0.173 -0.4950  0.8513 -0.0077
 7263SOL    HW222406   2.082   0.841   0.238 -0.3865  0.2952  0.5063
 7264SOL     OW22407   3.471   2.390   5.414 -0.4549 -0.0999 -0.3528
 7264SOL    HW122408   3.418   2.465   5.441 -0.2135  0.8920 -2.4028
 7264SOL    HW222409   3.505   2.354   5.495 -1.9437  0.9839  0.8136
 7265SOL     OW22410   3.340   5.064   4.089 -0.0292 -0.0061 -0.4235
 7265SOL    HW122411   3.409   5.114   4.046  0.7025 -0.6326 -0.0115
 7265SOL    HW222412   3.359   4.972   4.066  1.2703 -0.5463  2.2996
 7266SOL     OW22413   3.690   5.102   6.820  0.5169 -0.4446 -0.0687
 7266SOL    HW122414   3.727   5.170   6.764  2.4547 -0.2675  1.3366
 7266SOL    HW222415   3.640   5.150   6.886 -0.6853 -0.5905 -0.8363
 7267SOL     OW22416   5.891   0.609   4.659  0.0484 -0.7172 -0.1230
 7267SOL    HW122417   5.887   0.530   4.713 -0.5672 -0.1874  0.6296
 7267SOL    HW222418   5.829   0.593   4.588  0.1695 -1.0387 -0.1599
 7268SOL     OW22419   5.343   0.746   1.133 -0.0755 -0.2970 -0.1790
 7268SOL    HW122420   5.358   0.765   1.040 -3.1530 -2.1636 -1.1761
 7268SOL    HW222421   5.407   0.678   1.154 -0.2603 -0.8340 -1.3096
 7269SOL     OW22422   0.322   2.744   1.372  0.5929 -0.1005  0.4001
 7269SOL    HW122423   0.338   2.667   1.427  2.1002 -0.1467 -0.0625
 7269SOL    HW222424   0.395   2.803   1.392  1.0900 -0.0522 -1.4169
 7270SOL     OW22425   5.413   2.278   5.025 -0.1581  0.0161  0.3527
 7270SOL    HW122426   5.344   2.338   5.052 -0.6323 -0.8627  1.1553
 7270SOL    HW222427   5.367   2.206   4.982  0.4186  0.2999 -0.8029
 7271SOL     OW22428   4.995   4.719   7.176 -0.2864  0.1857  0.2453
 7271SOL    HW122429   5.031   4.709   7.264  1.6367  1.3104 -0.3607
 7271SOL    HW222430   4.952   4.804   7.177  1.0607  0.8857 -0.3130
 7272SOL     OW22431   0.947   1.773   3.906 -0.4900 -0.3722 -0.6776
 7272SOL    HW122432   0.956   1.752   3.813 -1.5931 -0.1122 -0.8620
 7272SOL    HW222433   0.866   1.729   3.933  0.4385 -1.4605  0.4788
 7273SOL     OW22434   5.460   1.831   4.152  0.2286 -0.0232  0.3978
 7273SOL    HW122435   5.445   1.736   4.147 -0.5721  0.0997  0.2966
 7273SOL    HW222436   5.440   1.854   4.243  2.0182 -0.1947  0.8655
 7274SOL     OW22437   6.854   6.357   7.204  0.2630  0.2829 -0.3588
 7274SOL    HW122438   6.835   6.450   7.218  1.7996  0.6914 -0.8829
 7274SOL    HW222439   6.850   6.319   7.292  0.5288  1.0159 -0.0211
 7275SOL     OW22440   3.734   4.420   4.947 -0.3683 -0.0443  0.0495
 7275SOL    HW122441   3.642   4.425   4.973 -0.5559  0.5774 -0.6879
 7275SOL    HW222442   3.752   4.326   4.943 -0.7909 -0.1648  0.7924
 7276SOL     OW22443   0.161   0.460   5.641  0.2502  0.0804  0.2104
 7276SOL    HW122444   0.251   0.492   5.638  0.0688  0.5051 -0.7385
 7276SOL    HW222445   0.138   0.465   5.734  0.7831  1.1420  0.2983
 7277SOL     OW22446   4.605   0.206   4.874 -0.2171 -0.6901  0.2555
 7277SOL    HW122447   4.631   0.233   4.786 -0.5852 -0.0240  0.3488
 7277SOL    HW222448   4.637   0.116   4.881  0.8808 -0.3498 -0.1121
 7278SOL     OW22449   3.411   3.651   2.564  0.4291 -0.1594  0.3466
 7278SOL    HW122450   3.344   3.693   2.617  0.8316 -0.0704  0.7960
 7278SOL    HW222451   3.435   3.572   2.612  0.5532 -0.2580  0.1264
 7279SOL     OW22452   6.056   3.999   6.612  0.1780 -0.0104 -0.0068
 7279SOL    HW122453   6.060   3.907   6.639  0.0819  0.0253  0.1332
 7279SOL    HW222454   5.962   4.018   6.609  0.1975  0.0735 -0.0712
 7280SOL     OW22455   0.201   0.377   4.885 -0.3466 -0.1825  0.2145
 7280SOL    HW122456   0.146   0.378   4.964  1.0778 -1.2802  1.2758
 7280SOL    HW222457   0.264   0.448   4.899  0.5288 -1.0020  0.5715
 7281SOL     OW22458   6.902   2.750   6.403 -0.0742  0.3475 -0.3737
 7281SOL    HW122459   6.885   2.838   6.368 -2.2884  0.8748  1.7591
 7281SOL    HW222460   6.840   2.740   6.475  2.0706 -1.8861  1.3442
 7282SOL     OW22461   2.581   7.062   2.719 -0.0550 -0.1746 -0.3963
 7282SOL    HW122462   2.502   7.102   2.755  0.3952  1.3900 -1.0878
 7282SOL    HW222463   2.548   6.988   2.668 -0.9870 -0.1462  0.1270
 7283SOL     OW22464   6.383   3.854   2.329  0.2748 -0.6489  0.0947
 7283SOL    HW122465   6.350   3.938   2.297  0.6732 -0.8266 -0.8160
 7283SOL    HW222466   6.342   3.788   2.272  1.8004 -0.8992 -0.7514
 7284SOL     OW22467   2.023   0.594   1.841 -0.2476  0.2291 -0.2341
 7284SOL    HW122468   1.977   0.529   1.894 -1.1240  1.8225  1.0785
 7284SOL    HW222469   2.088   0.632   1.899 -1.3476  2.1476 -0.1560
 7285SOL     OW22470   0.690   6.597   5.815  0.3892 -0.1525  0.1686
 7285SOL    HW122471   0.666   6.537   5.744  1.4329  0.1139 -0.4377
 7285SOL    HW222472   0.651   6.680   5.790 -0.5030 -0.4088  0.6757
 7286SOL     OW22473   3.758   3.610   1.979 -0.0458 -0.1488  0.4584
 7286SOL    HW122474   3.789   3.580   1.894 -0.1407  0.0701  0.3454
 7286SOL    HW222475   3.833   3.599   2.038 -0.4891 -1.9247  0.7429
 7287SOL     OW22476   6.887   6.574   1.482  0.6019  0.2366  0.6742
 7287SOL    HW122477   6.815   6.512   1.487  0.0999  0.9085  3.0843
 7287SOL    HW222478   6.934   6.550   1.402 -2.1385 -0.3450 -0.8849
 7288SOL     OW22479   1.919   1.971   2.957  0.2440 -0.3764 -0.1188
 7288SOL    HW122480   1.906   1.896   2.899  0.0906 -0.8157  0.4775
 7288SOL    HW222481   1.945   1.933   3.040 -1.2514  0.1492  0.6152
 7289SOL     OW22482   0.872   4.219   7.209  0.8714  0.1137  0.0409
 7289SOL    HW122483   0.892   4.176   7.125  1.6084 -1.7527  1.1038
 7289SOL    HW222484   0.812   4.159   7.252  0.7793  0.8793  1.0012
 7290SOL     OW22485   2.001   1.971   0.018  0.0526 -0.8461 -0.0650
 7290SOL    HW122486   2.043   2.001   0.099 -1.6747  0.1940  0.4921
 7290SOL    HW222487   1.921   1.929   0.047  0.0754 -1.6946 -1.1818
 7291SOL     OW22488   3.725   7.157   5.231  0.2092 -0.6611  0.3707
 7291SOL    HW122489   3.632   7.149   5.249 -0.1214 -0.1780 -1.0464
 7291SOL    HW222490   3.765   7.170   5.317 -1.0671 -0.4630  0.9498
 7292SOL     OW22491   4.297   6.371   6.570  0.0160 -0.2653  0.0740
 7292SOL    HW122492   4.339   6.456   6.554  0.3687 -0.4449  0.0377
 7292SOL    HW222493   4.358   6.307   6.533  0.1988 -0.5965  0.9376
 7293SOL     OW22494   1.713   0.300   1.723 -0.1202  0.0389  0.1157
 7293SOL    HW122495   1.690   0.264   1.638 -1.8148  0.6092  0.2964
 7293SOL    HW222496   1.753   0.385   1.704 -0.2929  0.0685 -0.1121
 7294SOL     OW22497   5.032   5.499   4.744 -0.3604 -0.1564 -0.0832
 7294SOL    HW122498   5.116   5.479   4.786 -0.1814  0.7749  0.0242
 7294SOL    HW222499   4.968   5.446   4.792 -0.6085  2.8468  3.3168
 7295SOL     OW22500   4.542   6.136   3.006  0.4724  0.3108  0.3208
 7295SOL    HW122501   4.596   6.176   2.937 -0.9471  0.0733 -0.9873
 7295SOL    HW222502   4.534   6.044   2.979  0.1156  0.1554  0.9495
 7296SOL     OW22503   4.696   3.819   4.389  0.1405  0.2560  0.0420
 7296SOL    HW122504   4.700   3.910   4.417 -0.5761  0.1743  0.4295
 7296SOL    HW222505   4.667   3.771   4.466 -4.0168  0.2965 -1.2279
 7297SOL     OW22506   4.711   7.030   0.008  0.0631  0.4177  0.5969
 7297SOL    HW122507   4.763   6.998   0.082  1.5782  1.0209 -0.1479
 7297SOL    HW222508   4.647   6.961  -0.008  0.7960 -0.4820  1.4140
 7298SOL     OW22509   3.048   5.465   7.066  0.0991 -0.3518  0.1593
 7298SOL    HW122510   2.964   5.466   7.111 -1.0719  1.5327 -1.8382
 7298SOL    HW222511   3.028   5.428   6.980  1.5894 -0.9853  0.0541
 7299SOL     OW22512   2.798   6.634   1.674  0.5968  0.1886 -0.3343
 7299SOL    HW122513   2.886   6.671   1.681  1.0778 -1.2174  1.9102
 7299SOL    HW222514   2.752   6.664   1.752 -1.6510  2.4514 -2.3319
 7300SOL     OW22515   3.783   3.498   6.024  0.3021  0.0927  0.2791
 7300SOL    HW122516   3.761   3.472   5.935 -0.4536  0.9609  0.2053
 7300SOL    HW222517   3.700   3.499   6.071  0.4961  1.0142  0.6352
 7301SOL     OW22518   1.589   6.901   0.167 -0.6246  0.0037 -0.7667
 7301SOL    HW122519   1.527   6.968   0.194 -0.6612  0.3227 -1.6058
 7301SOL    HW222520   1.558   6.872   0.081 -0.5726 -1.0529 -0.4538
 7302SOL     OW22521   1.765   5.252   0.428 -0.4230  0.0072  0.5510
 7302SOL    HW122522   1.776   5.186   0.497 -0.5201  0.1319  0.6837
 7302SOL    HW222523   1.771   5.336   0.473 -1.7034  0.0878  0.6006
 7303SOL     OW22524   6.189   2.114   6.850  0.2586  0.1924  0.4443
 7303SOL    HW122525   6.240   2.039   6.880 -0.5746 -0.1501  1.0628
 7303SOL    HW222526   6.104   2.076   6.824  0.4201  0.6871 -0.9146
 7304SOL     OW22527   0.152   5.278   6.905  0.4735 -0.3450 -0.4178
 7304SOL    HW122528   0.073   5.312   6.863  0.9554 -0.4285 -1.4394
 7304SOL    HW222529   0.122   5.239   6.987 -0.5404 -0.3728 -0.7910
 7305SOL     OW22530   3.514   0.160   5.146 -0.0447 -0.0534  0.0693
 7305SOL    HW122531   3.587   0.154   5.208  0.0700  0.9186  0.0371
 7305SOL    HW222532   3.497   0.254   5.138 -0.7228 -0.2278 -0.6009
 7306SOL     OW22533   3.801   2.236   7.004  0.5167 -0.3252 -0.0242
 7306SOL    HW122534   3.726   2.241   6.944  0.4447  0.2761  0.1026
 7306SOL    HW222535   3.780   2.299   7.073  0.0206 -1.8964  1.3162
 7307SOL     OW22536   2.740   0.997   0.731  0.6658 -0.1517  0.4144
 7307SOL    HW122537   2.655   1.030   0.703  0.7149 -1.3697 -1.2781
 7307SOL    HW222538   2.755   0.920   0.677  2.3198 -0.6557  1.5225
 7308SOL     OW22539   4.155   0.526   7.027 -0.5145  0.0001  0.2200
 7308SOL    HW122540   4.203   0.448   6.998 -1.4852  0.1187 -1.8771
 7308SOL    HW222541   4.177   0.534   7.120 -0.9055 -3.1590  0.7057
 7309SOL     OW22542   6.218   0.798   0.149 -0.0786  0.3609 -0.0124
 7309SOL    HW122543   6.144   0.857   0.159 -0.2325 -0.0329  1.2841
 7309SOL    HW222544   6.295   0.854   0.162 -0.1589  0.6534 -0.7719
 7310SOL     OW22545   0.046   1.804   1.575 -0.1612 -0.4098  0.2942
 7310SOL    HW122546   0.019   1.874   1.634  1.9114  0.4694  0.2560
 7310SOL    HW222547   0.102   1.846   1.511 -0.3179 -1.8065 -0.8288
 7311SOL     OW22548   4.851   3.332   6.717  0.2163 -0.0213 -0.3372
 7311SOL    HW122549   4.839   3.269   6.646 -1.3894  0.8014 -0.8310
 7311SOL    HW222550   4.787   3.401   6.700  2.3201  2.1059 -0.1922
 7312SOL     OW22551   4.989   4.105   6.372 -0.1344 -0.0734 -0.6680
 7312SOL    HW122552   5.022   4.131   6.458  0.0358 -0.9040 -0.4663
 7312SOL    HW222553   5.067   4.091   6.319 -0.1420 -1.4995 -0.3542
 7313SOL     OW22554   1.456   1.851   1.792 -0.1402  0.1245  0.0275
 7313SOL    HW122555   1.398   1.923   1.769 -0.1925  0.1254  0.1612
 7313SOL    HW222556   1.534   1.894   1.827 -0.5659  0.0987  1.0347
 7314SOL     OW22557   2.035   1.559   1.784 -0.0822  0.9094  0.1876
 7314SOL    HW122558   2.017   1.581   1.692  1.1151 -1.5110 -0.6947
 7314SOL    HW222559   2.126   1.584   1.797 -0.1368  0.8926  0.6084
 7315SOL     OW22560   2.633   3.638   5.889  0.2162  0.2623  0.0335
 7315SOL    HW122561   2.555   3.664   5.840  0.7186 -1.5334 -1.8684
 7315SOL    HW222562   2.702   3.696   5.857 -0.1161  1.2117  1.0068
 7316SOL     OW22563   0.139   5.179   1.239  0.1382  0.6117  0.1603
 7316SOL    HW122564   0.210   5.200   1.178  0.9202  0.5141  1.0193
 7316SOL    HW222565   0.134   5.255   1.297 -1.0963  1.0291 -0.4549
 7317SOL     OW22566   5.108   4.719   3.399 -0.5114 -0.3814  0.3563
 7317SOL    HW122567   5.115   4.666   3.320 -1.2251 -1.9733  1.3154
 7317SOL    HW222568   5.190   4.705   3.446  1.0568  2.5977 -1.2200
 7318SOL     OW22569   0.533   3.085   3.445  0.0501 -0.0339 -0.4898
 7318SOL    HW122570   0.495   3.140   3.514 -0.1095  1.4196 -1.6763
 7318SOL    HW222571   0.609   3.045   3.486 -0.9633 -0.5154  1.0085
 7319SOL     OW22572   3.790   6.744   6.217 -0.1063  0.1384 -0.5459
 7319SOL    HW122573   3.768   6.833   6.244 -1.6718 -0.5896  0.7206
 7319SOL    HW222574   3.806   6.697   6.299  0.4064 -0.8257 -1.1753
 7320SOL     OW22575   4.347   1.375   5.630 -0.0701  0.4696 -0.1824
 7320SOL    HW122576   4.381   1.358   5.718  2.3684 -0.1330 -1.1626
 7320SOL    HW222577   4.253   1.389   5.644  0.2446  0.5685  2.5173
 7321SOL     OW22578   1.927   4.115   7.256  0.1727 -0.4111  0.0008
 7321SOL    HW122579   1.892   4.203   7.238 -4.3866 -1.8077  0.6016
 7321SOL    HW222580   1.957   4.119   7.347  2.2511  0.9979 -0.6754
 7322SOL     OW22581   0.116   6.876   6.644 -0.4070 -0.3639  0.3158
 7322SOL    HW122582   0.073   6.874   6.730  1.3603 -0.0208  1.2550
 7322SOL    HW222583   0.174   6.952   6.648  2.0975 -2.1637  0.0430
 7323SOL     OW22584   2.135   2.512   4.320  0.2453 -0.1530 -0.6378
 7323SOL    HW122585   2.065   2.571   4.292 -0.0330  0.4194  1.0911
 7323SOL    HW222586   2.214   2.566   4.318 -0.3881  1.3324  3.5302
 7324SOL     OW22587   0.907   4.155   5.130 -0.0650  0.4702 -0.3418
 7324SOL    HW122588   0.850   4.086   5.095 -0.3831  1.0693 -1.0460
 7324SOL    HW222589   0.886   4.232   5.077 -1.6557  1.8508  2.1506
 7325SOL     OW22590   4.745   7.224   0.852  0.7755 -0.1146  0.0246
 7325SOL    HW122591   4.753   7.187   0.765 -0.5219  1.0452 -0.6110
 7325SOL    HW222592   4.789   7.309   0.846  0.2990  0.1628  0.3674
 7326SOL     OW22593   1.071   3.546   2.590 -0.6239 -0.1853 -0.4159
 7326SOL    HW122594   1.153   3.563   2.637 -0.5964 -0.7446 -0.2532
 7326SOL    HW222595   1.062   3.451   2.592 -0.7953 -0.1918 -1.2539
 7327SOL     OW22596   2.786   7.050   1.441 -0.2948 -0.1630  0.2092
 7327SOL    HW122597   2.852   7.026   1.375 -0.8652 -2.5002  0.4013
 7327SOL    HW222598   2.737   6.969   1.456 -1.1067  0.6741  2.4798
 7328SOL     OW22599   5.580   5.950   4.970  0.3761 -0.5588 -0.8640
 7328SOL    HW122600   5.626   6.033   4.981 -0.3527 -0.4371  2.0932
 7328SOL    HW222601   5.633   5.887   5.019  0.0470 -1.5067 -1.6948
 7329SOL     OW22602   0.937   1.232   1.306  0.2201 -0.3186  0.9830
 7329SOL    HW122603   0.874   1.160   1.309  1.2740 -1.2549  1.6231
 7329SOL    HW222604   0.883   1.310   1.295 -1.0750 -1.0669  1.6629
 7330SOL     OW22605   1.455   5.478   2.285 -0.2404 -0.0057  0.1067
 7330SOL    HW122606   1.531   5.525   2.250 -1.4590  0.3544 -2.3128
 7330SOL    HW222607   1.389   5.547   2.300 -0.0412 -0.2770  2.4215
 7331SOL     OW22608   5.408   1.257   5.937 -0.1118 -0.3154  0.2434
 7331SOL    HW122609   5.369   1.344   5.927 -0.7861 -0.5449  0.7526
 7331SOL    HW222610   5.499   1.267   5.910 -0.8524 -0.1022 -2.4786
 7332SOL     OW22611   3.374   3.645   3.623  0.2849 -0.0972 -0.3487
 7332SOL    HW122612   3.311   3.574   3.606  1.7801 -1.6073  0.1042
 7332SOL    HW222613   3.350   3.677   3.710  1.1403 -1.8709  0.6105
 7333SOL     OW22614   5.544   6.263   6.664 -0.2182 -0.6051  0.6491
 7333SOL    HW122615   5.534   6.222   6.578 -0.8606  1.2423 -0.2141
 7333SOL    HW222616   5.630   6.305   6.660 -0.5531  0.0948  0.6144
 7334SOL     OW22617   0.395   4.890   2.733 -0.3616 -0.2420 -0.0127
 7334SOL    HW122618   0.321   4.844   2.694 -0.9314  0.0071  0.7452
 7334SOL    HW222619   0.472   4.852   2.690 -0.8323 -1.6877  0.3355
 7335SOL     OW22620   0.290   3.755   2.280  0.1412 -0.7142  0.2717
 7335SOL    HW122621   0.210   3.759   2.229 -0.9341 -1.4427  1.8312
 7335SOL    HW222622   0.323   3.666   2.265  0.2888 -0.6454  0.1842
 7336SOL     OW22623   2.493   5.561   6.413  0.5644  0.3050 -0.0231
 7336SOL    HW122624   2.492   5.623   6.341 -0.6654 -0.1962 -0.4689
 7336SOL    HW222625   2.454   5.608   6.487 -0.9956 -0.1220 -0.5475
 7337SOL     OW22626   1.887   5.456   0.629  0.3361  0.4570  0.0798
 7337SOL    HW122627   1.978   5.483   0.646 -0.0018  0.4180  2.2187
 7337SOL    HW222628   1.836   5.537   0.636  0.1516  0.4437 -0.9179
 7338SOL     OW22629   6.116   4.103   6.978  0.2213 -0.0886 -0.3039
 7338SOL    HW122630   6.174   4.104   6.902  0.5812 -1.2432 -0.0629
 7338SOL    HW222631   6.084   4.013   6.983 -0.0655  0.0583  0.7105
 7339SOL     OW22632   6.357   1.927   3.996 -0.0368 -0.3352 -0.1844
 7339SOL    HW122633   6.328   2.018   3.991  0.3918 -0.2202 -0.7431
 7339SOL    HW222634   6.291   1.877   3.948 -0.9319 -0.4960  1.1755
 7340SOL     OW22635   5.770   3.238   4.196  0.2972  0.5707 -0.1339
 7340SOL    HW122636   5.763   3.303   4.267  0.3711 -0.0717  0.4785
 7340SOL    HW222637   5.846   3.184   4.221 -0.6858 -0.7073  0.1969
 7341SOL     OW22638   4.624   1.808   6.835  0.1754 -0.3759  0.2181
 7341SOL    HW122639   4.685   1.880   6.818 -2.9826  2.3605 -0.4445
 7341SOL    HW222640   4.658   1.735   6.782  2.1500  1.3951 -1.1080
 7342SOL     OW22641   7.177   6.453   1.734  0.0401 -0.7887  0.1802
 7342SOL    HW122642   7.116   6.447   1.808 -1.2507 -0.4557 -0.8276
 7342SOL    HW222643   7.257   6.411   1.766 -0.8064 -1.5273  1.4262
 7343SOL     OW22644   0.416   2.028   5.339  0.0978 -0.2282  0.0706
 7343SOL    HW122645   0.420   2.026   5.435 -0.5654  1.3472  0.1611
 7343SOL    HW222646   0.366   2.107   5.319  1.4390  0.2637 -1.5954
 7344SOL     OW22647   5.337   4.670   1.743 -0.3210 -0.1667  0.0848
 7344SOL    HW122648   5.279   4.597   1.764  0.5190 -0.6367  0.7956
 7344SOL    HW222649   5.343   4.668   1.647  0.3970 -1.5993  0.1364
 7345SOL     OW22650   2.721   1.970   1.583 -0.1853 -0.1731  0.3413
 7345SOL    HW122651   2.663   2.046   1.579 -1.9278 -1.5195 -2.5651
 7345SOL    HW222652   2.678   1.911   1.645 -0.0493  0.1933  0.8026
 7346SOL     OW22653   0.087   1.033   5.789  0.5132  0.5720  0.1415
 7346SOL    HW122654   0.045   0.957   5.749  0.4005  1.1361 -0.8509
 7346SOL    HW222655   0.032   1.107   5.762  0.2038  0.9374  1.6957
 7347SOL     OW22656   2.040   6.512   6.786 -0.1524  0.1247 -0.8324
 7347SOL    HW122657   2.067   6.561   6.708 -1.4945 -0.0740 -1.4458
 7347SOL    HW222658   1.949   6.536   6.800  0.2822  0.8081  1.2100
 7348SOL     OW22659   2.721   3.281   0.246  0.1556  0.4434 -0.2176
 7348SOL    HW122660   2.740   3.191   0.222 -1.9975 -0.6154  1.6283
 7348SOL    HW222661   2.771   3.295   0.327 -1.0778  0.1387  0.6300
 7349SOL     OW22662   5.116   2.308   5.665  0.0211  0.3341  0.1176
 7349SOL    HW122663   5.158   2.295   5.750  1.3428  0.2547 -0.5244
 7349SOL    HW222664   5.030   2.345   5.686  0.3804  0.4448  1.4730
 7350SOL     OW22665   5.027   2.385   7.203  0.2646 -0.0378  0.1677
 7350SOL    HW122666   5.031   2.455   7.138  0.6702 -1.3596 -1.3014
 7350SOL    HW222667   4.968   2.418   7.270  0.3230  1.6360 -0.5492
 7351SOL     OW22668   1.999   4.370   4.287  0.2346  0.2643  0.4835
 7351SOL    HW122669   1.963   4.447   4.244 -0.2377 -0.6750 -0.8849
 7351SOL    HW222670   1.924   4.328   4.328 -0.2799 -1.4129 -1.9327
 7352SOL     OW22671   5.262   6.547   4.713  0.0930 -0.2417  0.3523
 7352SOL    HW122672   5.319   6.605   4.764 -0.5451 -0.0717  0.8768
 7352SOL    HW222673   5.309   6.464   4.710 -0.2782 -0.5477  2.0231
 7353SOL     OW22674   4.376   7.182   1.436  0.1235 -0.2141  0.1114
 7353SOL    HW122675   4.298   7.127   1.432 -1.2111  1.4389  1.4040
 7353SOL    HW222676   4.344   7.269   1.411  1.5987  0.4714  0.5294
 7354SOL     OW22677   3.587   5.674   1.131  0.3791 -0.1810  0.2781
 7354SOL    HW122678   3.672   5.638   1.159  1.0381 -0.4312 -1.8476
 7354SOL    HW222679   3.530   5.597   1.125  0.4349 -0.2239  0.2846
 7355SOL     OW22680   2.802   0.049   1.609  0.0600  0.3459 -0.0129
 7355SOL    HW122681   2.720   0.098   1.606 -0.1680  0.0572  1.0050
 7355SOL    HW222682   2.795  -0.013   1.536 -1.1397 -0.4426  0.7308
 7356SOL     OW22683   2.368   1.307   6.808 -0.8823  0.0769 -0.5551
 7356SOL    HW122684   2.370   1.239   6.876  0.8043 -0.3730 -1.0248
 7356SOL    HW222685   2.288   1.357   6.828 -0.5896 -0.2014  1.6006
 7357SOL     OW22686   5.953   2.174   0.519 -0.8333  0.7714 -0.6006
 7357SOL    HW122687   5.993   2.258   0.541  2.4473 -1.4115  2.9434
 7357SOL    HW222688   6.019   2.128   0.467 -0.6498 -1.1325  1.1981
 7358SOL     OW22689   3.955   1.235   2.406  0.1354  0.0466  0.4256
 7358SOL    HW122690   3.918   1.188   2.331 -1.0034 -0.2598  1.1501
 7358SOL    HW222691   4.017   1.297   2.367  0.9694 -1.3852 -0.6195
 7359SOL     OW22692   3.564   0.364   0.652 -0.0463  0.5151  0.0424
 7359SOL    HW122693   3.624   0.381   0.725  0.8099 -0.4668 -0.3994
 7359SOL    HW222694   3.481   0.341   0.694  0.6998 -1.0162  0.7868
 7360SOL     OW22695   0.990   2.994   4.580  0.1474  0.0026 -0.1772
 7360SOL    HW122696   0.925   2.989   4.509 -0.1489  0.0178  0.0941
 7360SOL    HW222697   1.050   3.064   4.552 -0.6308  0.8075  0.1335
 7361SOL     OW22698   6.726   3.418   3.401 -0.1520 -0.2936 -0.9128
 7361SOL    HW122699   6.729   3.446   3.492 -3.3322  1.4342 -1.1823
 7361SOL    HW222700   6.768   3.332   3.400  3.2110  1.1044  1.4331
 7362SOL     OW22701   0.183   5.693   0.524  0.7448  0.0462 -0.3569
 7362SOL    HW122702   0.145   5.609   0.497  2.0564 -0.7269  0.1049
 7362SOL    HW222703   0.110   5.742   0.561 -0.0489 -0.8827 -0.6619
 7363SOL     OW22704   2.154   0.519   5.361  0.0180  0.1403  0.1181
 7363SOL    HW122705   2.103   0.520   5.442 -1.2887 -0.7284 -0.6528
 7363SOL    HW222706   2.239   0.556   5.386 -0.7274  0.9431  1.6156
 7364SOL     OW22707   2.868   4.051   3.095  0.2564  0.1215 -0.3306
 7364SOL    HW122708   2.835   4.058   3.184  2.8429 -1.0831  0.8390
 7364SOL    HW222709   2.924   4.128   3.084  1.5980 -0.7714 -0.0667
 7365SOL     OW22710   1.653   3.542   0.577  0.2490 -0.3791 -0.4747
 7365SOL    HW122711   1.734   3.537   0.628 -0.2283  2.4530  0.7648
 7365SOL    HW222712   1.595   3.477   0.617  0.8506 -0.1906  0.7582
 7366SOL     OW22713   2.301   6.357   2.966 -0.0560  0.0816  0.2341
 7366SOL    HW122714   2.211   6.346   2.995 -1.2301 -2.7652 -3.6586
 7366SOL    HW222715   2.296   6.424   2.898  0.0368 -2.1583 -2.1172
 7367SOL     OW22716   0.307   5.785   6.564  0.6707  0.1899  0.1572
 7367SOL    HW122717   0.272   5.859   6.614  0.2770 -0.1276  0.3602
 7367SOL    HW222718   0.237   5.763   6.502  1.9237  1.9047 -2.0241
 7368SOL     OW22719   0.152   6.107   2.797 -0.2932  0.4653  0.1161
 7368SOL    HW122720   0.189   6.154   2.872 -0.8860 -0.8869  1.3159
 7368SOL    HW222721   0.207   6.132   2.723 -0.9111  3.4434  0.5518
 7369SOL     OW22722   1.139   4.829   2.652  0.1686  0.7778  0.2859
 7369SOL    HW122723   1.173   4.774   2.722  1.2043  0.4636 -0.4350
 7369SOL    HW222724   1.195   4.809   2.577 -1.7159  0.0740 -1.0285
 7370SOL     OW22725   0.994   6.326   5.047 -0.0171 -0.0539 -0.1888
 7370SOL    HW122726   0.940   6.322   5.127 -0.0961  0.0391 -0.2371
 7370SOL    HW222727   1.082   6.345   5.079 -0.3638  1.8809 -0.2299
 7371SOL     OW22728   2.727   4.744   2.535 -0.1948  0.0696  0.4690
 7371SOL    HW122729   2.811   4.708   2.508 -0.1829  1.0414 -0.8859
 7371SOL    HW222730   2.744   4.779   2.623  1.0950  1.0822 -0.1454
 7372SOL     OW22731   2.853   2.568   4.235 -0.7285 -0.2873 -0.5127
 7372SOL    HW122732   2.884   2.659   4.229  1.1920 -0.8341  0.3864
 7372SOL    HW222733   2.878   2.540   4.323 -2.2093 -1.3827 -0.4155
 7373SOL     OW22734   2.712   4.779   0.526 -0.4461 -0.5930  0.2316
 7373SOL    HW122735   2.801   4.749   0.546  0.0760  0.8341  0.1291
 7373SOL    HW222736   2.725   4.856   0.471 -1.7540 -0.1761  0.4983
 7374SOL     OW22737   5.616   6.786   4.888 -0.2201  0.0214 -0.0065
 7374SOL    HW122738   5.530   6.745   4.894 -0.5571  0.8059  0.7221
 7374SOL    HW222739   5.650   6.783   4.977  0.4231 -0.0892 -0.2501
 7375SOL     OW22740   1.761   5.804   2.729 -0.1087  0.1564  0.2355
 7375SOL    HW122741   1.763   5.878   2.669  0.2149 -0.3049 -0.3279
 7375SOL    HW222742   1.843   5.810   2.778  0.2507 -0.2269 -0.3055
 7376SOL     OW22743   4.470   4.526   5.013  0.5607 -0.6155 -0.5830
 7376SOL    HW122744   4.440   4.581   5.085  1.6889 -1.5403  0.6312
 7376SOL    HW222745   4.451   4.578   4.935 -1.7485 -0.0742  0.2564
 7377SOL     OW22746   1.101   1.654   4.311 -0.1826 -0.5790 -0.1045
 7377SOL    HW122747   1.149   1.572   4.327  1.0449  0.4775  2.1093
 7377SOL    HW222748   1.087   1.691   4.399 -0.9442  1.4521 -1.0235
 7378SOL     OW22749   5.596   4.887   4.534  0.4274  0.2860  0.1770
 7378SOL    HW122750   5.520   4.935   4.568 -0.0371  0.4645 -1.0712
 7378SOL    HW222751   5.667   4.913   4.592 -0.5887 -0.4910  1.8739
 7379SOL     OW22752   2.689   6.132   6.406  0.5961 -0.0697  0.4536
 7379SOL    HW122753   2.743   6.197   6.361  1.3646  0.9272  2.6634
 7379SOL    HW222754   2.683   6.164   6.496 -4.2016  0.1953  0.2997
 7380SOL     OW22755   4.261   3.198   6.336  0.1250  0.4472  0.0650
 7380SOL    HW122756   4.309   3.192   6.253  1.5646  0.4886  0.8574
 7380SOL    HW222757   4.169   3.197   6.311  0.5353  0.6641 -1.5458
 7381SOL     OW22758   3.270   6.157   4.639  0.0883 -0.4978 -0.0190
 7381SOL    HW122759   3.223   6.207   4.573 -0.6934  0.0066  0.8836
 7381SOL    HW222760   3.224   6.178   4.721 -0.2022 -2.6180  0.4061
 7382SOL     OW22761   5.495   4.286   5.568 -0.0016 -0.1315 -0.3026
 7382SOL    HW122762   5.400   4.277   5.578 -0.4557  0.8103 -3.0039
 7382SOL    HW222763   5.528   4.294   5.658 -2.4445 -0.4552  0.7064
 7383SOL     OW22764   6.922   2.046   3.842 -0.0385  0.2194  0.1883
 7383SOL    HW122765   7.001   2.071   3.794  0.3782 -0.1638  0.6677
 7383SOL    HW222766   6.872   1.992   3.780  0.0369  0.5143 -0.1354
 7384SOL     OW22767   4.248   5.246   1.876 -0.5806  0.4825  0.2036
 7384SOL    HW122768   4.211   5.195   1.803  1.1450  1.1183 -1.1848
 7384SOL    HW222769   4.281   5.325   1.835  1.0199  0.5657  1.5780
 7385SOL     OW22770   0.228   3.542   4.006 -0.0743 -0.0471  0.2546
 7385SOL    HW122771   0.247   3.498   4.089  1.8387  0.2797  0.0374
 7385SOL    HW222772   0.276   3.625   4.012 -0.5690  0.3343 -0.8610
 7386SOL     OW22773   6.202   2.931   0.236 -0.5768 -0.3367 -0.1786
 7386SOL    HW122774   6.119   2.885   0.227 -0.3436 -0.7353 -0.3318
 7386SOL    HW222775   6.247   2.887   0.307 -0.7230  0.2344  0.2754
 7387SOL     OW22776   5.957   3.949   4.774  0.0867  0.2287  0.0499
 7387SOL    HW122777   5.918   3.936   4.860 -0.9038  1.2184 -0.2174
 7387SOL    HW222778   6.048   3.973   4.791  0.0252 -0.0532  0.7914
 7388SOL     OW22779   1.667   4.589   2.347 -0.7681 -0.1799  0.3091
 7388SOL    HW122780   1.605   4.603   2.419  0.5446 -0.8622  1.6254
 7388SOL    HW222781   1.746   4.635   2.374 -0.2141 -0.5484 -0.6431
 7389SOL     OW22782   3.150   1.533   3.565  0.2000  0.7566  0.5301
 7389SOL    HW122783   3.062   1.495   3.567  0.7650 -0.5985  2.3554
 7389SOL    HW222784   3.136   1.627   3.573 -1.1367  0.7222 -1.0403
 7390SOL     OW22785   1.746   5.533   2.956 -0.5306  0.2646  0.6302
 7390SOL    HW122786   1.674   5.595   2.955 -1.8215 -1.1613  0.5021
 7390SOL    HW222787   1.821   5.583   2.988 -1.4368  1.9241  0.2642
 7391SOL     OW22788   2.063   5.363   2.559 -0.6176 -0.0840  0.0744
 7391SOL    HW122789   1.988   5.419   2.542 -1.7024 -1.3628  0.4513
 7391SOL    HW222790   2.112   5.408   2.628 -0.6354  1.1117 -0.6704
 7392SOL     OW22791   0.563   1.198   0.948 -0.3451 -0.4954  0.1549
 7392SOL    HW122792   0.494   1.199   1.014 -0.7155  0.1995 -0.2302
 7392SOL    HW222793   0.527   1.249   0.875  0.6965  0.1633  0.0811
 7393SOL     OW22794   6.599   3.125   0.891 -0.0854 -0.1106 -0.1375
 7393SOL    HW122795   6.595   3.221   0.886 -0.6739 -0.0517  1.0225
 7393SOL    HW222796   6.668   3.107   0.955 -0.8770 -0.4108  0.6534
 7394SOL     OW22797   1.220   5.027   4.456  0.4306 -0.0236 -0.0293
 7394SOL    HW122798   1.245   4.967   4.526 -0.1607 -2.8196 -2.0277
 7394SOL    HW222799   1.300   5.074   4.435  1.8613 -2.4394 -0.4265
 7395SOL     OW22800   4.758   4.049   1.119  0.0971  0.2256  0.3481
 7395SOL    HW122801   4.723   4.050   1.208  2.5030 -0.4672  1.3921
 7395SOL    HW222802   4.714   3.976   1.076  0.8782 -1.2211  1.9003
 7396SOL     OW22803   2.241   6.699   1.708 -0.0749  0.2726  0.7012
 7396SOL    HW122804   2.222   6.620   1.758  1.5842 -0.2979  0.5069
 7396SOL    HW222805   2.310   6.743   1.758  2.7900 -1.1018 -1.6694
 7397SOL     OW22806   7.209   3.801   0.445 -0.5462 -0.2458 -0.1038
 7397SOL    HW122807   7.156   3.787   0.367 -1.5209  1.7485  0.1387
 7397SOL    HW222808   7.160   3.760   0.516 -0.4182 -0.7291 -0.2930
 7398SOL     OW22809   4.911   4.760   5.425  0.1651 -0.5325  0.1051
 7398SOL    HW122810   4.831   4.713   5.401 -0.7147  1.5813 -1.4026
 7398SOL    HW222811   4.917   4.831   5.362  1.9327  0.8507  1.7049
 7399SOL     OW22812   6.041   4.760   3.166  0.4780  0.5923 -0.2173
 7399SOL    HW122813   5.955   4.801   3.166  0.5550  0.8376 -2.2555
 7399SOL    HW222814   6.080   4.788   3.249 -0.7524  1.8648 -0.0221
 7400SOL     OW22815   7.205   0.131   2.463 -0.7306 -0.4411 -0.2586
 7400SOL    HW122816   7.207   0.036   2.455  0.2926 -0.4989  0.4315
 7400SOL    HW222817   7.293   0.154   2.492 -0.5012  0.8540 -1.8095
 7401SOL     OW22818   2.207   3.842   0.283 -0.0611 -0.6982 -0.0387
 7401SOL    HW122819   2.179   3.901   0.354  0.0090  0.9229 -1.2923
 7401SOL    HW222820   2.254   3.771   0.327 -1.0177 -0.3433  1.6161
 7402SOL     OW22821   2.022   6.677   7.107 -0.3926 -0.0282  0.3446
 7402SOL    HW122822   2.045   6.762   7.144 -1.2541  0.0966  0.6183
 7402SOL    HW222823   2.084   6.664   7.035 -0.5036  1.0103  0.0579
 7403SOL     OW22824   3.079   4.902   5.953  0.1698 -0.3088 -0.3880
 7403SOL    HW122825   3.091   4.809   5.933 -0.8828 -0.0526 -2.4883
 7403SOL    HW222826   3.005   4.929   5.898 -0.6614  1.3951  1.4295
 7404SOL     OW22827   5.985   6.100   6.810 -0.4310  0.3067 -0.1949
 7404SOL    HW122828   5.928   6.157   6.862 -1.0432 -0.6068  0.1708
 7404SOL    HW222829   6.072   6.139   6.818 -0.6882  0.7075  0.7527
 7405SOL     OW22830   3.527   1.934   5.945  0.2826  0.0387  0.1847
 7405SOL    HW122831   3.499   1.918   6.035 -0.5706  0.3472 -0.0193
 7405SOL    HW222832   3.460   1.891   5.891  1.2002 -0.8340 -0.3127
 7406SOL     OW22833   3.146   0.028   6.853 -0.3867  0.3576  0.5370
 7406SOL    HW122834   3.128   0.020   6.947 -1.4304  1.5252  0.4635
 7406SOL    HW222835   3.146  -0.062   6.821  0.4966 -0.0922  1.7406
 7407SOL     OW22836   4.985   3.245   4.368  0.4464  0.2969 -0.6618
 7407SOL    HW122837   5.002   3.242   4.274 -1.3386  1.0609 -1.0514
 7407SOL    HW222838   4.895   3.216   4.378  0.3647  0.9211  0.7350
 7408SOL     OW22839   2.567   5.177   6.706 -0.3140  0.1515  0.0905
 7408SOL    HW122840   2.493   5.135   6.663  0.5727 -2.6056  1.0460
 7408SOL    HW222841   2.635   5.180   6.640 -0.2749 -0.2303  0.1134
 7409SOL     OW22842   3.943   0.888   0.004 -0.0382  0.0791  0.0108
 7409SOL    HW122843   3.971   0.979  -0.003  1.2041 -0.3104 -0.3877
 7409SOL    HW222844   3.911   0.865  -0.083  1.0774 -0.2985 -0.3111
 7410SOL     OW22845   5.030   2.693   3.388 -0.0139  0.0575  0.0190
 7410SOL    HW122846   4.982   2.769   3.421  1.0610  0.5773  0.4197
 7410SOL    HW222847   4.977   2.661   3.315 -0.4595  1.2090 -0.1803
 7411SOL     OW22848   4.420   2.720   6.812 -1.3132  0.2957 -0.0189
 7411SOL    HW122849   4.485   2.708   6.743 -2.6123  1.3602 -1.4946
 7411SOL    HW222850   4.411   2.815   6.821 -0.8333  0.1922  1.9816
 7412SOL     OW22851   4.164   4.918   5.740  0.0643 -0.0576  0.5651
 7412SOL    HW122852   4.242   4.863   5.730  1.4601  2.1658 -1.6941
 7412SOL    HW222853   4.196   4.998   5.782 -1.3612  0.2783  1.0846
 7413SOL     OW22854   7.001   4.618   2.614  0.0882 -0.0885 -0.0399
 7413SOL    HW122855   7.051   4.558   2.558 -1.9441 -0.4898 -1.5363
 7413SOL    HW222856   7.039   4.704   2.597  0.6045 -0.4405 -0.7276
 7414SOL     OW22857   6.214   4.177   2.529  0.1436 -0.8119  0.6108
 7414SOL    HW122858   6.275   4.250   2.533  0.8861 -1.4604  1.8879
 7414SOL    HW222859   6.154   4.192   2.603  0.3263 -1.4970  0.9071
 7415SOL     OW22860   1.214   0.174   4.127 -0.0059  0.3418  0.5139
 7415SOL    HW122861   1.287   0.174   4.065  0.8034  1.7510  1.4160
 7415SOL    HW222862   1.139   0.147   4.074  0.7966  0.7448 -0.9158
 7416SOL     OW22863   0.669   5.961   5.090  0.4918  0.0553  0.0552
 7416SOL    HW122864   0.765   5.964   5.094  0.5861 -0.1759 -1.3932
 7416SOL    HW222865   0.642   6.052   5.079  0.6045  0.0411 -0.3540
 7417SOL     OW22866   4.932   3.985   4.518 -0.1856 -0.3086  0.2641
 7417SOL    HW122867   4.969   3.904   4.484  0.7822 -0.4064  1.4622
 7417SOL    HW222868   4.986   4.006   4.594 -1.8092  0.2698  1.3131
 7418SOL     OW22869   2.661   3.415   0.030 -0.2721 -0.3847  0.3918
 7418SOL    HW122870   2.686   3.379  -0.056 -0.9721 -0.9173  0.4059
 7418SOL    HW222871   2.700   3.354   0.093  0.0243 -0.1361  0.4504
 7419SOL     OW22872   0.396   0.006   4.409  0.3819  0.2105  0.4980
 7419SOL    HW122873   0.356  -0.079   4.421 -0.4340  0.7288  1.6649
 7419SOL    HW222874   0.488  -0.007   4.432  0.1251 -0.2201  1.3002
 7420SOL     OW22875   0.830   0.115   5.495  0.3675 -0.2084  0.0329
 7420SOL    HW122876   0.783   0.064   5.429 -0.3493 -2.0526  1.8555
 7420SOL    HW222877   0.776   0.193   5.507 -0.5905 -0.8266 -0.1128
 7421SOL     OW22878   3.177   5.774   1.522 -0.2330  0.1060  0.4517
 7421SOL    HW122879   3.113   5.842   1.543 -1.0838 -0.8458  1.0069
 7421SOL    HW222880   3.215   5.802   1.439 -0.8556  1.0389  0.4642
 7422SOL     OW22881   4.087   1.901   0.887 -0.3198  0.1887 -0.6363
 7422SOL    HW122882   4.051   1.830   0.940  0.4286  0.9107  0.9069
 7422SOL    HW222883   4.011   1.940   0.844 -1.6302  1.9640  2.8609
 7423SOL     OW22884   3.265   2.801   4.064  0.3879  0.1410 -0.0458
 7423SOL    HW122885   3.182   2.831   4.028  1.0202  0.4322 -1.3589
 7423SOL    HW222886   3.293   2.731   4.005 -0.3372 -2.0720  2.1206
 7424SOL     OW22887   4.737   2.926   2.292  0.0757 -0.9384 -0.2049
 7424SOL    HW122888   4.763   3.016   2.313 -1.6242  0.0281 -1.9816
 7424SOL    HW222889   4.817   2.885   2.259  0.3964  0.6218 -1.4762
 7425SOL     OW22890   6.364   0.742   2.138  0.2749  0.6197 -0.1692
 7425SOL    HW122891   6.384   0.835   2.123 -0.2636  0.6374 -0.8527
 7425SOL    HW222892   6.302   0.720   2.068  1.6242 -0.6758 -1.0094
 7426SOL     OW22893   5.878   3.873   6.940 -0.5822 -0.1363 -0.6000
 7426SOL    HW122894   5.792   3.915   6.944 -0.6812 -0.4045  2.7195
 7426SOL    HW222895   5.887   3.830   7.024  2.7650 -0.2735 -0.9214
 7427SOL     OW22896   5.916   2.516   2.670  0.1925  0.2057 -0.1456
 7427SOL    HW122897   5.838   2.566   2.694 -0.2962 -0.2169 -0.8304
 7427SOL    HW222898   5.958   2.568   2.602  1.1313  0.9915  0.9985
 7428SOL     OW22899   2.425   4.002   7.056 -0.2821  0.4643  0.4942
 7428SOL    HW122900   2.465   3.943   7.120 -2.1743 -3.0285 -1.2068
 7428SOL    HW222901   2.339   4.023   7.094 -0.8879 -0.5571 -0.2643
 7429SOL     OW22902   6.482   3.029   1.797 -0.1555  0.1147  0.1066
 7429SOL    HW122903   6.574   3.046   1.781 -0.4109  1.5691  0.0503
 7429SOL    HW222904   6.464   2.946   1.752  1.3665 -0.7846  1.0929
 7430SOL     OW22905   6.689   5.327   4.763  0.2071 -0.2022  0.5062
 7430SOL    HW122906   6.601   5.365   4.759  0.0535 -0.3731  1.8439
 7430SOL    HW222907   6.677   5.244   4.810  0.7511 -1.2919 -1.1838
 7431SOL     OW22908   5.879   5.487   4.910  0.1042 -0.3694  0.1442
 7431SOL    HW122909   5.957   5.438   4.885 -0.6174 -1.1620 -0.6253
 7431SOL    HW222910   5.807   5.424   4.903 -0.4581 -0.0087  2.0614
 7432SOL     OW22911   5.744   3.418   6.847 -0.0025 -0.0835  0.2204
 7432SOL    HW122912   5.798   3.494   6.826 -0.4884  0.1660 -0.1171
 7432SOL    HW222913   5.792   3.344   6.809  2.1510 -0.4435  3.1835
 7433SOL     OW22914   3.849   0.321   7.058  0.3377 -0.1930 -0.1586
 7433SOL    HW122915   3.784   0.317   7.128  1.4414  0.1281  0.9215
 7433SOL    HW222916   3.896   0.403   7.075  2.9640 -1.7970  0.9087
 7434SOL     OW22917   4.566   5.273   4.137  0.8146  0.6600  0.1957
 7434SOL    HW122918   4.533   5.354   4.099 -1.4810 -0.6119 -0.7320
 7434SOL    HW222919   4.646   5.254   4.087  1.1419  2.1046  0.1401
 7435SOL     OW22920   5.031   0.944   3.688 -0.7641 -0.0288 -0.0620
 7435SOL    HW122921   5.038   0.881   3.761  1.3967  0.6961  0.4200
 7435SOL    HW222922   4.949   0.920   3.645  0.1984 -3.6049 -0.2749
 7436SOL     OW22923   5.852   3.323   2.004 -0.0075 -0.1256  0.6523
 7436SOL    HW122924   5.866   3.343   1.912 -0.0926  1.5545  0.9883
 7436SOL    HW222925   5.921   3.370   2.050  0.7039 -1.8092  1.4144
 7437SOL     OW22926   3.701   1.864   5.032 -0.2629  0.1804  0.1818
 7437SOL    HW122927   3.653   1.788   5.000 -0.4843  0.7631 -0.9015
 7437SOL    HW222928   3.787   1.830   5.055 -1.0515 -0.8246  1.8566
 7438SOL     OW22929   3.967   6.186   2.307  0.0687  0.3468  0.4614
 7438SOL    HW122930   3.930   6.121   2.366 -0.2044 -2.3190 -2.4181
 7438SOL    HW222931   3.894   6.214   2.252  1.1141 -0.8772 -1.6918
 7439SOL     OW22932   0.178   4.571   3.658  0.3305 -0.6246 -0.3780
 7439SOL    HW122933   0.228   4.510   3.603  1.3655  0.6487 -0.8966
 7439SOL    HW222934   0.099   4.590   3.606  0.4949 -0.7216 -0.6661
 7440SOL     OW22935   7.109   5.575   0.327  0.3217  0.2072 -0.1464
 7440SOL    HW122936   7.101   5.535   0.414 -1.8641  0.6515 -0.0809
 7440SOL    HW222937   7.033   5.633   0.321  0.5996  0.4076 -2.2511
 7441SOL     OW22938   0.376   7.181   2.521 -0.0636  0.5154  0.1315
 7441SOL    HW122939   0.354   7.273   2.507  1.7963  0.9214 -0.3058
 7441SOL    HW222940   0.446   7.163   2.459  0.0053 -1.0451  0.6202
 7442SOL     OW22941   0.439   0.855   4.966 -0.4796 -0.2480  0.2981
 7442SOL    HW122942   0.439   0.916   4.893 -0.5551  0.0144  0.5137
 7442SOL    HW222943   0.355   0.808   4.958 -0.9850  0.5429  0.8370
 7443SOL     OW22944   7.043   3.322   4.041  0.0402 -0.1694  0.0935
 7443SOL    HW122945   7.056   3.300   3.949  2.2912 -2.8586  0.9260
 7443SOL    HW222946   7.080   3.410   4.050 -0.7011  0.3611 -1.6159
 7444SOL     OW22947   4.055   1.614   3.806  0.3194 -0.4195 -0.2434
 7444SOL    HW122948   4.109   1.677   3.757  0.1768  0.3222  0.5227
 7444SOL    HW222949   4.024   1.664   3.881 -0.8842 -1.0293 -0.3173
 7445SOL     OW22950   2.651   6.755   6.347  0.4145  0.4545 -0.3057
 7445SOL    HW122951   2.679   6.700   6.420  0.2243  1.2677  0.3885
 7445SOL    HW222952   2.590   6.700   6.298  1.4165 -0.5002 -0.5138
 7446SOL     OW22953   6.943   1.412   3.724 -0.0962  0.1804  0.3095
 7446SOL    HW122954   6.872   1.359   3.761 -0.1618  0.5069  0.6657
 7446SOL    HW222955   6.917   1.502   3.742 -0.2583  0.3622 -0.7867
 7447SOL     OW22956   6.108   6.731   0.262  0.1603 -0.5140  0.2739
 7447SOL    HW122957   6.058   6.676   0.322 -0.2475  0.3574  0.7633
 7447SOL    HW222958   6.042   6.789   0.223  0.0470 -2.4608 -2.6802
 7448SOL     OW22959   3.374   1.166   0.217  0.2981 -0.0939  0.0497
 7448SOL    HW122960   3.332   1.250   0.201  1.6328  0.3222 -1.5516
 7448SOL    HW222961   3.366   1.153   0.312  1.2265  2.5078  0.5618
 7449SOL     OW22962   6.990   1.140   4.152 -0.2598 -0.5722  0.0628
 7449SOL    HW122963   6.998   1.229   4.118 -0.1204 -0.4948  0.2970
 7449SOL    HW222964   7.069   1.127   4.204 -0.9184 -0.3501  1.1391
 7450SOL     OW22965   1.138   1.702   2.882 -0.5764 -0.2903  0.2418
 7450SOL    HW122966   1.108   1.774   2.937  1.6988 -1.2967  3.0836
 7450SOL    HW222967   1.109   1.623   2.927 -0.7464 -1.2137 -1.3893
 7451SOL     OW22968   5.617   2.863   0.896 -0.3673 -0.4101 -0.0667
 7451SOL    HW122969   5.605   2.796   0.964 -0.9526 -1.3292 -1.0347
 7451SOL    HW222970   5.558   2.934   0.921 -0.1548 -0.4906  0.6847
 7452SOL     OW22971   2.817   1.621   6.658 -0.2485 -0.4768 -0.6772
 7452SOL    HW122972   2.760   1.548   6.683 -0.9972 -0.5891 -2.4834
 7452SOL    HW222973   2.882   1.582   6.600 -0.7265  0.2741 -1.7557
 7453SOL     OW22974   5.934   5.145   4.862  0.0330 -0.0303 -0.1902
 7453SOL    HW122975   5.995   5.077   4.892  0.4287 -0.5020 -1.9506
 7453SOL    HW222976   5.876   5.159   4.936  0.4762 -1.6826  0.5219
 7454SOL     OW22977   6.580   5.828   0.430  0.0583 -0.1350  0.5718
 7454SOL    HW122978   6.574   5.763   0.499  0.7519 -0.2011  0.5739
 7454SOL    HW222979   6.490   5.856   0.415 -0.1006 -0.1443  1.4735
 7455SOL     OW22980   3.949   2.738   1.788 -0.0149  0.4102 -0.4725
 7455SOL    HW122981   4.000   2.810   1.752  1.1385  0.2922  0.8505
 7455SOL    HW222982   3.916   2.692   1.711  1.4791  0.7863 -1.3820
 7456SOL     OW22983   3.628   0.356   0.397  0.3986  0.0053  0.1033
 7456SOL    HW122984   3.600   0.351   0.488  0.7364 -1.2454  0.1605
 7456SOL    HW222985   3.620   0.449   0.374  0.8598  0.4401  1.5794
 7457SOL     OW22986   0.418   5.122   4.169  0.3910 -0.4109 -0.5075
 7457SOL    HW122987   0.376   5.054   4.221  2.2608 -0.1127  1.5252
 7457SOL    HW222988   0.431   5.082   4.083 -0.6487 -1.7572 -0.0724
 7458SOL     OW22989   1.594   1.131   3.043  0.2253 -0.0787 -0.1982
 7458SOL    HW122990   1.579   1.080   3.122  0.1199 -0.3337 -0.3811
 7458SOL    HW222991   1.634   1.213   3.074 -0.5346  0.1492  0.1879
 7459SOL     OW22992   1.477   3.356   0.682  0.5173  0.6181  0.4282
 7459SOL    HW122993   1.384   3.377   0.692  0.6662  1.7996 -0.3779
 7459SOL    HW222994   1.507   3.337   0.770 -0.4869  0.2142  0.6992
 7460SOL     OW22995   1.264   6.161   0.734  0.2331 -0.1542 -0.7764
 7460SOL    HW122996   1.355   6.184   0.716  0.0067  0.8680 -0.6910
 7460SOL    HW222997   1.250   6.079   0.687  1.5398 -0.9628  0.1857
 7461SOL     OW22998   6.920   2.248   5.545 -0.2655  0.3271  0.5234
 7461SOL    HW122999   6.882   2.165   5.515  2.1462  0.0046 -1.9420
 7461SOL    HW223000   6.889   2.313   5.482 -0.7613  1.0296  1.4594
 7462SOL     OW23001   3.027   6.042   2.536  0.3380  0.0496  0.3848
 7462SOL    HW123002   2.998   6.126   2.571  2.3620  0.4384  1.3176
 7462SOL    HW223003   2.968   6.024   2.464  0.8993  3.1735 -1.0158
 7463SOL     OW23004   1.061   2.115   2.040  0.1411  0.2704  0.4321
 7463SOL    HW123005   1.062   2.027   2.002 -1.8702  0.3053  0.1858
 7463SOL    HW223006   1.061   2.174   1.964 -1.8052  0.3757  0.4530
 7464SOL     OW23007   1.287   4.190   5.075 -0.2142  0.5035 -0.3829
 7464SOL    HW123008   1.381   4.187   5.094 -0.4756  0.7608  1.0801
 7464SOL    HW223009   1.275   4.271   5.025  0.4189  0.1258 -1.1826
 7465SOL     OW23010   4.189   4.753   3.606 -0.0670  0.5893  0.5743
 7465SOL    HW123011   4.208   4.846   3.619  2.5534  0.1083  0.7302
 7465SOL    HW223012   4.205   4.713   3.692  0.1663 -0.1867  0.1830
 7466SOL     OW23013   2.348   6.426   7.097 -0.0630  0.6267 -0.1578
 7466SOL    HW123014   2.427   6.433   7.150 -0.6859 -0.4571  0.9716
 7466SOL    HW223015   2.373   6.367   7.025 -0.2830 -1.1635  1.1648
 7467SOL     OW23016   6.997   4.999   6.120 -0.2341  0.1160 -0.0279
 7467SOL    HW123017   7.057   4.930   6.093  0.6961 -0.0458  2.2376
 7467SOL    HW223018   6.928   4.953   6.168 -0.5631  0.5929 -0.0357
 7468SOL     OW23019   5.142   0.061   0.330 -0.2545  0.0609  0.7434
 7468SOL    HW123020   5.118  -0.015   0.276 -0.1285 -0.7842  1.8513
 7468SOL    HW223021   5.234   0.075   0.309 -0.4045  0.2296  0.1634
 7469SOL     OW23022   2.966   1.802   7.018 -0.4482 -0.4375 -0.0504
 7469SOL    HW123023   3.001   1.733   7.074  1.3236 -0.5027 -1.1876
 7469SOL    HW223024   3.021   1.801   6.940 -0.2348  2.3386 -0.0520
 7470SOL     OW23025   4.871   4.997   1.131  0.0278  0.0686  0.0052
 7470SOL    HW123026   4.864   5.075   1.186  0.3977  0.3633 -0.3632
 7470SOL    HW223027   4.790   4.997   1.080  0.9381  1.3967 -1.5240
 7471SOL     OW23028   4.044   5.740   2.280  0.3859 -0.1781 -0.3619
 7471SOL    HW123029   3.995   5.744   2.362  1.4578  0.8581  0.2460
 7471SOL    HW223030   4.136   5.735   2.307  0.6923 -1.1381 -1.4935
 7472SOL     OW23031   3.840   4.684   0.209 -0.5066 -0.6143 -0.1083
 7472SOL    HW123032   3.797   4.770   0.210  0.1557 -0.2777  0.2858
 7472SOL    HW223033   3.770   4.622   0.190 -1.3446 -0.1766  1.3753
 7473SOL     OW23034   2.927   0.604   5.330  0.1458 -0.0417 -0.1157
 7473SOL    HW123035   2.910   0.520   5.373 -0.3002  0.4231  0.6396
 7473SOL    HW223036   2.844   0.626   5.287  0.1646  0.1714 -0.0417
 7474SOL     OW23037   4.367   2.399   0.716  0.3676 -0.0646 -0.3176
 7474SOL    HW123038   4.452   2.425   0.679  0.4311 -1.9498 -1.6340
 7474SOL    HW223039   4.334   2.333   0.656 -1.4777 -0.2986  0.8696
 7475SOL     OW23040   0.799   5.672   1.509  0.5867 -0.2378  0.3326
 7475SOL    HW123041   0.803   5.615   1.432 -0.3679 -2.6384  1.9116
 7475SOL    HW223042   0.867   5.737   1.495  1.1936 -1.2661 -2.0060
 7476SOL     OW23043   1.224   1.794   4.814 -0.4259  0.3627 -0.0633
 7476SOL    HW123044   1.304   1.747   4.839 -1.2599 -0.4236  1.2198
 7476SOL    HW223045   1.212   1.860   4.882 -1.8974 -0.8057  0.8635
 7477SOL     OW23046   1.680   6.857   2.825 -0.3063 -0.7624 -0.4953
 7477SOL    HW123047   1.588   6.881   2.835  0.2910  1.5774 -0.0291
 7477SOL    HW223048   1.713   6.915   2.756  0.9095 -1.3223 -0.4162
 7478SOL     OW23049   0.002   5.376   4.711 -0.2539  0.3640  0.8177
 7478SOL    HW123050   0.094   5.350   4.714 -0.0128  1.1445  0.3615
 7478SOL    HW223051  -0.016   5.392   4.618 -0.5882  1.1200  1.0023
 7479SOL     OW23052   4.652   2.879   1.804 -0.1236 -0.2105  0.0943
 7479SOL    HW123053   4.720   2.946   1.808  0.2659 -0.6556  1.9364
 7479SOL    HW223054   4.571   2.928   1.795  0.3090  0.3998 -0.6508
 7480SOL     OW23055   1.397   1.010   7.082  0.0045  0.5726 -0.7405
 7480SOL    HW123056   1.482   1.053   7.078  0.1635  0.5511  1.3720
 7480SOL    HW223057   1.417   0.920   7.107 -0.4746 -0.2905 -3.1744
 7481SOL     OW23058   5.043   1.467   5.622  0.6688 -0.1327  0.0025
 7481SOL    HW123059   5.101   1.435   5.691 -1.1810 -0.1922  1.6333
 7481SOL    HW223060   5.074   1.424   5.543  2.6644 -0.3417  0.8295
 7482SOL     OW23061   4.225   7.052   6.132  0.2160 -0.5863  0.1614
 7482SOL    HW123062   4.215   6.964   6.095  0.0337 -0.0133 -1.1947
 7482SOL    HW223063   4.142   7.095   6.116 -0.4921 -0.8178  2.7696
 7483SOL     OW23064   4.717   2.731   0.919  0.3588  0.0222  0.2544
 7483SOL    HW123065   4.722   2.742   1.014  0.6879  2.4042  0.0038
 7483SOL    HW223066   4.746   2.814   0.883  1.0983 -1.1164 -1.9829
 7484SOL     OW23067   4.503   3.389   0.076 -0.1313  0.2438 -0.3092
 7484SOL    HW123068   4.474   3.303   0.045 -0.2621 -0.3477  1.3568
 7484SOL    HW223069   4.436   3.449   0.044 -1.7028 -0.7112  1.0053
 7485SOL     OW23070   5.551   4.129   1.375  0.4491  0.0991 -0.3386
 7485SOL    HW123071   5.505   4.207   1.405  3.4411  1.8362  0.1317
 7485SOL    HW223072   5.605   4.103   1.449  1.2519 -1.0150 -1.2763
 7486SOL     OW23073   3.347   1.384   5.941 -0.2266  0.0657  0.7130
 7486SOL    HW123074   3.298   1.371   6.022 -0.6141  1.3961  0.7091
 7486SOL    HW223075   3.437   1.364   5.963  0.0825  2.6326  2.1202
 7487SOL     OW23076   7.223   6.176   6.445 -0.3385  0.0195  0.8217
 7487SOL    HW123077   7.272   6.222   6.376 -1.6281  1.1068  0.5741
 7487SOL    HW223078   7.290   6.143   6.504  0.7161  1.1994  0.3423
 7488SOL     OW23079   5.545   2.378   0.391 -0.2326  0.1832  0.3510
 7488SOL    HW123080   5.572   2.438   0.461 -0.8306  0.6402  0.2034
 7488SOL    HW223081   5.461   2.343   0.421 -0.8413  0.9247 -0.4534
 7489SOL     OW23082   0.290   6.661   5.320  0.1338 -0.3057  0.7371
 7489SOL    HW123083   0.265   6.687   5.232  0.0522 -1.5231  0.3869
 7489SOL    HW223084   0.291   6.743   5.370  0.5262  0.4476 -0.4660
 7490SOL     OW23085   0.888   4.719   7.059  0.3841 -0.2118 -0.4430
 7490SOL    HW123086   0.951   4.647   7.067  0.3742 -0.1818 -0.0976
 7490SOL    HW223087   0.841   4.699   6.978 -0.4320 -1.2548  0.2591
 7491SOL     OW23088   5.598   3.052   4.526 -0.3038  0.7381 -0.3070
 7491SOL    HW123089   5.664   3.071   4.592  0.5186  0.1179 -0.9367
 7491SOL    HW223090   5.515   3.049   4.575  0.0840  1.7643  0.4476
 7492SOL     OW23091   5.342   5.466   3.199  0.0257  0.1346 -0.2473
 7492SOL    HW123092   5.248   5.486   3.207  0.2497  0.5967  1.6496
 7492SOL    HW223093   5.346   5.370   3.195 -0.6233  0.1426 -2.5298
 7493SOL     OW23094   1.467   2.562   4.111 -0.3436 -0.5269  0.0438
 7493SOL    HW123095   1.481   2.509   4.032 -0.8578  2.4185 -2.1800
 7493SOL    HW223096   1.549   2.611   4.121 -0.7853  0.1145  0.5613
 7494SOL     OW23097   4.898   0.158   0.728  0.4995 -0.9227  0.0694
 7494SOL    HW123098   4.920   0.176   0.637 -0.4781 -1.2832 -0.2462
 7494SOL    HW223099   4.979   0.176   0.776  0.5640  0.9511 -0.6442
 7495SOL     OW23100   2.334   2.868   5.178 -0.0584  0.1712 -0.6418
 7495SOL    HW123101   2.392   2.833   5.110  0.7011 -0.4287  0.2791
 7495SOL    HW223102   2.324   2.961   5.156 -0.3887 -0.1490 -1.9394
 7496SOL     OW23103   0.826   0.877   6.097 -0.1194 -0.3480 -0.0171
 7496SOL    HW123104   0.780   0.961   6.091  0.3635 -0.0860 -0.1082
 7496SOL    HW223105   0.846   0.854   6.006  3.0403  1.2996  0.1223
 7497SOL     OW23106   2.632   3.448   4.195  0.3386  0.2512 -0.5941
 7497SOL    HW123107   2.643   3.443   4.101  1.1146  1.4921 -0.5937
 7497SOL    HW223108   2.566   3.517   4.208  0.3122  0.1630 -0.2213
 7498SOL     OW23109   6.880   1.604   2.227 -0.3009  0.6700 -0.1406
 7498SOL    HW123110   6.792   1.580   2.197 -0.4626 -0.4002  1.1193
 7498SOL    HW223111   6.891   1.557   2.309  1.5645  0.5795 -0.4116
 7499SOL     OW23112   4.506   4.716   6.010  0.0183  0.0698 -0.3052
 7499SOL    HW123113   4.474   4.629   5.984 -0.4205  0.3078 -0.5761
 7499SOL    HW223114   4.601   4.706   6.013  0.1734  0.1423 -2.5941
 7500SOL     OW23115   1.879   0.001   3.208  0.1211 -0.1564  0.0891
 7500SOL    HW123116   1.790  -0.027   3.228  0.1314  0.7235  1.5403
 7500SOL    HW223117   1.870   0.095   3.188  0.5692 -0.3265 -0.9338
 7501SOL     OW23118   4.037   2.383   2.871  0.3327 -0.3874  0.0646
 7501SOL    HW123119   3.999   2.297   2.890 -0.9111 -0.2111 -1.3952
 7501SOL    HW223120   4.084   2.371   2.789  0.1086  0.3301 -0.1817
 7502SOL     OW23121   3.997   6.347   3.386  0.0065 -0.5007  0.3574
 7502SOL    HW123122   3.934   6.411   3.352  1.0116  0.5403  0.3904
 7502SOL    HW223123   4.082   6.375   3.351  0.5997 -1.2974  1.1006
 7503SOL     OW23124   0.695   4.692   4.652 -0.3948  0.1771  0.2840
 7503SOL    HW123125   0.625   4.627   4.666  1.2649 -1.5787  0.9119
 7503SOL    HW223126   0.669   4.739   4.573 -1.0721 -2.1575 -0.9780
 7504SOL     OW23127   3.660   6.608   1.598  0.0322 -0.1264  0.4297
 7504SOL    HW123128   3.691   6.665   1.669 -0.9432  1.0942 -0.0875
 7504SOL    HW223129   3.610   6.540   1.642 -1.6735  1.3530  0.8822
 7505SOL     OW23130   0.445   0.378   0.931 -0.0171  0.0921  0.0945
 7505SOL    HW123131   0.513   0.398   0.867  0.6701 -1.6446  0.2082
 7505SOL    HW223132   0.437   0.282   0.928 -1.0330  0.0974  1.5212
 7506SOL     OW23133   2.609   3.219   1.525 -0.3841 -0.0267  0.1234
 7506SOL    HW123134   2.704   3.234   1.524 -0.5015  0.9109  0.9307
 7506SOL    HW223135   2.599   3.124   1.522  0.5699 -0.1287 -0.1590
 7507SOL     OW23136   5.787   5.715   3.947 -0.7483  0.0901  0.3259
 7507SOL    HW123137   5.776   5.756   3.862 -0.1458 -0.2342  0.0848
 7507SOL    HW223138   5.790   5.788   4.009 -0.8357  0.3451  0.0302
 7508SOL     OW23139   7.193   2.210   1.940  0.2743 -0.2460 -0.2197
 7508SOL    HW123140   7.168   2.205   2.032 -0.6769 -0.9492 -0.5034
 7508SOL    HW223141   7.180   2.302   1.917  2.1628  0.3212  0.7671
 7509SOL     OW23142   3.421   4.262   3.403  0.4245  0.5312 -0.2506
 7509SOL    HW123143   3.424   4.184   3.458 -0.1330  0.0978 -0.8194
 7509SOL    HW223144   3.420   4.335   3.465  3.7638  0.2630  0.2979
 7510SOL     OW23145   3.695   0.023   0.179  0.1310 -0.5223  0.4713
 7510SOL    HW123146   3.767  -0.000   0.121 -1.4462 -2.1495 -0.9366
 7510SOL    HW223147   3.670   0.111   0.153  0.3502 -0.7020 -0.3752
 7511SOL     OW23148   0.325   2.862   5.000 -0.3296  0.2230 -0.3203
 7511SOL    HW123149   0.388   2.790   5.003  0.4979  0.9058 -0.7916
 7511SOL    HW223150   0.305   2.872   4.907 -0.7424  0.3535 -0.2215
 7512SOL     OW23151   4.994   6.537   6.195 -0.0750  0.2247  0.5073
 7512SOL    HW123152   4.921   6.595   6.175 -0.5885 -0.3773  0.5705
 7512SOL    HW223153   4.983   6.463   6.134  2.9472  2.0369 -2.5993
 7513SOL     OW23154   0.886   6.236   2.752  0.4740 -0.3142 -0.0468
 7513SOL    HW123155   0.803   6.257   2.795 -0.0555  3.3668 -2.5258
 7513SOL    HW223156   0.952   6.282   2.804  0.3025  0.9756 -0.9515
 7514SOL     OW23157   6.956   5.777   3.755  0.4031 -0.2462  0.1274
 7514SOL    HW123158   6.873   5.799   3.797  1.3415 -0.3092  2.1405
 7514SOL    HW223159   6.935   5.702   3.700 -0.9450 -0.0729  0.3682
 7515SOL     OW23160   6.130   4.117   0.022  0.1575 -0.4032  0.0960
 7515SOL    HW123161   6.198   4.068   0.067  0.4475 -0.5984 -0.5375
 7515SOL    HW223162   6.112   4.066  -0.057  1.2397  1.0193 -1.1386
 7516SOL     OW23163   2.170   6.876   6.773 -0.5761 -0.1787 -0.4164
 7516SOL    HW123164   2.190   6.824   6.851  0.6201 -1.2544 -1.3977
 7516SOL    HW223165   2.177   6.815   6.700  1.8149  1.4916 -1.7370
 7517SOL     OW23166   2.851   0.313   4.131 -0.5644  0.2085  0.2128
 7517SOL    HW123167   2.827   0.228   4.168  1.3078  0.5528  2.4503
 7517SOL    HW223168   2.933   0.297   4.085 -0.7788  0.5972 -0.3088
 7518SOL     OW23169   4.411   6.131   6.425 -0.0872 -0.0843 -0.1521
 7518SOL    HW123170   4.460   6.162   6.348  0.4876 -1.9635 -0.5873
 7518SOL    HW223171   4.404   6.037   6.412 -1.7805 -0.1677  1.1111
 7519SOL     OW23172   2.482   6.735   2.815 -0.0302 -0.4874  0.5584
 7519SOL    HW123173   2.530   6.797   2.870  0.5244  0.8254 -1.3314
 7519SOL    HW223174   2.391   6.768   2.815  0.8550  2.8665 -3.4598
 7520SOL     OW23175   1.743   1.081   5.138 -0.6884  0.1786 -0.2062
 7520SOL    HW123176   1.819   1.056   5.191 -1.4569 -0.0320  0.8228
 7520SOL    HW223177   1.745   1.177   5.137  0.6374  0.1819 -1.7721
 7521SOL     OW23178   4.849   6.643   4.669  0.1265 -0.2501  0.0258
 7521SOL    HW123179   4.892   6.564   4.701 -0.4989 -0.1819  1.0881
 7521SOL    HW223180   4.921   6.703   4.647  0.6006 -0.0515  1.9837
 7522SOL     OW23181   5.591   1.126   3.110 -0.3265 -0.1638  0.0508
 7522SOL    HW123182   5.649   1.194   3.076 -1.0682  0.9595  0.9603
 7522SOL    HW223183   5.517   1.125   3.050 -0.9740  0.8367  0.8049
 7523SOL     OW23184   5.200   4.368   2.945 -0.0607 -0.1603 -0.0225
 7523SOL    HW123185   5.154   4.423   2.882  0.4094  0.5786  0.2667
 7523SOL    HW223186   5.205   4.282   2.903 -0.3466  0.1489 -0.6993
 7524SOL     OW23187   6.314   5.924   0.445  0.0587  0.1071  0.1035
 7524SOL    HW123188   6.348   5.952   0.530 -1.7656  1.3413  0.4779
 7524SOL    HW223189   6.226   5.893   0.463 -0.8546  1.5998 -1.4670
 7525SOL     OW23190   4.758   4.329   5.653 -0.0407 -0.0924 -0.2792
 7525SOL    HW123191   4.666   4.354   5.660  0.2629  0.8737  0.4804
 7525SOL    HW223192   4.782   4.298   5.741  0.1369 -1.1813 -0.6926
 7526SOL     OW23193   1.000   1.824   5.136 -0.6183 -0.5055  0.5642
 7526SOL    HW123194   0.993   1.788   5.047  1.4527 -1.1827  0.6399
 7526SOL    HW223195   1.005   1.919   5.123 -0.3289 -0.5995 -0.0365
 7527SOL     OW23196   3.307   5.515   2.061 -0.7727  0.0478  0.1601
 7527SOL    HW123197   3.259   5.594   2.035 -0.1533  0.2193 -0.4772
 7527SOL    HW223198   3.268   5.445   2.008 -1.5992 -0.1573  1.0197
 7528SOL     OW23199   3.491   3.622   5.778  0.3056 -0.0011 -0.9642
 7528SOL    HW123200   3.447   3.626   5.863 -0.7232 -2.1900 -1.3477
 7528SOL    HW223201   3.459   3.699   5.731 -0.1923  0.4744  0.1126
 7529SOL     OW23202   0.246   5.927   3.784  0.3695  0.0467  0.9184
 7529SOL    HW123203   0.311   5.903   3.850  0.2596 -2.8560  0.1564
 7529SOL    HW223204   0.174   5.866   3.798 -0.0431 -0.0673 -1.2380
 7530SOL     OW23205   4.207   3.526   6.667 -0.3976  0.3886 -0.1271
 7530SOL    HW123206   4.272   3.484   6.610  0.5308  0.4653  0.8414
 7530SOL    HW223207   4.138   3.460   6.677 -0.3224  0.1827 -0.9206
 7531SOL     OW23208   3.591   5.303   1.660  0.1755  0.1338  0.5094
 7531SOL    HW123209   3.595   5.394   1.689  0.1447 -0.0412  1.0844
 7531SOL    HW223210   3.508   5.271   1.695  0.4455 -0.2702  0.7870
 7532SOL     OW23211   4.130   5.952   7.162 -0.2836 -0.3524 -0.1303
 7532SOL    HW123212   4.140   5.985   7.251  0.1406  3.0428 -1.2863
 7532SOL    HW223213   4.036   5.932   7.154 -0.2915 -0.8666  1.1050
 7533SOL     OW23214   4.076   5.627   4.460 -0.0259  0.5571 -0.4596
 7533SOL    HW123215   4.035   5.555   4.508 -1.6524  1.4256 -0.4735
 7533SOL    HW223216   4.096   5.692   4.526  0.9505  0.3331 -0.5199
 7534SOL     OW23217   0.699   1.124   6.382 -0.3134  0.4403  0.0112
 7534SOL    HW123218   0.665   1.092   6.466 -0.2017 -0.3640 -0.2484
 7534SOL    HW223219   0.621   1.143   6.330 -0.3884 -0.6513 -0.2987
 7535SOL     OW23220   4.816   7.176   6.452  0.0998  0.3515 -0.0741
 7535SOL    HW123221   4.760   7.106   6.419  1.2329 -1.0267  0.7992
 7535SOL    HW223222   4.888   7.181   6.389 -0.0899  0.8936 -0.2527
 7536SOL     OW23223   0.704   3.859   4.806  0.1781  0.0968  0.1185
 7536SOL    HW123224   0.701   3.953   4.819  2.8126  0.1582  0.6585
 7536SOL    HW223225   0.780   3.844   4.750 -0.8335 -1.6552 -0.9211
 7537SOL     OW23226   3.884   0.707   2.088 -0.2319 -0.1513  0.0778
 7537SOL    HW123227   3.870   0.740   2.177  1.4074 -0.7746  0.6127
 7537SOL    HW223228   3.868   0.613   2.095 -0.4580 -0.1461 -0.3707
 7538SOL     OW23229   0.576   7.079   5.111 -0.0073 -0.1678 -0.3181
 7538SOL    HW123230   0.562   7.004   5.170  1.2113  1.3437  2.0963
 7538SOL    HW223231   0.496   7.131   5.118  0.4744  0.4586  0.7826
 7539SOL     OW23232   0.459   5.113   1.239 -0.1698  0.2858 -0.2059
 7539SOL    HW123233   0.420   5.180   1.295  0.5643  0.3698  0.2165
 7539SOL    HW223234   0.491   5.161   1.162 -3.4810 -0.1228 -2.0489
 7540SOL     OW23235   4.800   4.202   7.055  0.1283  0.0317  0.5806
 7540SOL    HW123236   4.788   4.297   7.063 -0.3697  0.2200 -1.7977
 7540SOL    HW223237   4.717   4.165   7.086  0.3144  0.3334  1.4863
 7541SOL     OW23238   0.121   2.236   0.325  0.2009 -0.4138  0.2377
 7541SOL    HW123239   0.111   2.324   0.364 -1.2007 -0.8398  0.9102
 7541SOL    HW223240   0.082   2.244   0.239 -1.2102 -0.7119  0.8304
 7542SOL     OW23241   6.944   1.152   5.845 -0.6902  0.0427  0.1766
 7542SOL    HW123242   6.873   1.091   5.827  0.3717 -0.8151 -1.3567
 7542SOL    HW223243   6.902   1.238   5.849 -1.7407 -0.3660 -1.4127
 7543SOL     OW23244   3.669   2.954   2.197 -0.0539 -0.1884  0.6749
 7543SOL    HW123245   3.746   2.999   2.233  0.5794  0.3829 -1.2890
 7543SOL    HW223246   3.595   3.002   2.233  0.5235  0.1488  1.4661
 7544SOL     OW23247   2.239   5.005   5.536  0.3691 -0.1957 -0.0484
 7544SOL    HW123248   2.331   4.999   5.562  0.3450  0.9152  0.3470
 7544SOL    HW223249   2.203   4.918   5.553  0.9583 -0.1971  1.3690
 7545SOL     OW23250   2.546   1.792   6.570  0.8379  0.0813  0.2243
 7545SOL    HW123251   2.572   1.787   6.479  0.2196  0.8944 -0.0060
 7545SOL    HW223252   2.539   1.700   6.598  1.9091 -0.1650 -0.2691
 7546SOL     OW23253   5.418   6.339   1.168 -0.3679  0.1891 -0.4399
 7546SOL    HW123254   5.326   6.363   1.183  0.1644  3.3424 -1.5198
 7546SOL    HW223255   5.455   6.332   1.256 -1.6021 -1.1243  0.0143
 7547SOL     OW23256   5.125   5.951   3.064  0.4398  0.1238  0.3500
 7547SOL    HW123257   5.124   6.041   3.031 -0.4772  0.3442  0.9339
 7547SOL    HW223258   5.209   5.943   3.109  1.1966  0.1872 -0.9979
 7548SOL     OW23259   4.335   1.718   1.065 -0.7038  0.0205  0.1247
 7548SOL    HW123260   4.243   1.696   1.056 -0.6410 -0.0388 -0.4104
 7548SOL    HW223261   4.354   1.773   0.988 -0.1617 -0.4324 -0.0706
 7549SOL     OW23262   6.492   2.612   3.639 -0.4223  0.0671 -0.1815
 7549SOL    HW123263   6.562   2.676   3.630 -1.0568  0.9425  0.9425
 7549SOL    HW223264   6.424   2.641   3.579  0.4564 -1.2530 -1.9160
 7550SOL     OW23265   5.443   3.534   2.085  0.7283  0.1258  0.3936
 7550SOL    HW123266   5.463   3.587   2.007  0.5640 -1.7854 -1.0345
 7550SOL    HW223267   5.526   3.532   2.133  0.5727  2.1419  0.8355
 7551SOL     OW23268   2.648   6.590   0.707 -0.2740 -0.5062  0.1511
 7551SOL    HW123269   2.732   6.552   0.733  0.0103 -0.5375 -0.7740
 7551SOL    HW223270   2.596   6.590   0.787  0.5823 -0.5530  0.7243
 7552SOL     OW23271   4.073   0.773   6.834  0.5495  0.3822 -0.3234
 7552SOL    HW123272   4.080   0.696   6.890  1.2722  1.3535  0.9854
 7552SOL    HW223273   3.990   0.762   6.788 -0.3408 -0.2133  1.3299
 7553SOL     OW23274   0.642   0.011   2.170  0.1385 -0.2327  0.1016
 7553SOL    HW123275   0.672  -0.027   2.088  1.3397 -0.5976  0.6918
 7553SOL    HW223276   0.615   0.100   2.147 -1.0508 -0.8308 -0.9655
 7554SOL     OW23277   6.132   0.125   5.150  0.6340 -0.0686 -0.3818
 7554SOL    HW123278   6.057   0.080   5.190  0.6654 -0.7745 -1.0789
 7554SOL    HW223279   6.148   0.200   5.206 -2.0637  1.4520 -1.4334
 7555SOL     OW23280   1.188   4.219   5.746 -0.5209 -0.6256  0.2744
 7555SOL    HW123281   1.149   4.187   5.665  1.3292  2.7581 -2.2228
 7555SOL    HW223282   1.265   4.268   5.718  1.0307 -0.3608  4.2603
 7556SOL     OW23283   5.672   0.761   2.084  0.4670  0.1329 -0.2641
 7556SOL    HW123284   5.648   0.740   1.994  0.5930 -1.2689  0.0080
 7556SOL    HW223285   5.662   0.856   2.090 -0.2634  0.1586 -1.5382
 7557SOL     OW23286   0.490   7.130   2.765 -0.0785  0.0414 -0.2975
 7557SOL    HW123287   0.438   7.137   2.685 -1.1574 -1.1128  0.2553
 7557SOL    HW223288   0.580   7.146   2.737 -0.6541  1.6585 -1.3638
 7558SOL     OW23289   1.165   6.661   4.437 -0.1804  0.3243  0.3674
 7558SOL    HW123290   1.164   6.581   4.490  0.2900  0.0870  0.0308
 7558SOL    HW223291   1.256   6.668   4.407  0.2166  1.8929  1.7641
 7559SOL     OW23292   4.927   0.413   2.939  0.3275 -0.0400 -0.0922
 7559SOL    HW123293   4.942   0.492   2.888 -1.6733  1.2874  1.2421
 7559SOL    HW223294   4.843   0.379   2.908 -0.3483  0.1353  1.4348
 7560SOL     OW23295   0.499   2.389   5.486 -0.0299 -0.5912 -0.7660
 7560SOL    HW123296   0.417   2.345   5.466 -0.4519 -1.5876  2.5878
 7560SOL    HW223297   0.565   2.319   5.483  0.7259  0.1241 -3.0250
 7561SOL     OW23298   1.332   6.622   5.003 -0.1833  0.2418  0.0514
 7561SOL    HW123299   1.268   6.666   4.948 -1.2950 -0.5092  0.7000
 7561SOL    HW223300   1.415   6.630   4.955 -0.7115  1.3891 -0.7109
 7562SOL     OW23301   2.630   5.824   6.730 -0.5767  0.0085 -0.0366
 7562SOL    HW123302   2.681   5.812   6.810 -1.8037 -1.5222  0.5690
 7562SOL    HW223303   2.575   5.901   6.749  2.1867  2.4502 -1.1520
 7563SOL     OW23304   5.681   1.711   4.652  0.1242  0.4906 -0.2414
 7563SOL    HW123305   5.745   1.709   4.581 -0.0269  0.6737 -0.3837
 7563SOL    HW223306   5.635   1.794   4.641 -1.1927 -0.3137 -1.0809
 7564SOL     OW23307   4.606   5.496   6.393 -0.7116 -0.3144 -0.1848
 7564SOL    HW123308   4.525   5.497   6.445 -0.0769  0.4689  0.8163
 7564SOL    HW223309   4.675   5.474   6.455 -0.2352 -1.8698 -1.2051
 7565SOL     OW23310   2.830   4.354   4.338  0.1365  0.2504  0.3031
 7565SOL    HW123311   2.835   4.426   4.275 -0.6710 -0.2412 -0.3282
 7565SOL    HW223312   2.903   4.297   4.315 -0.1849  0.0476 -0.2225
 7566SOL     OW23313   5.557   6.627   1.476  0.1782 -0.5107  0.0134
 7566SOL    HW123314   5.481   6.571   1.462 -0.6470  0.4860  0.3140
 7566SOL    HW223315   5.543   6.666   1.562  1.4590 -0.9399  0.4347
 7567SOL     OW23316   2.152   5.601   1.472  0.0646 -1.3227  0.1043
 7567SOL    HW123317   2.157   5.679   1.526  0.2221 -1.2605 -0.0010
 7567SOL    HW223318   2.229   5.549   1.496  1.0369 -0.5571 -1.2076
 7568SOL     OW23319   5.440   1.553   6.283  0.0116  0.0374  0.2351
 7568SOL    HW123320   5.371   1.486   6.280 -0.9490  0.8994  1.6705
 7568SOL    HW223321   5.496   1.534   6.208  0.0312 -2.6394  0.8360
 7569SOL     OW23322   0.135   6.790   6.008  0.2547 -0.4882 -0.1325
 7569SOL    HW123323   0.153   6.735   6.084 -1.4091  0.0819  0.7204
 7569SOL    HW223324   0.204   6.855   6.008 -0.2642  0.0987  1.4963
 7570SOL     OW23325   1.245   1.447   0.440 -0.8775 -0.0488 -0.0113
 7570SOL    HW123326   1.186   1.522   0.440 -4.7927 -2.7600  1.3374
 7570SOL    HW223327   1.246   1.417   0.531 -0.8150 -2.4587 -0.7148
 7571SOL     OW23328   2.928   5.967   1.683 -0.0245  0.4120  0.1929
 7571SOL    HW123329   2.965   6.008   1.604  0.4503 -1.0427 -0.3897
 7571SOL    HW223330   2.841   6.004   1.691 -0.7894 -0.6850 -2.1025
 7572SOL     OW23331   3.159   4.363   3.536  0.6791  0.4429  0.4658
 7572SOL    HW123332   3.111   4.338   3.615  0.2848 -0.0198  0.0980
 7572SOL    HW223333   3.247   4.383   3.565  0.9845 -1.2709  0.8370
 7573SOL     OW23334   3.689   6.290   4.141 -0.0312 -0.2620 -0.0050
 7573SOL    HW123335   3.633   6.318   4.069  1.0173  1.4799 -0.2261
 7573SOL    HW223336   3.765   6.250   4.098 -0.4963 -1.4656  0.2492
 7574SOL     OW23337   1.727   5.509   6.395  0.5335  0.1949 -0.4876
 7574SOL    HW123338   1.772   5.484   6.476 -0.0163 -0.2526 -0.3117
 7574SOL    HW223339   1.767   5.592   6.370  0.8117  0.2652  0.1607
 7575SOL     OW23340   1.281   6.893   6.119 -0.0669  0.2142  0.2286
 7575SOL    HW123341   1.284   6.952   6.195 -2.6515  0.2322  0.4195
 7575SOL    HW223342   1.196   6.849   6.126 -0.0487 -0.3736 -2.2244
 7576SOL     OW23343   4.630   0.592   1.087 -0.6746 -0.2602  0.3712
 7576SOL    HW123344   4.696   0.586   1.018 -1.3428  0.6224 -0.3596
 7576SOL    HW223345   4.587   0.676   1.073 -2.0631 -0.8763  0.7328
 7577SOL     OW23346   0.527   2.935   1.537 -0.1470  0.1604 -0.7162
 7577SOL    HW123347   0.584   3.006   1.568 -0.2282 -0.0417 -0.0891
 7577SOL    HW223348   0.458   2.979   1.488 -0.2771  0.5303 -0.2113
 7578SOL     OW23349   1.146   0.237   0.076  0.1696 -0.0521 -0.2589
 7578SOL    HW123350   1.131   0.294   0.151  0.8002 -1.2494  0.8327
 7578SOL    HW223351   1.222   0.274   0.032  1.0044 -0.3982  0.8372
 7579SOL     OW23352   2.236   2.460   0.332 -0.2791  0.3412  0.8537
 7579SOL    HW123353   2.301   2.400   0.368 -1.1150 -1.5544 -0.6310
 7579SOL    HW223354   2.284   2.542   0.318  0.7712  0.2328  3.3465
 7580SOL     OW23355   2.949   6.671   6.436  0.2638 -0.1404  0.2311
 7580SOL    HW123356   2.958   6.755   6.481 -1.0207 -0.4865  1.1685
 7580SOL    HW223357   2.993   6.685   6.352 -0.1415  1.5394  0.2615
 7581SOL     OW23358   4.615   5.536   1.633  0.5834  0.1218  0.1076
 7581SOL    HW123359   4.701   5.499   1.651  0.8096  1.6083  2.6187
 7581SOL    HW223360   4.555   5.462   1.640  1.1694 -0.1756  3.5614
 7582SOL     OW23361   7.158   6.538   2.589 -0.2122  0.7887  0.3648
 7582SOL    HW123362   7.072   6.570   2.614  0.2839  0.2167  3.2428
 7582SOL    HW223363   7.219   6.600   2.631  0.8130  1.2286 -1.6657
 7583SOL     OW23364   2.357   3.960   5.027 -0.5767 -0.2206  0.7737
 7583SOL    HW123365   2.419   3.940   5.098  1.5604  1.0148 -0.6422
 7583SOL    HW223366   2.412   3.980   4.952 -2.7551 -0.0604 -0.8765
 7584SOL     OW23367   3.316   0.068   4.131  0.0265 -0.2756 -0.4404
 7584SOL    HW123368   3.244   0.106   4.080  1.3178  0.8738 -1.5033
 7584SOL    HW223369   3.353   0.142   4.180  0.3062 -0.9033  0.3348
 7585SOL     OW23370   5.220   3.089   5.399 -0.3151  0.7423  0.0274
 7585SOL    HW123371   5.297   3.145   5.409  0.7721 -0.9462  1.9387
 7585SOL    HW223372   5.254   3.000   5.406 -2.1633 -0.1537 -1.5628
 7586SOL     OW23373   2.470   4.329   0.165 -0.0353  0.6280  0.1754
 7586SOL    HW123374   2.500   4.239   0.180 -2.6381 -0.2411  0.8051
 7586SOL    HW223375   2.490   4.374   0.247 -0.3868  0.0984  0.5615
 7587SOL     OW23376   6.732   5.400   5.149  0.5401 -0.6867  0.5662
 7587SOL    HW123377   6.650   5.434   5.186  1.5442  0.7036  1.6117
 7587SOL    HW223378   6.786   5.378   5.225  2.4517  1.7298  0.0369
 7588SOL     OW23379   0.230   4.166   4.615 -0.7450  0.3227  0.0205
 7588SOL    HW123380   0.304   4.164   4.555 -0.5930  0.9736  0.1705
 7588SOL    HW223381   0.156   4.136   4.564 -0.4148 -0.1294 -0.1923
 7589SOL     OW23382   3.918   6.693   3.843  0.0177  0.2382  0.8975
 7589SOL    HW123383   3.947   6.768   3.791  0.3033 -1.2453 -1.2069
 7589SOL    HW223384   3.997   6.639   3.852 -0.6431 -0.7728  0.6456
 7590SOL     OW23385   6.956   2.851   0.948  0.6690  0.4684 -0.7304
 7590SOL    HW123386   7.036   2.805   0.975  1.7975  1.1444 -2.6474
 7590SOL    HW223387   6.930   2.902   1.024  1.6649 -0.3131  0.1599
 7591SOL     OW23388   2.139   1.022   0.933 -1.0756 -0.3235 -0.2006
 7591SOL    HW123389   2.164   0.936   0.899  1.2459 -0.9350  2.6529
 7591SOL    HW223390   2.222   1.067   0.950 -2.2000  2.6712 -1.7558
 7592SOL     OW23391   3.105   5.374   1.376  0.2642 -0.0695 -0.1695
 7592SOL    HW123392   3.063   5.442   1.429 -3.1101  0.1411 -2.7833
 7592SOL    HW223393   3.174   5.421   1.329  0.0475  0.8167  0.3560
 7593SOL     OW23394   0.916   1.313   2.628  0.4541 -0.2013  0.1350
 7593SOL    HW123395   0.829   1.278   2.613  1.5158 -2.9357 -0.2531
 7593SOL    HW223396   0.911   1.354   2.715 -1.8406  2.2792 -1.0040
 7594SOL     OW23397   6.379   0.755   5.541 -0.4203  0.0557 -0.3351
 7594SOL    HW123398   6.352   0.845   5.560  0.9045  0.6348 -1.0126
 7594SOL    HW223399   6.316   0.723   5.477 -0.5641  0.7208 -0.5328
 7595SOL     OW23400   5.331   3.961   1.303 -0.1152  0.4937  0.0434
 7595SOL    HW123401   5.408   4.001   1.343 -0.2199  0.7643 -0.0189
 7595SOL    HW223402   5.262   3.971   1.369 -0.2311  0.7373 -0.1139
 7596SOL     OW23403   4.665   5.703   0.603 -0.0771 -0.0170 -0.1341
 7596SOL    HW123404   4.720   5.774   0.635  0.3562 -1.1064  1.7181
 7596SOL    HW223405   4.720   5.657   0.539 -0.5541  1.5644 -1.7461
 7597SOL     OW23406   3.343   1.831   3.610  0.0042 -0.1312  0.6372
 7597SOL    HW123407   3.312   1.875   3.689 -0.1791  2.2775 -0.6762
 7597SOL    HW223408   3.366   1.902   3.550 -0.8532 -1.8349 -1.8884
 7598SOL     OW23409   0.589   3.298   4.710 -0.2807  0.8530 -0.1878
 7598SOL    HW123410   0.570   3.322   4.619  0.5486  0.4063 -0.4883
 7598SOL    HW223411   0.684   3.284   4.712 -0.4196 -0.0474  0.5338
 7599SOL     OW23412   4.220   3.826   4.375  0.0578  0.3103  0.0600
 7599SOL    HW123413   4.291   3.809   4.436 -0.6067  0.9456  1.0517
 7599SOL    HW223414   4.161   3.752   4.386 -0.4046  0.7608  0.7331
 7600SOL     OW23415   3.090   5.611   5.451  0.3253 -0.8069  0.2095
 7600SOL    HW123416   3.158   5.566   5.402  0.9531  0.3737 -0.0380
 7600SOL    HW223417   3.035   5.652   5.384  0.7236  0.1515  0.4468
 7601SOL     OW23418   5.507   4.572   2.370  0.2129  0.3947  0.0435
 7601SOL    HW123419   5.545   4.626   2.300  3.1410 -0.0430  1.1498
 7601SOL    HW223420   5.536   4.483   2.349  2.4660  0.4351  2.4633
 7602SOL     OW23421   3.189   1.489   4.287 -0.4761  0.1267 -0.2870
 7602SOL    HW123422   3.134   1.434   4.343 -0.1798  0.1436  0.0271
 7602SOL    HW223423   3.255   1.428   4.253  0.1233  0.3661  0.4177
 7603SOL     OW23424   6.649   3.789   6.251  0.2638 -0.0708  0.3265
 7603SOL    HW123425   6.675   3.746   6.332 -1.8297  0.2889  1.2491
 7603SOL    HW223426   6.560   3.819   6.267 -0.9108 -1.4769 -2.6753
 7604SOL     OW23427   2.582   2.270   2.065 -0.3974 -0.3607 -0.6825
 7604SOL    HW123428   2.599   2.190   2.114  0.7234 -0.0128 -0.4737
 7604SOL    HW223429   2.551   2.240   1.980  1.2597 -1.0869 -1.0830
 7605SOL     OW23430   0.992   2.364   2.455 -0.2617  0.0627  0.2950
 7605SOL    HW123431   0.940   2.290   2.486 -0.0295  0.2223  1.0751
 7605SOL    HW223432   1.045   2.327   2.384 -2.4769  0.2237 -1.5476
 7606SOL     OW23433   5.057   5.873   2.727  0.3683  0.3140  0.4168
 7606SOL    HW123434   5.151   5.891   2.735  0.5080 -0.3826  0.3512
 7606SOL    HW223435   5.039   5.810   2.797  0.0879 -0.0827 -0.0117
 7607SOL     OW23436   6.747   6.105   5.551 -0.0899 -0.0418 -0.6408
 7607SOL    HW123437   6.817   6.057   5.507  0.2113 -0.5812  0.3936
 7607SOL    HW223438   6.755   6.195   5.518  0.2449 -0.3794 -1.5147
 7608SOL     OW23439   0.918   6.313   0.286  0.2934  0.0127  0.8078
 7608SOL    HW123440   0.852   6.307   0.356 -0.0990 -1.3613  0.3592
 7608SOL    HW223441   1.002   6.317   0.332  0.1053 -1.8673  1.3739
 7609SOL     OW23442   4.790   5.423   7.003  0.1281  0.1769  0.0500
 7609SOL    HW123443   4.845   5.440   6.927  2.0438 -0.2776  1.2649
 7609SOL    HW223444   4.724   5.360   6.971  2.6949 -2.3993 -0.5823
 7610SOL     OW23445   1.794   5.044   5.505  0.2050  0.3110 -0.4369
 7610SOL    HW123446   1.861   5.100   5.545 -0.4278  0.4273  0.4817
 7610SOL    HW223447   1.843   4.968   5.474  0.3370 -1.7208  4.0204
 7611SOL     OW23448   1.282   5.943   5.600 -0.5647 -0.2695 -0.4270
 7611SOL    HW123449   1.366   5.912   5.632 -1.1235 -2.9295 -1.3025
 7611SOL    HW223450   1.279   6.035   5.626  1.6183 -0.6756  1.5844
 7612SOL     OW23451   1.964   6.195   6.206 -0.7625 -0.2445  0.1935
 7612SOL    HW123452   1.894   6.154   6.155  0.7966 -0.6214 -1.7440
 7612SOL    HW223453   2.043   6.182   6.154  0.6420  0.8632  1.9336
 7613SOL     OW23454   0.029   1.164   0.487  0.4749  0.5614 -0.1938
 7613SOL    HW123455   0.058   1.225   0.556 -0.6169  0.2939  0.5332
 7613SOL    HW223456  -0.035   1.107   0.531 -0.8147  0.8607 -1.5995
 7614SOL     OW23457   4.371   1.607   0.620 -0.1599  0.4922  0.2348
 7614SOL    HW123458   4.351   1.546   0.691 -0.3166  1.3655  0.9460
 7614SOL    HW223459   4.441   1.564   0.571  0.6756  0.3360  1.5213
 7615SOL     OW23460   1.307   2.295   3.244 -0.4402 -0.4554  0.2659
 7615SOL    HW123461   1.297   2.374   3.297  0.3352  1.7477 -2.6138
 7615SOL    HW223462   1.400   2.274   3.249 -0.2058  0.2464 -0.7572
 7616SOL     OW23463   2.865   4.923   5.794  0.5086  0.5707  0.3071
 7616SOL    HW123464   2.783   4.872   5.793  0.9220 -0.0979 -0.1190
 7616SOL    HW223465   2.850   4.994   5.732  0.0273  0.8104  0.6924
 7617SOL     OW23466   6.618   4.656   1.503 -0.1496 -0.4694 -0.5783
 7617SOL    HW123467   6.613   4.675   1.597 -1.3444 -0.2486 -0.6715
 7617SOL    HW223468   6.699   4.698   1.474 -1.0995  1.7817 -0.1464
 7618SOL     OW23469   1.035   5.830   2.977  0.0687  0.6975  0.2047
 7618SOL    HW123470   1.008   5.805   3.065  2.1900 -1.0322  0.4570
 7618SOL    HW223471   0.957   5.867   2.937 -1.0121  1.3334  2.7201
 7619SOL     OW23472   4.164   1.961   7.157  0.2989 -0.0242  0.1432
 7619SOL    HW123473   4.074   1.994   7.155 -0.2223 -1.1653  1.9221
 7619SOL    HW223474   4.178   1.924   7.070 -0.5816  1.0639 -0.4878
 7620SOL     OW23475   5.899   6.313   2.906 -0.1634 -0.2980 -0.3218
 7620SOL    HW123476   5.851   6.252   2.962  0.2613  0.5900  1.0680
 7620SOL    HW223477   5.986   6.275   2.897 -0.8929 -1.6538 -2.4287
 7621SOL     OW23478   3.295   1.717   0.748  0.4016 -0.7156 -0.1360
 7621SOL    HW123479   3.288   1.661   0.825  2.5756  0.4443  0.9840
 7621SOL    HW223480   3.206   1.720   0.713 -1.0302 -0.0510  3.2003
 7622SOL     OW23481   4.618   4.118   0.016  0.9001 -0.3638 -0.4315
 7622SOL    HW123482   4.679   4.149   0.083  1.3434 -0.0576 -0.9616
 7622SOL    HW223483   4.574   4.043   0.056 -1.7447  2.1010  1.6910
 7623SOL     OW23484   0.433   1.346   2.753 -0.0635 -0.4439  0.1851
 7623SOL    HW123485   0.380   1.425   2.738 -0.6240 -0.8411  0.0490
 7623SOL    HW223486   0.423   1.295   2.673 -0.5831 -1.1507  0.6896
 7624SOL     OW23487   3.576   7.207   3.352 -0.1570 -0.5667 -0.5554
 7624SOL    HW123488   3.657   7.192   3.303  0.5597 -2.0044  0.9887
 7624SOL    HW223489   3.530   7.123   3.348 -0.8980 -0.1829 -0.2018
 7625SOL     OW23490   6.049   6.885   4.428 -0.6193 -0.3999  0.7429
 7625SOL    HW123491   6.101   6.943   4.372 -1.5702 -0.9952 -0.8287
 7625SOL    HW223492   6.111   6.854   4.493  0.5606  0.3032  0.0103
 7626SOL     OW23493   6.593   5.170   2.571  0.0028  0.7183 -0.3423
 7626SOL    HW123494   6.524   5.105   2.576 -1.0624  1.8068 -0.2634
 7626SOL    HW223495   6.673   5.121   2.552 -0.8637 -0.5190 -0.8336
 7627SOL     OW23496   0.252   6.098   5.398  0.1500  0.5354 -0.3995
 7627SOL    HW123497   0.279   6.065   5.312  3.0224  0.0001  0.5868
 7627SOL    HW223498   0.277   6.190   5.398  0.4390  0.4598 -0.0452
 7628SOL     OW23499   6.679   1.293   4.664 -0.0658  0.6021 -0.0563
 7628SOL    HW123500   6.734   1.348   4.718  0.2731  0.0502  0.1674
 7628SOL    HW223501   6.640   1.353   4.600 -1.0365  1.3927  1.2222
 7629SOL     OW23502   4.752   5.810   7.222 -1.0158 -0.2108  0.6001
 7629SOL    HW123503   4.675   5.758   7.247 -1.0716 -0.1427  0.5695
 7629SOL    HW223504   4.751   5.884   7.283 -3.0086  1.7462 -1.5953
 7630SOL     OW23505   6.337   3.667   0.544  1.0013 -0.0543 -0.4022
 7630SOL    HW123506   6.431   3.663   0.563  1.0164 -0.1280 -0.4935
 7630SOL    HW223507   6.315   3.580   0.512  0.8488 -0.1118 -0.1401
 7631SOL     OW23508   3.718   2.162   1.663 -0.0877  0.1051  0.2177
 7631SOL    HW123509   3.657   2.157   1.736 -0.2563 -0.8454  0.0187
 7631SOL    HW223510   3.780   2.091   1.679 -0.8660 -0.9484 -1.2209
 7632SOL     OW23511   5.799   1.703   2.859 -0.0928  0.2842 -0.1907
 7632SOL    HW123512   5.865   1.681   2.794  0.9849 -0.6444  1.1778
 7632SOL    HW223513   5.848   1.718   2.940 -1.4677  0.5957  0.6243
 7633SOL     OW23514   3.059   5.287   0.413  0.1185 -0.0667  0.0009
 7633SOL    HW123515   3.129   5.338   0.372  3.2661 -3.6413  0.3879
 7633SOL    HW223516   3.050   5.210   0.358 -0.9626 -1.4324  1.9610
 7634SOL     OW23517   1.688   1.913   0.557  0.2594  0.0491  0.0858
 7634SOL    HW123518   1.760   1.913   0.494 -0.7490 -1.5914 -1.1349
 7634SOL    HW223519   1.674   1.821   0.579 -1.5900  0.2808  0.1021
 7635SOL     OW23520   4.318   3.857   6.071 -0.2040 -0.0509 -0.1361
 7635SOL    HW123521   4.275   3.806   6.002 -1.2036  0.5284  0.0537
 7635SOL    HW223522   4.264   3.934   6.082  1.0228  0.8342 -0.0618
 7636SOL     OW23523   4.898   6.253   1.625  0.0237  0.6371 -0.0600
 7636SOL    HW123524   4.840   6.323   1.596 -0.4989 -0.3812 -1.6614
 7636SOL    HW223525   4.845   6.200   1.684 -0.4335  0.1538 -0.8943
 7637SOL     OW23526   5.848   4.555   6.788 -0.1162 -0.3751 -0.3177
 7637SOL    HW123527   5.805   4.612   6.725 -1.0796 -1.5504 -0.7716
 7637SOL    HW223528   5.779   4.494   6.815  0.3777 -0.1700  1.5636
 7638SOL     OW23529   4.058   0.047   0.374 -0.4341  0.1035 -0.0187
 7638SOL    HW123530   4.091  -0.035   0.337  0.3644 -0.0839  1.0704
 7638SOL    HW223531   4.067   0.111   0.303 -0.2895 -0.5670 -0.6111
 7639SOL     OW23532   0.980   4.026   4.497  0.7799  0.0731 -0.1767
 7639SOL    HW123533   1.028   4.039   4.415  1.2504  2.7821  0.4138
 7639SOL    HW223534   1.043   4.051   4.565 -0.3334  0.1778  0.8420
 7640SOL     OW23535   5.149   2.920   0.277 -0.5445  0.5584 -0.3679
 7640SOL    HW123536   5.106   3.003   0.259  0.3540  0.8513 -1.2509
 7640SOL    HW223537   5.206   2.937   0.352 -0.9421  0.5214 -0.0528
 7641SOL     OW23538   3.719   6.858   5.757 -0.1452  0.3543  0.1552
 7641SOL    HW123539   3.666   6.780   5.772  0.0099  0.6205  2.2932
 7641SOL    HW223540   3.809   6.826   5.764 -0.0671  0.5777  0.1524
 7642SOL     OW23541   7.073   2.678   1.335  0.1329 -0.0601 -0.3276
 7642SOL    HW123542   7.113   2.630   1.262  1.5299  0.8208 -0.1758
 7642SOL    HW223543   6.986   2.701   1.303 -0.1926 -1.8202 -0.7677
 7643SOL     OW23544   5.342   6.839   2.941  0.2213 -0.3079  0.1881
 7643SOL    HW123545   5.272   6.855   2.877 -0.5481  2.9469  1.6527
 7643SOL    HW223546   5.422   6.848   2.890 -0.3845 -0.1112 -0.7613
 7644SOL     OW23547   1.739   3.217   6.522 -0.2548  0.2255 -0.1479
 7644SOL    HW123548   1.785   3.242   6.602  0.5285  0.4365 -0.6485
 7644SOL    HW223549   1.771   3.278   6.455 -0.5457 -0.2358 -0.7251
 7645SOL     OW23550   2.490   3.616   1.018  0.8076 -0.4565  0.5702
 7645SOL    HW123551   2.492   3.699   0.970  1.2321 -1.2092 -0.7746
 7645SOL    HW223552   2.398   3.600   1.035  0.6349 -0.2190 -0.1069
 7646SOL     OW23553   4.083   5.733   0.271  0.1652  0.7403 -0.2255
 7646SOL    HW123554   4.129   5.650   0.287  0.5093  0.9725  0.0004
 7646SOL    HW223555   4.041   5.720   0.186 -0.5559 -0.0063  0.2255
 7647SOL     OW23556   6.511   0.624   2.344  0.4758  0.1921 -0.7423
 7647SOL    HW123557   6.488   0.664   2.428  1.2077  0.7991 -0.8186
 7647SOL    HW223558   6.459   0.673   2.279 -0.7054 -0.8036 -0.5947
 7648SOL     OW23559   4.044   1.234   3.707 -0.2477  0.2470  0.1202
 7648SOL    HW123560   4.080   1.156   3.666 -0.9589  0.2970 -0.6343
 7648SOL    HW223561   4.004   1.202   3.788  0.0983 -0.0520  0.1743
 7649SOL     OW23562   4.368   4.741   0.794  0.4999  0.2146  0.4556
 7649SOL    HW123563   4.461   4.737   0.772  0.3118 -2.7030 -0.1875
 7649SOL    HW223564   4.327   4.781   0.717  1.1465  1.0970  0.5564
 7650SOL     OW23565   3.302   5.330   6.082  0.0489 -0.3881 -0.5538
 7650SOL    HW123566   3.289   5.423   6.101 -0.6364 -0.9195  1.9838
 7650SOL    HW223567   3.263   5.317   5.995 -0.7665  1.4830 -0.5096
 7651SOL     OW23568   4.150   2.065   4.047  0.1756 -0.2652  0.2407
 7651SOL    HW123569   4.128   2.149   4.087 -0.9460 -0.8435  0.8703
 7651SOL    HW223570   4.234   2.081   4.003 -0.9121  1.7448 -1.3301
 7652SOL     OW23571   2.700   5.163   4.137  1.1300  0.4038 -0.4856
 7652SOL    HW123572   2.767   5.103   4.105  0.1151 -0.6331 -0.7195
 7652SOL    HW223573   2.677   5.129   4.223 -0.5971 -0.5423 -1.2797
 7653SOL     OW23574   3.084   4.501   2.708  0.6195  0.1781  0.1781
 7653SOL    HW123575   3.093   4.408   2.730  1.5628  0.7036  2.2467
 7653SOL    HW223576   3.000   4.526   2.745  0.2881  0.1282 -0.5267
 7654SOL     OW23577   5.074   3.359   2.250 -0.2929 -0.1343 -0.2417
 7654SOL    HW123578   5.004   3.302   2.219 -1.5274  1.0115  0.3187
 7654SOL    HW223579   5.065   3.438   2.197 -1.9041  1.5321  2.3170
 7655SOL     OW23580   2.697   6.200   4.669 -0.2861  0.3620 -0.3926
 7655SOL    HW123581   2.742   6.151   4.600 -1.5950  1.2914 -1.9826
 7655SOL    HW223582   2.761   6.267   4.696  0.8843 -1.1021  0.5993
 7656SOL     OW23583   3.956   4.934   3.456 -0.0880  0.1421  0.2154
 7656SOL    HW123584   4.009   4.882   3.517 -0.2923 -0.8318 -0.4174
 7656SOL    HW223585   3.910   4.996   3.512  0.0428 -0.4601  1.0128
 7657SOL     OW23586   4.382   1.506   0.318  0.0317  0.0935  0.1244
 7657SOL    HW123587   4.299   1.539   0.353 -1.6444 -2.2811 -1.3072
 7657SOL    HW223588   4.436   1.488   0.395 -0.2929  2.7365  1.0369
 7658SOL     OW23589   1.460   7.113   1.642  0.3318 -0.7520 -0.1712
 7658SOL    HW123590   1.549   7.128   1.673  0.0681 -1.1450  0.8389
 7658SOL    HW223591   1.406   7.169   1.696 -0.1395 -1.3811  0.0237
 7659SOL     OW23592   0.065   2.132   0.893  0.2070  0.2826 -0.1730
 7659SOL    HW123593   0.120   2.059   0.920  1.0331  1.3936  1.2624
 7659SOL    HW223594   0.059   2.123   0.798 -0.4029 -2.1017  0.0150
 7660SOL     OW23595   6.955   6.883   6.298  0.2561  0.4865 -0.0240
 7660SOL    HW123596   6.980   6.880   6.390  1.1696  3.8827 -0.0119
 7660SOL    HW223597   7.036   6.863   6.251 -0.0013 -0.3917 -0.1063
 7661SOL     OW23598   5.033   3.775   5.985  0.2289  0.5530 -0.2439
 7661SOL    HW123599   4.969   3.731   6.042  1.0922  0.1141  0.4203
 7661SOL    HW223600   5.113   3.722   5.994 -0.0179 -0.5280 -3.1408
 7662SOL     OW23601   6.275   4.904   5.782  0.7195  0.6505 -0.2429
 7662SOL    HW123602   6.358   4.856   5.788  2.3901  2.9932 -2.1511
 7662SOL    HW223603   6.217   4.846   5.733  1.4178 -0.7890  0.5710
 7663SOL     OW23604   1.321   2.381   0.272  0.4576  0.5052  0.0647
 7663SOL    HW123605   1.314   2.371   0.177  0.6011  0.7551  0.0262
 7663SOL    HW223606   1.244   2.336   0.306  0.4653  0.3161 -0.1649
 7664SOL     OW23607   0.987   4.805   0.386 -0.0439  0.3522  0.3428
 7664SOL    HW123608   1.075   4.840   0.374 -0.2336  0.9393  0.6476
 7664SOL    HW223609   0.929   4.869   0.345 -0.4890  1.0634  1.9900
 7665SOL     OW23610   1.477   1.429   5.088  0.4883 -0.2761  0.6723
 7665SOL    HW123611   1.546   1.414   5.152  0.1333  1.8339  1.6669
 7665SOL    HW223612   1.516   1.405   5.004  1.8453 -0.7320  1.3993
 7666SOL     OW23613   2.828   4.866   4.118 -0.2215  0.1994 -0.1135
 7666SOL    HW123614   2.901   4.858   4.057 -0.0941 -3.5082  0.3130
 7666SOL    HW223615   2.863   4.916   4.192  0.9803  0.8619 -1.1093
 7667SOL     OW23616   2.749   0.706   3.331 -0.3922  0.2432 -0.2138
 7667SOL    HW123617   2.806   0.778   3.303 -0.0320  0.3817  0.8087
 7667SOL    HW223618   2.802   0.627   3.321 -0.7344  0.1222 -1.1882
 7668SOL     OW23619   4.170   3.051   4.882  0.1267 -0.0107 -0.5508
 7668SOL    HW123620   4.127   3.123   4.928 -0.3502 -0.3532 -0.4592
 7668SOL    HW223621   4.126   3.048   4.797 -1.2383 -1.4753  0.1687
 7669SOL     OW23622   0.780   6.633   3.744 -0.2363 -0.1252  0.4033
 7669SOL    HW123623   0.804   6.546   3.713  0.6376 -0.3765  1.7386
 7669SOL    HW223624   0.806   6.634   3.836  2.0705  2.3518 -0.1487
 7670SOL     OW23625   2.873   6.035   6.971 -0.0074 -0.3392 -0.2638
 7670SOL    HW123626   2.823   5.954   6.985  0.7805 -0.9964 -1.0882
 7670SOL    HW223627   2.936   6.012   6.902  1.4438  0.4236  0.7375
 7671SOL     OW23628   3.101   4.146   5.190 -0.2801  0.1104 -0.2975
 7671SOL    HW123629   3.080   4.176   5.102  0.8334 -0.0574 -0.6366
 7671SOL    HW223630   3.094   4.051   5.186 -0.1542  0.0976 -0.2265
 7672SOL     OW23631   6.535   6.234   4.776 -0.1533 -0.7714 -0.4627
 7672SOL    HW123632   6.512   6.275   4.859 -0.8674  0.0930 -1.0620
 7672SOL    HW223633   6.630   6.243   4.769 -0.3325  1.2314 -0.7779
 7673SOL     OW23634   0.807   4.674   4.117  0.1945  0.4901 -0.0182
 7673SOL    HW123635   0.799   4.702   4.026  0.1685  0.2319 -0.0960
 7673SOL    HW223636   0.763   4.743   4.167 -0.8082  0.0741 -0.2867
 7674SOL     OW23637   5.989   2.348   6.450 -0.4243  0.0702  0.8878
 7674SOL    HW123638   6.000   2.275   6.388 -0.7217  1.0546 -0.3801
 7674SOL    HW223639   5.971   2.306   6.534 -1.2520 -1.3088  0.0577
 7675SOL     OW23640   6.649   0.572   2.128  0.4496  0.4002 -0.0130
 7675SOL    HW123641   6.623   0.650   2.079  1.7971  1.0129  0.2010
 7675SOL    HW223642   6.587   0.568   2.201  0.9829  1.8769  0.5603
 7676SOL     OW23643   2.545   4.731   2.152  0.0823 -0.4151  0.5159
 7676SOL    HW123644   2.522   4.731   2.245  0.6473  0.5353  0.6598
 7676SOL    HW223645   2.462   4.748   2.107  0.2302  1.6766  0.9723
 7677SOL     OW23646   1.887   0.418   2.042 -0.1979 -0.2038 -0.0857
 7677SOL    HW123647   1.927   0.330   2.041  1.2698  0.2250  3.4832
 7677SOL    HW223648   1.793   0.401   2.051  0.0725 -1.4541  0.7430
 7678SOL     OW23649   4.667   3.230   1.444 -0.1118  0.2054 -0.0924
 7678SOL    HW123650   4.682   3.308   1.497  1.4760 -0.6686  0.8385
 7678SOL    HW223651   4.747   3.220   1.393 -0.5268 -0.4940 -0.6268
 7679SOL     OW23652   4.738   1.751   1.141  0.1951 -0.6845 -0.2469
 7679SOL    HW123653   4.748   1.797   1.057 -1.7904  2.3583  0.9773
 7679SOL    HW223654   4.702   1.818   1.200 -0.8836 -3.3641  2.3635
 7680SOL     OW23655   1.215   6.886   1.385  0.2583 -0.0903 -0.8922
 7680SOL    HW123656   1.158   6.812   1.364 -1.2558  0.8614 -0.2475
 7680SOL    HW223657   1.232   6.927   1.300  0.6621 -0.8379 -1.1849
 7681SOL     OW23658   1.845   1.323   4.520  0.6244 -0.1200  0.6954
 7681SOL    HW123659   1.765   1.375   4.515  1.4538  1.1041 -0.5814
 7681SOL    HW223660   1.816   1.233   4.513 -0.6547  0.2962  0.4876
 7682SOL     OW23661   4.300   2.485   3.942  0.1853  0.5692 -0.3455
 7682SOL    HW123662   4.244   2.430   3.887 -2.3270 -0.2692  2.7565
 7682SOL    HW223663   4.248   2.565   3.957  0.9699  0.9394  0.4888
 7683SOL     OW23664   4.782   5.600   3.142 -0.1158  0.0674 -0.0304
 7683SOL    HW123665   4.727   5.531   3.102 -2.7624  1.4952  0.8727
 7683SOL    HW223666   4.805   5.565   3.228  1.2475 -0.9201 -0.7615
 7684SOL     OW23667   6.080   3.477   6.973  0.4691 -0.0575 -0.4352
 7684SOL    HW123668   6.075   3.390   6.932  1.2264  0.1714 -1.0498
 7684SOL    HW223669   6.102   3.535   6.901 -2.3159  1.0552 -0.5201
 7685SOL     OW23670   7.181   4.593   6.781 -0.3296  0.1854 -0.2044
 7685SOL    HW123671   7.257   4.535   6.788  0.7167  1.6449  1.5522
 7685SOL    HW223672   7.106   4.539   6.804  0.5305 -0.6573  0.6993
 7686SOL     OW23673   2.739   3.085   4.141 -0.0072  0.0598 -0.1146
 7686SOL    HW123674   2.734   3.154   4.206 -0.4082 -0.4267  0.3878
 7686SOL    HW223675   2.654   3.041   4.145  0.8804 -1.6924  0.9791
 7687SOL     OW23676   2.558   0.980   1.065 -0.2167  0.3803  0.0180
 7687SOL    HW123677   2.591   0.896   1.031  0.4809  0.6020  0.1293
 7687SOL    HW223678   2.636   1.034   1.075 -0.7054  1.1750 -0.4012
 7688SOL     OW23679   3.523   1.799   4.660  0.1921 -0.2464  0.2017
 7688SOL    HW123680   3.548   1.757   4.577  1.4868  0.0221  0.4387
 7688SOL    HW223681   3.550   1.890   4.649 -0.3797 -0.0234  0.6181
 7689SOL     OW23682   5.306   3.587   6.904 -0.0670  0.3803 -0.2230
 7689SOL    HW123683   5.269   3.674   6.916 -0.9501  0.0001 -0.0671
 7689SOL    HW223684   5.235   3.527   6.929  1.0771 -0.3779  1.3758
 7690SOL     OW23685   0.518   2.795   1.795  0.0367  0.1556 -0.7377
 7690SOL    HW123686   0.440   2.791   1.850  1.0388 -0.7783  0.6805
 7690SOL    HW223687   0.500   2.866   1.734 -1.0519  1.3895  0.9253
 7691SOL     OW23688   0.673   1.710   3.714  0.1418  0.0984 -0.2635
 7691SOL    HW123689   0.755   1.715   3.664  0.5880 -0.4384  0.3998
 7691SOL    HW223690   0.651   1.801   3.732  0.6901  0.2432 -0.2959
 7692SOL     OW23691   3.678   1.186   0.135 -0.0627 -0.3049 -0.3472
 7692SOL    HW123692   3.729   1.122   0.187  0.1500  0.2440  0.1278
 7692SOL    HW223693   3.606   1.211   0.193  0.0009  0.0767 -0.4326
 7693SOL     OW23694   5.351   0.964   5.967 -0.1517  0.3347 -0.0057
 7693SOL    HW123695   5.426   0.952   5.908  1.0440 -1.1164  1.7090
 7693SOL    HW223696   5.329   1.056   5.958 -0.5396  0.0418 -3.2635
 7694SOL     OW23697   3.580   1.502   6.705 -0.1290 -0.1630  0.1453
 7694SOL    HW123698   3.588   1.433   6.771 -0.0548 -0.0925  0.2114
 7694SOL    HW223699   3.546   1.577   6.754  0.2548 -0.0047  0.1763
 7695SOL     OW23700   3.668   4.854   4.185 -0.1440 -0.0332  0.2376
 7695SOL    HW123701   3.763   4.852   4.189 -0.1362 -0.2878 -0.0669
 7695SOL    HW223702   3.640   4.794   4.255 -0.0747 -0.3155  0.0231
 7696SOL     OW23703   5.852   1.727   5.594 -0.3394 -0.1305 -0.5484
 7696SOL    HW123704   5.940   1.696   5.574  0.1368  1.4874 -1.1637
 7696SOL    HW223705   5.795   1.682   5.532  0.2340 -0.2260 -1.0147
 7697SOL     OW23706   3.428   5.076   3.347  0.0556  0.4904 -0.4184
 7697SOL    HW123707   3.451   5.156   3.300  2.4626 -0.3348 -0.8250
 7697SOL    HW223708   3.392   5.018   3.280 -2.0666  1.3031 -0.0493
 7698SOL     OW23709   6.576   1.138   4.132 -0.5845  0.2896  0.0996
 7698SOL    HW123710   6.546   1.061   4.180 -0.3555  0.4095  0.4435
 7698SOL    HW223711   6.512   1.149   4.061  0.1587 -1.0328 -0.8082
 7699SOL     OW23712   5.226   2.152   6.858  0.2344 -0.1743 -0.2353
 7699SOL    HW123713   5.267   2.236   6.834  1.6391 -0.5000  0.8729
 7699SOL    HW223714   5.141   2.177   6.894  0.7232  0.8181  0.2915
 7700SOL     OW23715   6.453   0.405   2.642 -0.2199  0.8560 -0.1786
 7700SOL    HW123716   6.480   0.348   2.570 -0.5737  1.2920 -0.6686
 7700SOL    HW223717   6.475   0.493   2.612 -1.7681  1.1875 -0.4255
 7701SOL     OW23718   5.223   6.868   4.755  0.0258  0.0976  0.2800
 7701SOL    HW123719   5.246   6.882   4.847 -1.3947  1.9566  0.4002
 7701SOL    HW223720   5.308   6.856   4.711  0.7279 -0.8272  1.7951
 7702SOL     OW23721   4.249   6.889   5.207 -0.2942  0.3811 -0.1146
 7702SOL    HW123722   4.336   6.905   5.172 -0.3835 -0.4199 -0.7588
 7702SOL    HW223723   4.237   6.794   5.199 -1.5540  0.5689 -0.8671
 7703SOL     OW23724   4.848   1.907   0.876  0.4834 -0.0705 -0.7158
 7703SOL    HW123725   4.767   1.958   0.886  0.7633  0.8941 -2.7383
 7703SOL    HW223726   4.915   1.958   0.921  0.1746 -0.3237  0.0409
 7704SOL     OW23727   6.694   0.188   3.353  0.0431 -0.0008  0.0334
 7704SOL    HW123728   6.713   0.173   3.261 -1.7689 -0.0352 -0.3798
 7704SOL    HW223729   6.674   0.102   3.389 -0.9486  0.2055  0.0115
 7705SOL     OW23730   4.252   3.355   5.884 -0.2114 -0.4903  0.3111
 7705SOL    HW123731   4.270   3.314   5.969 -0.7175 -0.8412  0.2579
 7705SOL    HW223732   4.160   3.381   5.890  0.6406  2.7386  1.1935
 7706SOL     OW23733   1.781   4.748   2.788  0.2462 -0.1535  0.3696
 7706SOL    HW123734   1.845   4.810   2.823  1.3714 -0.2826 -1.3565
 7706SOL    HW223735   1.705   4.801   2.765  0.3435  0.2427  0.9423
 7707SOL     OW23736   4.725   3.622   2.284 -0.4383 -0.0224  0.5524
 7707SOL    HW123737   4.706   3.609   2.377 -2.4379  0.0298  0.1884
 7707SOL    HW223738   4.805   3.675   2.283 -0.8738  0.7315  2.2741
 7708SOL     OW23739   1.877   1.045   6.535 -0.0550 -0.2715 -1.1711
 7708SOL    HW123740   1.816   1.031   6.607 -2.4477 -0.3959 -3.0816
 7708SOL    HW223741   1.962   1.016   6.569 -0.7228  1.1629  2.0625
 7709SOL     OW23742   5.662   4.209   6.408 -0.7603 -0.3967  0.7902
 7709SOL    HW123743   5.664   4.302   6.433  1.4234 -1.0247  3.2913
 7709SOL    HW223744   5.608   4.208   6.329  0.6927  3.2847 -0.4949
 7710SOL     OW23745   1.117   5.537   5.413 -0.9181 -0.1340  0.0700
 7710SOL    HW123746   1.122   5.458   5.359 -0.8325  1.3098 -2.1514
 7710SOL    HW223747   1.046   5.588   5.373 -0.5908  1.1674  1.1040
 7711SOL     OW23748   3.399   0.439   4.829  0.0592 -0.1127  0.1025
 7711SOL    HW123749   3.309   0.437   4.795  0.4826 -0.3463 -1.0692
 7711SOL    HW223750   3.446   0.374   4.775  0.9433  0.0555  0.6533
 7712SOL     OW23751   6.582   2.945   6.406 -0.4131  0.1868 -0.2276
 7712SOL    HW123752   6.569   2.949   6.311  0.9748 -0.8376 -0.4936
 7712SOL    HW223753   6.675   2.964   6.418 -0.7531  1.1726  1.0197
 7713SOL     OW23754   4.527   0.763   0.583 -0.4677  0.9060 -0.4648
 7713SOL    HW123755   4.460   0.767   0.652 -2.5147  2.9137 -2.3912
 7713SOL    HW223756   4.543   0.854   0.560  2.0964  0.4061 -0.9524
 7714SOL     OW23757   0.283   6.132   1.625  0.0680  0.2377  0.3027
 7714SOL    HW123758   0.285   6.042   1.594  2.9020  0.6881 -1.1558
 7714SOL    HW223759   0.359   6.139   1.683  0.4690  1.8836 -0.3607
 7715SOL     OW23760   5.017   2.473   2.223  0.2844  0.0752 -0.1821
 7715SOL    HW123761   5.045   2.409   2.157 -1.4934 -0.7685 -0.1892
 7715SOL    HW223762   4.924   2.487   2.203 -0.2825 -0.1516  2.0958
 7716SOL     OW23763   3.966   6.799   0.322 -0.5107 -0.3373  0.0253
 7716SOL    HW123764   3.959   6.879   0.375  0.5188 -0.4154  0.2927
 7716SOL    HW223765   3.921   6.732   0.374  0.5032 -0.4169  0.8230
 7717SOL     OW23766   0.524   6.527   5.026 -0.3803 -0.2784  0.2242
 7717SOL    HW123767   0.466   6.528   4.950  0.4639 -0.9632 -0.4559
 7717SOL    HW223768   0.583   6.601   5.012 -0.1972 -0.4306  0.1904
 7718SOL     OW23769   6.140   0.202   2.407  0.2129  0.0973 -0.5222
 7718SOL    HW123770   6.100   0.224   2.491  0.5429  0.6466 -0.5082
 7718SOL    HW223771   6.151   0.286   2.362  0.4706 -0.1437 -0.9190
 7719SOL     OW23772   3.380   5.710   3.333  0.7751  0.6911  0.1683
 7719SOL    HW123773   3.291   5.726   3.302  0.8308  1.6627  0.4972
 7719SOL    HW223774   3.427   5.791   3.314  2.0381 -0.3782 -1.5587
 7720SOL     OW23775   3.020   4.903   2.513  0.1981 -0.6521 -0.5661
 7720SOL    HW123776   2.995   4.813   2.534 -0.6682 -0.4189 -0.5810
 7720SOL    HW223777   3.011   4.910   2.418  0.0049 -0.4700 -0.5343
 7721SOL     OW23778   2.460   2.394   4.447 -0.3306  0.9526  0.2416
 7721SOL    HW123779   2.503   2.332   4.388 -1.6725  0.6348 -0.4390
 7721SOL    HW223780   2.523   2.407   4.518  0.8913  0.5297 -0.7187
 7722SOL     OW23781   6.388   2.151   6.138 -0.2073 -0.0317  0.3642
 7722SOL    HW123782   6.455   2.214   6.110 -0.5051 -0.1226 -0.5770
 7722SOL    HW223783   6.437   2.070   6.154 -0.1943 -0.4085 -1.3657
 7723SOL     OW23784   2.302   0.998   1.186 -0.6222 -0.5088  0.2689
 7723SOL    HW123785   2.378   0.983   1.130 -0.0870 -0.7320  1.0492
 7723SOL    HW223786   2.308   1.090   1.210 -1.3523 -0.1717 -0.7500
 7724SOL     OW23787   2.001   6.121   7.102  0.1217 -0.2225 -0.4447
 7724SOL    HW123788   2.038   6.179   7.036  1.1210  1.3170  1.3692
 7724SOL    HW223789   1.951   6.178   7.160  0.4193 -1.2717  0.9225
 7725SOL     OW23790   6.720   5.202   4.179  0.0497  0.0441  0.4978
 7725SOL    HW123791   6.639   5.249   4.160  0.3864  0.5551  0.2797
 7725SOL    HW223792   6.785   5.244   4.123  0.3925 -0.5937  0.4153
 7726SOL     OW23793   5.572   1.956   2.597  0.1836  0.1721  0.1863
 7726SOL    HW123794   5.479   1.932   2.593 -0.0125  1.0129 -2.9482
 7726SOL    HW223795   5.587   2.006   2.517  3.1658  0.8319  1.0472
 7727SOL     OW23796   5.515   5.664   6.559  0.0348  0.6166 -0.2976
 7727SOL    HW123797   5.577   5.628   6.621  0.7884  0.3123 -1.2022
 7727SOL    HW223798   5.506   5.756   6.585 -1.7733 -0.0939  1.9156
 7728SOL     OW23799   6.778   4.599   4.761 -0.3070 -0.3678 -0.1562
 7728SOL    HW123800   6.736   4.547   4.693 -1.3042 -0.2840  0.3837
 7728SOL    HW223801   6.731   4.577   4.842  1.6056 -1.3509  0.7426
 7729SOL     OW23802   0.758   3.175   6.685 -0.3440 -0.3229  0.1093
 7729SOL    HW123803   0.704   3.170   6.764  1.6284  0.5565  1.6011
 7729SOL    HW223804   0.811   3.095   6.687  0.9836  0.5353  0.7147
 7730SOL     OW23805   1.696   1.745   2.663  0.8102  0.1354 -0.0452
 7730SOL    HW123806   1.611   1.766   2.702  1.8177  0.2361  2.2320
 7730SOL    HW223807   1.720   1.824   2.614 -0.1836  0.2689 -0.3456
 7731SOL     OW23808   2.851   4.792   6.770  0.2147  0.5107 -0.0771
 7731SOL    HW123809   2.908   4.717   6.751  0.4299  0.8134 -0.6606
 7731SOL    HW223810   2.884   4.827   6.853  0.5354  0.3573 -0.1384
 7732SOL     OW23811   0.492   4.068   0.881 -0.3810 -0.2401  0.2653
 7732SOL    HW123812   0.549   4.122   0.936 -1.9603  1.8867 -0.0587
 7732SOL    HW223813   0.441   4.017   0.943 -0.5799  0.4825  0.7156
 7733SOL     OW23814   3.583   1.927   6.298  0.1322  0.4657 -0.3165
 7733SOL    HW123815   3.491   1.927   6.273 -0.0681 -0.6245  0.3660
 7733SOL    HW223816   3.593   2.007   6.350 -0.9787 -0.4975  1.4628
 7734SOL     OW23817   3.929   2.113   2.979 -0.0434 -0.7478  0.0890
 7734SOL    HW123818   3.913   2.152   3.064  0.5044 -2.3241  0.9645
 7734SOL    HW223819   3.936   2.019   2.996  1.9558 -0.9429 -1.3812
 7735SOL     OW23820   4.946   4.851   4.973  0.1608 -0.3721  0.1524
 7735SOL    HW123821   5.031   4.895   4.973  1.1150 -2.1213  0.8923
 7735SOL    HW223822   4.962   4.767   5.015 -1.2298 -2.0708 -2.3957
 7736SOL     OW23823   2.004   0.890   2.292  0.2846  0.2118 -0.2553
 7736SOL    HW123824   1.964   0.810   2.257 -0.0871  0.8717 -1.4087
 7736SOL    HW223825   2.078   0.859   2.345  1.2366 -0.8651 -2.0841
 7737SOL     OW23826   4.907   6.289   0.016 -0.0417 -0.0232 -0.3879
 7737SOL    HW123827   4.944   6.227  -0.047  0.5563 -0.3438  0.2575
 7737SOL    HW223828   4.940   6.259   0.101 -1.7129 -0.2592  0.2122
 7738SOL     OW23829   6.592   5.125   5.399  0.2670  0.2281 -0.0754
 7738SOL    HW123830   6.646   5.069   5.455  1.7013  0.2078 -1.4221
 7738SOL    HW223831   6.631   5.212   5.407 -1.2955  0.8556  1.1655
 7739SOL     OW23832   0.329   5.661   7.210 -0.0284  0.0540 -0.2998
 7739SOL    HW123833   0.413   5.657   7.257  0.0686 -1.1869 -0.5511
 7739SOL    HW223834   0.341   5.730   7.145 -0.0028  1.4948  1.1529
 7740SOL     OW23835   5.313   2.422   2.889  0.6624  0.1577  0.2858
 7740SOL    HW123836   5.324   2.349   2.950 -1.0280  2.0188  3.0932
 7740SOL    HW223837   5.369   2.491   2.924  0.4576  0.9703 -0.9115
 7741SOL     OW23838   6.220   5.495   6.102 -0.8499 -0.1485  0.1348
 7741SOL    HW123839   6.261   5.408   6.099 -1.1577 -0.2680 -1.4203
 7741SOL    HW223840   6.292   5.554   6.127  0.1198 -0.4892 -1.6293
 7742SOL     OW23841   4.375   2.594   2.325  0.6038  0.3303  0.0904
 7742SOL    HW123842   4.455   2.628   2.366  0.8904  0.4212 -0.5291
 7742SOL    HW223843   4.350   2.519   2.378  2.4240 -1.1551 -1.0379
 7743SOL     OW23844   0.326   3.405   5.943 -0.5495  0.8654 -0.2202
 7743SOL    HW123845   0.360   3.479   5.893  0.8339  0.3088 -0.1479
 7743SOL    HW223846   0.338   3.429   6.034 -1.1432  1.0034 -0.1708
 7744SOL     OW23847   2.526   4.199   4.898 -0.0228 -0.8629  0.4918
 7744SOL    HW123848   2.448   4.196   4.954  0.5531  0.5985  1.4331
 7744SOL    HW223849   2.567   4.283   4.919  0.4720 -0.4746 -1.8274
 7745SOL     OW23850   4.653   5.887   2.704 -0.1183  0.4989 -0.3982
 7745SOL    HW123851   4.713   5.962   2.703 -0.4084  0.8427  1.6983
 7745SOL    HW223852   4.691   5.824   2.643  0.6604  1.9552 -1.4750
 7746SOL     OW23853   5.838   4.921   6.539  0.9108  0.5135  0.0868
 7746SOL    HW123854   5.922   4.961   6.519  0.4560  1.9716  0.9683
 7746SOL    HW223855   5.781   4.947   6.466  1.8452 -2.8444 -2.0739
 7747SOL     OW23856   1.490   1.590   6.939 -0.1958  0.3127  0.9868
 7747SOL    HW123857   1.459   1.502   6.961  2.0601 -0.7872  0.0848
 7747SOL    HW223858   1.532   1.621   7.019 -1.0274  0.6041  1.3184
 7748SOL     OW23859   0.156   1.677   1.125 -0.2488  0.4273  0.0142
 7748SOL    HW123860   0.106   1.607   1.084 -1.2603  1.4072 -0.5135
 7748SOL    HW223861   0.178   1.644   1.212 -1.3792 -0.2437  0.0604
 7749SOL     OW23862   3.341   2.944   3.613  0.5288 -0.3827 -0.5646
 7749SOL    HW123863   3.288   2.892   3.552  0.4565 -0.2411 -0.6231
 7749SOL    HW223864   3.277   2.989   3.667  0.5945 -0.7888 -0.1434
 7750SOL     OW23865   4.003   4.469   4.283 -0.0879 -0.2269 -0.4214
 7750SOL    HW123866   4.005   4.501   4.373  0.7094 -1.5015  0.0395
 7750SOL    HW223867   3.977   4.377   4.291 -0.6121 -0.1884 -1.5456
 7751SOL     OW23868   6.654   2.295   5.313  0.5547  0.2206  0.3606
 7751SOL    HW123869   6.725   2.334   5.261  0.4910 -1.2144 -0.9025
 7751SOL    HW223870   6.596   2.257   5.247 -0.5372 -0.0350  1.4530
 7752SOL     OW23871   6.064   2.473   4.257 -0.4230 -0.1206 -0.1569
 7752SOL    HW123872   6.039   2.386   4.290  0.3683 -0.1540  0.3949
 7752SOL    HW223873   6.015   2.534   4.312  0.9059 -0.1756  1.1604
 7753SOL     OW23874   2.385   1.962   2.429  0.0931 -0.3527  0.7039
 7753SOL    HW123875   2.413   1.936   2.517  2.1754 -1.6118 -0.2486
 7753SOL    HW223876   2.378   2.057   2.433  3.2506 -0.0399  1.4965
 7754SOL     OW23877   2.654   0.423   0.018 -0.0749  0.2848  0.5679
 7754SOL    HW123878   2.635   0.334  -0.011 -0.5840  0.5113  0.1857
 7754SOL    HW223879   2.710   0.413   0.095 -1.1368 -0.3858  1.2734
 7755SOL     OW23880   5.775   6.453   1.555 -0.1213  0.1800  0.7679
 7755SOL    HW123881   5.715   6.525   1.536  0.7498  0.9639  0.9178
 7755SOL    HW223882   5.861   6.494   1.561  0.2820 -0.7416  1.7108
 7756SOL     OW23883   0.285   6.414   2.508  0.3118 -0.4504  0.6106
 7756SOL    HW123884   0.265   6.507   2.522 -0.3336 -0.7676  2.0149
 7756SOL    HW223885   0.217   6.382   2.449 -0.2337 -0.3102  1.1515
 7757SOL     OW23886   4.457   2.455   4.451  0.3237  0.6313 -0.0785
 7757SOL    HW123887   4.401   2.389   4.410 -0.2836  1.0612  0.0485
 7757SOL    HW223888   4.418   2.470   4.537 -1.1904  3.1233 -1.0901
 7758SOL     OW23889   6.274   0.874   6.715  0.2958 -0.1630 -0.0911
 7758SOL    HW123890   6.259   0.954   6.664 -0.1343  0.0709  0.3922
 7758SOL    HW223891   6.288   0.806   6.649  0.2077  0.2237 -0.5169
 7759SOL     OW23892   4.417   1.279   1.127  0.0184 -0.1200 -0.8243
 7759SOL    HW123893   4.380   1.298   1.213  3.0091  0.5330  0.4455
 7759SOL    HW223894   4.477   1.352   1.110  1.7471 -1.7565 -2.0670
 7760SOL     OW23895   2.913   2.309   1.677 -0.0181 -0.2177  0.3765
 7760SOL    HW123896   2.887   2.386   1.728 -1.1238 -0.7404  0.6095
 7760SOL    HW223897   2.858   2.238   1.709  0.6177 -0.9996 -0.2148
 7761SOL     OW23898   3.571   6.368   2.772  0.1208  0.7001  0.0554
 7761SOL    HW123899   3.479   6.379   2.798 -0.0815  0.5828 -0.5725
 7761SOL    HW223900   3.608   6.456   2.775  0.5184  0.4935  2.1766
 7762SOL     OW23901   6.196   5.955   0.910  0.1673  0.3365 -0.1359
 7762SOL    HW123902   6.108   5.954   0.949  0.7522 -2.5492  1.4000
 7762SOL    HW223903   6.216   6.048   0.901 -2.6038  1.1086  0.4631
 7763SOL     OW23904   1.805   5.058   1.493  0.1076  0.1868  0.0654
 7763SOL    HW123905   1.888   5.086   1.531  0.4266 -0.7665  0.1145
 7763SOL    HW223906   1.804   5.096   1.406  0.9568 -0.4165 -0.2159
 7764SOL     OW23907   2.821   3.271   5.407 -0.2123 -0.2433  0.4740
 7764SOL    HW123908   2.881   3.269   5.333 -1.2929 -1.7122 -0.4000
 7764SOL    HW223909   2.736   3.292   5.369 -0.5353  0.4417  1.5138
 7765SOL     OW23910   6.571   3.297   6.101  0.3581 -0.4989 -0.2819
 7765SOL    HW123911   6.665   3.300   6.120  0.3577 -0.6110 -0.2629
 7765SOL    HW223912   6.533   3.361   6.161  0.1878 -1.8452  1.1121
 7766SOL     OW23913   6.825   2.156   2.008 -0.6000  0.1940  0.3281
 7766SOL    HW123914   6.838   2.062   2.012 -1.0459  0.1432  0.6812
 7766SOL    HW223915   6.888   2.191   2.072  1.4506  0.3589 -1.6439
 7767SOL     OW23916   5.784   3.887   4.089  0.3988  0.0329 -0.1231
 7767SOL    HW123917   5.738   3.825   4.033  2.3237 -1.3777 -0.2683
 7767SOL    HW223918   5.862   3.912   4.038  1.8049 -0.6937  1.5680
 7768SOL     OW23919   2.169   0.960   5.592 -0.3249 -1.0228 -0.4284
 7768SOL    HW123920   2.128   1.042   5.565 -0.5660 -0.4690  1.4577
 7768SOL    HW223921   2.113   0.927   5.663  1.4227 -1.2118  0.9414
 7769SOL     OW23922   5.138   4.041   4.688  0.2657  0.4180 -0.3957
 7769SOL    HW123923   5.198   4.103   4.648  0.7673  1.2811  1.5631
 7769SOL    HW223924   5.180   4.016   4.770 -0.9452 -0.8496 -0.1165
 7770SOL     OW23925   6.096   5.729   3.717 -0.0347  0.5252 -0.0353
 7770SOL    HW123926   6.052   5.739   3.632  2.0088  1.2128 -1.0658
 7770SOL    HW223927   6.085   5.814   3.759  1.1072  1.0243 -0.7126
 7771SOL     OW23928   2.322   5.630   3.935 -0.0606 -0.3849 -0.3688
 7771SOL    HW123929   2.354   5.691   3.869 -1.4667  1.6776  0.7682
 7771SOL    HW223930   2.231   5.614   3.911 -0.7208  0.7293  1.2653
 7772SOL     OW23931   4.911   3.817   1.975 -0.5181  0.6259  0.0889
 7772SOL    HW123932   4.855   3.839   2.049 -0.6878 -0.1497  0.2079
 7772SOL    HW223933   4.968   3.747   2.009 -1.4519 -0.6494 -0.8546
 7773SOL     OW23934   5.103   4.585   0.200  0.0576 -0.2256  0.6240
 7773SOL    HW123935   5.143   4.523   0.261 -0.5497 -0.9170  0.3357
 7773SOL    HW223936   5.072   4.656   0.255  1.0511 -0.0055  0.9263
 7774SOL     OW23937   1.622   2.467   0.102  0.0253  0.3951  0.5671
 7774SOL    HW123938   1.687   2.399   0.090 -0.5735 -0.3030  1.1588
 7774SOL    HW223939   1.644   2.507   0.186 -1.5474 -1.3227  1.9022
 7775SOL     OW23940   3.118   0.627   5.862  0.4249 -0.0274  0.0595
 7775SOL    HW123941   3.168   0.545   5.871  0.2587 -0.2450 -0.9268
 7775SOL    HW223942   3.027   0.599   5.866  0.3715  0.1482  0.0379
 7776SOL     OW23943   4.953   4.847   6.056  0.2025 -0.1059 -0.3577
 7776SOL    HW123944   4.966   4.921   5.996  0.1459 -1.0053 -1.5178
 7776SOL    HW223945   5.004   4.871   6.134 -1.6155  2.1685  0.2474
 7777SOL     OW23946   1.871   0.508   4.349 -0.3869  0.2671  0.2604
 7777SOL    HW123947   1.912   0.586   4.384  1.1327 -1.3830  2.4067
 7777SOL    HW223948   1.869   0.446   4.422 -2.1143 -1.5162 -1.1632
 7778SOL     OW23949   3.504   4.063   6.116 -0.2181 -0.3874  0.7704
 7778SOL    HW123950   3.483   3.972   6.095  1.8537 -1.0440  1.3292
 7778SOL    HW223951   3.421   4.109   6.104 -1.0060 -2.0675 -0.9771
 7779SOL     OW23952   1.949   3.029   0.726  0.5523  0.3264  0.0962
 7779SOL    HW123953   1.957   2.951   0.781  0.0076  1.0072  1.1757
 7779SOL    HW223954   1.928   3.099   0.787  0.4950  1.2236 -0.9268
 7780SOL     OW23955   7.116   7.109   0.822  0.4945  0.1642 -0.0788
 7780SOL    HW123956   7.107   7.123   0.916  1.5292  0.4575 -0.0134
 7780SOL    HW223957   7.129   7.014   0.813  0.1645  0.1056  0.0479
 7781SOL     OW23958   2.764   0.726   4.637 -1.1539  0.1867  0.0066
 7781SOL    HW123959   2.762   0.724   4.541 -0.7432  2.0825 -0.0892
 7781SOL    HW223960   2.854   0.753   4.658 -1.6103  1.1270  0.8571
 7782SOL     OW23961   0.512   4.442   5.577 -0.2017 -0.3572 -0.4064
 7782SOL    HW123962   0.539   4.460   5.667  1.5490  1.0207 -1.1330
 7782SOL    HW223963   0.516   4.527   5.533 -2.6219 -0.7079 -1.4277
 7783SOL     OW23964   4.177   0.556   1.884  0.0919  0.2982 -0.3845
 7783SOL    HW123965   4.266   0.589   1.872 -0.5364  2.0213 -0.6171
 7783SOL    HW223966   4.123   0.635   1.892 -1.1631 -0.6781  1.8100
 7784SOL     OW23967   1.825   4.181   3.079  0.3691  0.1706 -0.4624
 7784SOL    HW123968   1.838   4.156   2.988 -0.8785  0.8311 -0.8401
 7784SOL    HW223969   1.870   4.265   3.087  2.0639 -0.7222  0.0524
 7785SOL     OW23970   6.078   5.868   0.556  0.2973 -0.3312  0.0688
 7785SOL    HW123971   6.013   5.810   0.596  0.0405 -0.7617 -0.9391
 7785SOL    HW223972   6.026   5.930   0.505  0.5715  0.7637  1.0521
 7786SOL     OW23973   3.734   0.598   6.247  0.0762 -0.0256 -0.1401
 7786SOL    HW123974   3.679   0.660   6.199  3.6914  3.2020 -0.5805
 7786SOL    HW223975   3.677   0.522   6.261 -3.6744  2.0262 -2.4500
 7787SOL     OW23976   0.322   1.025   0.244 -0.4153 -0.2057  0.5773
 7787SOL    HW123977   0.242   1.077   0.229  1.0133  2.3309  1.1327
 7787SOL    HW223978   0.305   0.977   0.325 -1.6957 -0.4286  0.2038
 7788SOL     OW23979   0.514   5.474   1.028  1.1780 -0.0130  0.4015
 7788SOL    HW123980   0.446   5.537   1.003 -0.3223 -0.6251  2.5984
 7788SOL    HW223981   0.594   5.525   1.032  0.4740  1.1973 -0.2967
 7789SOL     OW23982   2.880   0.466   4.381 -0.1097  0.3982 -0.1642
 7789SOL    HW123983   2.815   0.426   4.323  0.2024  0.1843 -0.3712
 7789SOL    HW223984   2.933   0.521   4.323 -0.8650  1.5542  0.1965
 7790SOL     OW23985   5.837   2.255   2.188  0.4709  0.4190 -0.0073
 7790SOL    HW123986   5.847   2.162   2.169  1.4731  0.0349  2.0472
 7790SOL    HW223987   5.921   2.280   2.226  0.0538  2.0635 -0.0958
 7791SOL     OW23988   5.335   4.754   6.532  0.2620  0.0659  0.0890
 7791SOL    HW123989   5.391   4.796   6.596  0.0008  0.2372  0.2065
 7791SOL    HW223990   5.246   4.777   6.559  0.1627  0.4489 -0.5452
 7792SOL     OW23991   6.176   4.302   4.640  0.7503 -0.2929  0.1852
 7792SOL    HW123992   6.171   4.283   4.546  0.3839  0.5927  0.0237
 7792SOL    HW223993   6.094   4.345   4.661  1.0796  0.0574  0.7910
 7793SOL     OW23994   6.817   3.851   5.887 -0.4649  0.4150 -0.0371
 7793SOL    HW123995   6.759   3.875   5.960 -0.2910  0.4486  0.0894
 7793SOL    HW223996   6.758   3.814   5.821 -0.5629 -0.1134  0.3364
 7794SOL     OW23997   1.885   1.224   2.628 -0.1018  0.0962 -1.1079
 7794SOL    HW123998   1.828   1.168   2.680  0.1644  1.1474  0.3876
 7794SOL    HW223999   1.971   1.183   2.634 -0.1665 -0.0376 -1.0961
 7795SOL     OW24000   4.688   6.864   0.661  0.2041 -0.3544  0.2233
 7795SOL    HW124001   4.655   6.947   0.628  1.0412 -0.1054 -0.0158
 7795SOL    HW224002   4.658   6.860   0.752 -1.4184 -0.6651 -0.2903
 7796SOL     OW24003   4.860   2.771   6.980  0.3661  0.0849 -0.4009
 7796SOL    HW124004   4.771   2.797   7.002  0.6031 -0.3479  1.2519
 7796SOL    HW224005   4.915   2.826   7.036  1.0602 -0.6381 -0.3519
 7797SOL     OW24006   3.114   2.771   2.782  0.0996 -0.5464 -0.2275
 7797SOL    HW124007   3.149   2.831   2.715  0.5511  0.2200  0.6720
 7797SOL    HW224008   3.174   2.697   2.780  0.6135 -0.1422 -0.0923
 7798SOL     OW24009   1.043   4.697   4.991  0.7910  0.2839 -0.0460
 7798SOL    HW124010   1.019   4.687   4.899  0.7735  0.0877 -0.0194
 7798SOL    HW224011   1.027   4.790   5.009 -1.1806 -0.0807  0.3253
 7799SOL     OW24012   1.374   3.015   5.858  0.0725  0.1513 -0.7578
 7799SOL    HW124013   1.443   3.003   5.792  0.7492  0.8591 -0.1998
 7799SOL    HW224014   1.292   3.007   5.809  0.5229 -1.2290 -1.3523
 7800SOL     OW24015   0.963   4.419   6.998  0.0220  0.3442 -0.0574
 7800SOL    HW124016   1.003   4.456   7.077  0.0308  0.6507 -0.2074
 7800SOL    HW224017   0.959   4.325   7.017  0.0922  0.4046  0.2788
 7801SOL     OW24018   3.659   1.687   6.180 -0.2851 -0.3785  0.3181
 7801SOL    HW124019   3.685   1.708   6.090  1.2099 -1.2020  0.5196
 7801SOL    HW224020   3.661   1.771   6.226 -0.0183 -0.1136 -0.1725
 7802SOL     OW24021   2.192   4.167   2.228 -0.4936  0.0955 -0.7388
 7802SOL    HW124022   2.127   4.101   2.203  0.0008 -0.7057  0.0166
 7802SOL    HW224023   2.273   4.136   2.188  0.1363 -0.7831  1.1292
 7803SOL     OW24024   6.094   4.324   5.039 -0.0766 -0.8471  0.4887
 7803SOL    HW124025   6.086   4.255   5.104  0.1186 -1.3432 -0.0020
 7803SOL    HW224026   6.076   4.405   5.086  1.5218 -1.0395  1.5191
 7804SOL     OW24027   6.186   4.889   2.768  0.4348 -0.1702 -0.4145
 7804SOL    HW124028   6.107   4.834   2.769 -0.9221  1.6084 -1.9467
 7804SOL    HW224029   6.257   4.828   2.750 -0.6310 -1.7833  0.6051
 7805SOL     OW24030   5.128   2.594   4.504  0.3649 -0.1102  0.4075
 7805SOL    HW124031   5.192   2.558   4.443  0.8103  0.1044  0.7457
 7805SOL    HW224032   5.051   2.612   4.450  1.0813  0.9757 -0.2706
 7806SOL     OW24033   6.783   2.053   6.555 -0.0596 -0.0493  0.5043
 7806SOL    HW124034   6.780   1.981   6.492 -1.4629  0.6473 -0.2659
 7806SOL    HW224035   6.711   2.035   6.615 -0.0605  0.4219  0.6429
 7807SOL     OW24036   3.186   7.063   4.320 -0.2265  0.0133  0.1064
 7807SOL    HW124037   3.219   7.141   4.365  1.1553 -1.0881  1.1099
 7807SOL    HW224038   3.230   7.065   4.235  1.3730 -0.6318  0.8589
 7808SOL     OW24039   1.398   2.966   2.637 -0.6340 -0.3463 -0.5811
 7808SOL    HW124040   1.314   3.007   2.617  0.1783  0.9099 -1.6183
 7808SOL    HW224041   1.381   2.913   2.715 -2.2371  0.3297 -0.4274
 7809SOL     OW24042   3.157   1.297   4.034  0.5086 -0.4442 -0.5133
 7809SOL    HW124043   3.233   1.294   4.091  0.7925 -0.6618 -0.8961
 7809SOL    HW224044   3.182   1.359   3.965  0.7051 -1.2265 -1.1529
 7810SOL     OW24045   0.692   4.451   5.935 -0.2762 -0.1193  0.1324
 7810SOL    HW124046   0.616   4.495   5.898  0.4118  1.7970  0.9038
 7810SOL    HW224047   0.761   4.463   5.870  0.2036  0.9315  0.8082
 7811SOL     OW24048   1.521   0.022   1.137  0.4508  0.1828 -0.4659
 7811SOL    HW124049   1.478   0.103   1.111  0.3415  0.0771 -0.6196
 7811SOL    HW224050   1.483   0.001   1.223  2.0703  1.4495  0.6179
 7812SOL     OW24051   1.201   4.191   6.260 -0.0997 -0.0014  0.3820
 7812SOL    HW124052   1.287   4.191   6.219 -0.0473  1.6707  0.4394
 7812SOL    HW224053   1.139   4.192   6.187 -0.1027 -1.4655  0.3375
 7813SOL     OW24054   0.904   4.969   3.514 -0.4414  0.6807 -0.0684
 7813SOL    HW124055   0.877   5.061   3.504 -0.4684  0.8268  1.1295
 7813SOL    HW224056   0.849   4.936   3.585 -0.7887 -0.4232 -0.8250
 7814SOL     OW24057   2.587   4.979   6.315 -0.2357 -0.1742 -0.4401
 7814SOL    HW124058   2.607   5.042   6.384 -0.5238  0.9834 -1.3585
 7814SOL    HW224059   2.639   4.902   6.336 -0.1721  0.2226  0.9480
 7815SOL     OW24060   0.589   6.570   2.841  0.0571  0.1138  0.3272
 7815SOL    HW124061   0.627   6.621   2.912  1.5676  1.0469 -1.0807
 7815SOL    HW224062   0.519   6.625   2.807 -0.4795 -0.2106  0.8879
 7816SOL     OW24063   3.292   6.711   5.270  0.5247 -0.1153 -0.2019
 7816SOL    HW124064   3.348   6.640   5.301  0.5178 -0.4281 -0.8767
 7816SOL    HW224065   3.247   6.674   5.194  1.4325  0.9861 -1.3277
 7817SOL     OW24066   4.149   6.578   3.821  0.0456 -0.0419  0.1672
 7817SOL    HW124067   4.151   6.521   3.744  2.3235 -1.3729  1.1085
 7817SOL    HW224068   4.163   6.519   3.895 -2.6803  1.1193  1.7587
 7818SOL     OW24069   0.508   5.727   3.559  0.2289  0.6676 -0.4990
 7818SOL    HW124070   0.471   5.805   3.517  1.9615  1.5432 -0.5248
 7818SOL    HW224071   0.531   5.669   3.486 -0.6019  0.3313 -0.5055
 7819SOL     OW24072   0.772   3.426   3.754 -0.2788 -0.3199 -0.2303
 7819SOL    HW124073   0.827   3.503   3.767 -1.8076  1.0895 -1.7488
 7819SOL    HW224074   0.732   3.411   3.840 -0.3213  0.8478 -0.0338
 7820SOL     OW24075   5.378   4.113   3.837  1.3092 -0.0141 -0.5228
 7820SOL    HW124076   5.428   4.193   3.856  1.8284 -0.2791 -0.7637
 7820SOL    HW224077   5.331   4.094   3.918  0.0916  1.3144 -0.8783
 7821SOL     OW24078   6.268   4.504   6.221 -0.4813 -0.4518 -0.0670
 7821SOL    HW124079   6.175   4.490   6.239 -0.3048  0.3863  1.6119
 7821SOL    HW224080   6.270   4.526   6.128 -2.1189  0.7883  0.1349
 7822SOL     OW24081   5.210   1.047   1.728 -0.4040 -0.5425 -0.8308
 7822SOL    HW124082   5.238   0.998   1.651  0.2744  0.2902 -1.1342
 7822SOL    HW224083   5.175   1.129   1.694 -0.3076 -0.2566 -0.2679
 7823SOL     OW24084   4.199   2.076   5.782 -0.4850  0.3892 -0.0221
 7823SOL    HW124085   4.259   2.013   5.742 -0.4646  1.0999 -1.1384
 7823SOL    HW224086   4.191   2.046   5.873 -0.8870 -1.5267 -0.6361
 7824SOL     OW24087   1.664   6.090   4.472  0.1948  0.1586  0.1278
 7824SOL    HW124088   1.714   6.049   4.402  1.7124  1.0537  0.6450
 7824SOL    HW224089   1.673   6.030   4.546  2.8622  1.5318  1.0500
 7825SOL     OW24090   1.635   7.033   3.111 -0.5887 -0.3342  0.0210
 7825SOL    HW124091   1.622   7.057   3.203 -0.5804 -1.2028  0.2552
 7825SOL    HW224092   1.680   6.949   3.114  2.3990  1.1299 -0.7977
 7826SOL     OW24093   6.201   7.241   6.533 -0.3962  0.1152  0.3368
 7826SOL    HW124094   6.215   7.264   6.441  1.2191  0.0586  0.5390
 7826SOL    HW224095   6.284   7.202   6.561 -0.9471 -0.1055  1.7524
 7827SOL     OW24096   5.382   5.185   2.028 -0.3804 -0.1746  0.0885
 7827SOL    HW124097   5.405   5.199   1.936 -1.0512 -1.9442 -0.3887
 7827SOL    HW224098   5.326   5.108   2.027  0.0984 -0.5949  2.0659
 7828SOL     OW24099   0.660   1.826   2.959 -0.7259 -0.0763 -0.6304
 7828SOL    HW124100   0.728   1.890   2.941 -1.7626  1.1435 -0.3944
 7828SOL    HW224101   0.703   1.741   2.948  0.7944  0.6471 -0.5476
 7829SOL     OW24102   0.880   2.454   3.154  0.1718 -0.6673 -0.3018
 7829SOL    HW124103   0.900   2.365   3.182 -0.4622 -0.7835 -0.2007
 7829SOL    HW224104   0.899   2.509   3.230  3.1212 -0.3360 -1.1317
 7830SOL     OW24105   0.568   2.693   4.275  0.2525 -0.0765 -0.1795
 7830SOL    HW124106   0.473   2.696   4.261 -0.0199 -2.4390  0.7503
 7830SOL    HW224107   0.585   2.603   4.302  2.6238  0.5799  0.7111
 7831SOL     OW24108   4.139   1.485   2.609 -0.1432  0.3614  0.5225
 7831SOL    HW124109   4.179   1.541   2.542  1.3747 -0.1750  0.9247
 7831SOL    HW224110   4.162   1.396   2.581 -1.1956  0.0219  0.7112
 7832SOL     OW24111   5.078   2.118   6.281 -0.5389 -0.1984 -0.2068
 7832SOL    HW124112   5.007   2.059   6.257 -0.6840  0.6819 -2.1671
 7832SOL    HW224113   5.121   2.076   6.356 -1.3312 -2.1743 -0.8100
 7833SOL     OW24114   6.059   1.338   5.358 -0.5187  0.5451 -0.2057
 7833SOL    HW124115   6.015   1.324   5.274  1.0071 -0.8205 -0.8191
 7833SOL    HW224116   6.152   1.328   5.338 -0.1412  0.0021  1.6845
 7834SOL     OW24117   0.764   1.444   1.159 -0.2739 -0.4520 -0.2566
 7834SOL    HW124118   0.733   1.396   1.082 -1.7790  0.5375 -0.3126
 7834SOL    HW224119   0.840   1.493   1.127 -1.7606  1.1386 -1.5981
 7835SOL     OW24120   5.980   5.434   4.233 -0.4387 -0.7285 -0.3041
 7835SOL    HW124121   5.959   5.390   4.315 -1.3523  1.4202  0.6986
 7835SOL    HW224122   5.895   5.462   4.198  0.0593 -0.1764 -1.1257
 7836SOL     OW24123   5.680   1.159   1.218  0.4919  0.2186 -0.0506
 7836SOL    HW124124   5.608   1.185   1.276  0.2106 -0.7612  0.0518
 7836SOL    HW224125   5.714   1.079   1.257  0.8364  0.0021 -0.7864
 7837SOL     OW24126   1.641   4.219   4.793  0.1247 -0.4327  0.2947
 7837SOL    HW124127   1.625   4.131   4.827 -1.6187 -0.1103  0.3542
 7837SOL    HW224128   1.571   4.272   4.829  0.4655  0.7448 -0.7188
 7838SOL     OW24129   4.633   4.717   4.347  0.3960 -0.5813 -0.3657
 7838SOL    HW124130   4.552   4.765   4.330  1.1668  0.9115  0.0092
 7838SOL    HW224131   4.630   4.696   4.440  0.8866  0.4103 -0.1061
 7839SOL     OW24132   0.598   6.896   4.560 -0.6092 -0.2682  0.2967
 7839SOL    HW124133   0.511   6.889   4.520  0.4394  0.6624 -2.3559
 7839SOL    HW224134   0.642   6.815   4.536  0.1342  0.4247 -0.7311
 7840SOL     OW24135   3.332   2.232   3.782 -0.0947  0.5850  0.2583
 7840SOL    HW124136   3.347   2.313   3.734  1.1574  0.6232  0.6737
 7840SOL    HW224137   3.303   2.261   3.869  3.3605  0.7989  1.5013
 7841SOL     OW24138   3.000   2.632   1.494  0.0071 -0.0701  0.1455
 7841SOL    HW124139   3.058   2.563   1.530  0.2074  0.7617  1.4892
 7841SOL    HW224140   2.913   2.607   1.524 -0.1618 -0.5836 -0.7296
 7842SOL     OW24141   5.055   0.052   4.196  0.0068  0.0379  0.4768
 7842SOL    HW124142   5.061   0.097   4.280  0.6471  0.8633 -0.0044
 7842SOL    HW224143   5.125  -0.013   4.198  1.8174  1.8442 -0.4521
 7843SOL     OW24144   2.235   4.268   0.647 -0.0655 -0.0266  0.6056
 7843SOL    HW124145   2.237   4.183   0.602  0.8883  0.5308 -0.4465
 7843SOL    HW224146   2.315   4.270   0.698  0.0234  0.3290  0.4551
 7844SOL     OW24147   4.117   1.377   2.260  0.2395 -0.4189 -0.1318
 7844SOL    HW124148   4.167   1.301   2.231  0.7301 -0.5786  1.0658
 7844SOL    HW224149   4.178   1.450   2.255  0.4505 -0.5144  0.7966
 7845SOL     OW24150   4.062   5.350   2.832 -0.5433  0.0177 -0.0536
 7845SOL    HW124151   4.090   5.278   2.889  2.7464  0.9940 -0.2060
 7845SOL    HW224152   4.126   5.349   2.761 -1.3237  2.1724 -0.8425
 7846SOL     OW24153   0.453   5.586   3.789  0.5375  0.0664 -0.0794
 7846SOL    HW124154   0.442   5.637   3.709 -0.9787 -1.1646 -0.7185
 7846SOL    HW224155   0.547   5.569   3.794  0.6544  0.0866 -1.6837
 7847SOL     OW24156   6.363   1.411   6.286 -0.0288  0.2038 -0.0677
 7847SOL    HW124157   6.399   1.406   6.375 -0.0082 -0.5515 -0.1170
 7847SOL    HW224158   6.349   1.320   6.260 -2.7457  0.4530  0.2365
 7848SOL     OW24159   6.093   6.239   1.908 -0.1583 -0.1566  0.0354
 7848SOL    HW124160   6.034   6.313   1.915  0.1113 -0.0054  0.8880
 7848SOL    HW224161   6.036   6.162   1.916 -0.2658 -0.0146  0.7359
 7849SOL     OW24162   6.661   3.999   4.195 -0.1592  0.0874  0.0917
 7849SOL    HW124163   6.600   3.975   4.125  0.3925  0.6966 -0.6129
 7849SOL    HW224164   6.715   4.069   4.157  2.9631 -2.3722 -0.3950
 7850SOL     OW24165   3.636   0.142   3.024  0.4422  0.1966 -0.5058
 7850SOL    HW124166   3.657   0.223   3.070 -1.2330  0.1871  0.3225
 7850SOL    HW224167   3.584   0.092   3.086 -0.0280 -0.7578 -1.6385
 7851SOL     OW24168   4.512   2.251   1.489 -0.3309 -0.1043 -0.0886
 7851SOL    HW124169   4.566   2.276   1.414 -0.7289  0.6312 -0.1417
 7851SOL    HW224170   4.429   2.224   1.451 -0.7480  0.8532  0.1045
 7852SOL     OW24171   1.987   2.115   4.428 -0.4180  0.0740 -0.1488
 7852SOL    HW124172   1.991   2.192   4.485  0.8984 -3.0719  4.5853
 7852SOL    HW224173   2.074   2.111   4.387  1.7836 -1.5453  4.0349
 7853SOL     OW24174   3.813   1.901   4.731  0.2502  0.1617 -0.0334
 7853SOL    HW124175   3.814   1.952   4.650  1.1269  1.4592  0.7614
 7853SOL    HW224176   3.723   1.911   4.763  0.2665  0.7628 -0.1609
 7854SOL     OW24177   2.871   3.477   5.555 -0.6255 -0.2748  0.6667
 7854SOL    HW124178   2.787   3.523   5.547 -0.5330 -0.2818 -0.6717
 7854SOL    HW224179   2.861   3.400   5.499  0.4895  0.0837 -0.0684
 7855SOL     OW24180   0.332   6.981   2.187 -0.3671 -0.0353 -0.4859
 7855SOL    HW124181   0.242   6.954   2.203 -0.6417  1.1328  0.1048
 7855SOL    HW224182   0.335   7.001   2.093 -0.9327  0.6057 -0.3766
 7856SOL     OW24183   6.837   2.202   1.361 -0.1025 -0.0229  0.2014
 7856SOL    HW124184   6.808   2.199   1.453  0.7401  2.6173  0.6219
 7856SOL    HW224185   6.916   2.256   1.362 -0.8399  1.2395 -2.2440
 7857SOL     OW24186   3.429   4.650   0.873  0.0480 -0.5186  0.4100
 7857SOL    HW124187   3.357   4.588   0.881 -0.8402  0.1050 -1.9731
 7857SOL    HW224188   3.402   4.725   0.925  0.0184 -1.1556  1.3319
 7858SOL     OW24189   3.143   2.043   0.644 -0.2177  0.7371  0.1016
 7858SOL    HW124190   3.102   2.098   0.711  0.2089  0.4194  0.6254
 7858SOL    HW224191   3.235   2.039   0.669 -0.2422 -0.2024  0.0512
 7859SOL     OW24192   2.664   2.325   1.516  0.0489 -0.5158  0.7699
 7859SOL    HW124193   2.657   2.366   1.602  0.5850 -0.9187  1.0155
 7859SOL    HW224194   2.654   2.397   1.454 -4.2661 -0.6831  0.9800
 7860SOL     OW24195   6.642   3.698   5.735  0.2927 -0.7051  0.6068
 7860SOL    HW124196   6.677   3.615   5.703  3.2374  0.6313 -0.0130
 7860SOL    HW224197   6.550   3.680   5.754 -0.0359 -3.2581 -2.5179
 7861SOL     OW24198   4.996   6.926   0.963  0.1763  0.3018  0.2161
 7861SOL    HW124199   5.077   6.973   0.946  0.1515 -0.1525 -1.2817
 7861SOL    HW224200   4.952   6.977   1.031  1.2765  1.0637  0.3737
 7862SOL     OW24201   0.643   2.946   0.102  0.2398 -0.1663 -0.2877
 7862SOL    HW124202   0.640   3.038   0.127 -1.4797 -0.0243 -0.9301
 7862SOL    HW224203   0.703   2.906   0.165  0.6453  1.3001  0.2778
 7863SOL     OW24204   2.250   6.059   4.048 -0.1422 -0.7472 -0.5759
 7863SOL    HW124205   2.162   6.023   4.058  0.0785 -1.0182  0.5149
 7863SOL    HW224206   2.250   6.098   3.961 -0.9471 -1.8164 -1.0775
 7864SOL     OW24207   0.835   2.780   0.231 -0.5952 -0.0936 -0.8019
 7864SOL    HW124208   0.779   2.709   0.261 -1.4967  1.9948  3.2613
 7864SOL    HW224209   0.892   2.799   0.306  0.0996  2.9386 -1.9361
 7865SOL     OW24210   2.002   5.983   4.657  0.7866  0.5875 -0.4539
 7865SOL    HW124211   1.994   5.948   4.568  0.6535  3.2613 -1.5659
 7865SOL    HW224212   2.077   5.936   4.694  0.5003 -0.9644 -1.7486
 7866SOL     OW24213   2.965   2.635   6.650 -0.3267  0.1223  0.3245
 7866SOL    HW124214   2.955   2.727   6.626 -0.1959  0.1402  0.3400
 7866SOL    HW224215   2.879   2.597   6.633 -0.2708  0.1643 -0.0498
 7867SOL     OW24216   1.060   6.087   4.463  0.2440  0.0426 -0.1828
 7867SOL    HW124217   0.983   6.100   4.408  0.3950  0.2885 -0.3428
 7867SOL    HW224218   1.092   6.176   4.481  1.7501 -0.0673 -1.9306
 7868SOL     OW24219   3.927   2.650   4.663 -0.1850 -0.4210  0.2755
 7868SOL    HW124220   3.860   2.647   4.731 -0.3214 -0.5269  0.1369
 7868SOL    HW224221   3.899   2.721   4.605  0.0358 -0.2007  0.4368
 7869SOL     OW24222   5.921   3.264   5.571  0.0625  0.1271  0.2261
 7869SOL    HW124223   5.887   3.302   5.489 -0.9593 -2.4553 -0.6670
 7869SOL    HW224224   5.971   3.188   5.542  1.2850  0.2286  1.9601
 7870SOL     OW24225   1.372   6.211   1.960  0.1063 -0.8008 -0.1985
 7870SOL    HW124226   1.310   6.161   2.013 -0.1396  0.4326  0.7067
 7870SOL    HW224227   1.318   6.250   1.891 -0.2114  0.5550  0.7912
 7871SOL     OW24228   3.180   3.403   3.531  0.0097  0.3743  0.1698
 7871SOL    HW124229   3.214   3.360   3.610  2.7132  0.6929 -0.7165
 7871SOL    HW224230   3.150   3.330   3.476 -0.3473  0.0314  0.8010
 7872SOL     OW24231   0.927   6.416   4.618 -0.5541 -0.2317  0.4450
 7872SOL    HW124232   0.989   6.374   4.559 -1.1284 -1.5587  0.7393
 7872SOL    HW224233   0.896   6.345   4.674 -2.6691  0.2796  0.0052
 7873SOL     OW24234   1.559   5.528   5.880 -0.4204  0.1271  0.2946
 7873SOL    HW124235   1.541   5.437   5.857 -0.6440  0.0072  0.9093
 7873SOL    HW224236   1.542   5.578   5.800 -3.2835 -0.0083  0.7015
 7874SOL     OW24237   5.927   0.288   6.508  0.6869  0.6497  0.3175
 7874SOL    HW124238   6.012   0.330   6.494  0.5157  1.2614  1.0108
 7874SOL    HW224239   5.864   0.360   6.502  0.2911  0.3288  0.5494
 7875SOL     OW24240   4.482   4.433   5.672 -0.1311 -0.5390 -0.1357
 7875SOL    HW124241   4.471   4.498   5.604 -0.9298 -0.4792  0.0437
 7875SOL    HW224242   4.433   4.356   5.641 -0.3591 -0.5694  0.2836
 7876SOL     OW24243   1.010   5.881   2.205 -0.2349 -0.5418  0.8587
 7876SOL    HW124244   0.966   5.940   2.144 -1.1806 -1.6615  0.4336
 7876SOL    HW224245   1.049   5.813   2.149  0.4819 -0.5684  1.3729
 7877SOL     OW24246   2.452   6.633   6.671  0.6023  0.0989  0.0723
 7877SOL    HW124247   2.520   6.612   6.607  1.2435  0.1079  0.7352
 7877SOL    HW224248   2.496   6.689   6.735  0.1974 -0.5729  0.9629
 7878SOL     OW24249   3.272   4.555   4.350 -0.3856  0.3318 -0.0116
 7878SOL    HW124250   3.224   4.527   4.428 -0.4543  0.5090  0.0102
 7878SOL    HW224251   3.215   4.618   4.307  0.7829  2.3941  1.2870
 7879SOL     OW24252   1.982   5.882   2.860 -0.2725  0.3645  0.1790
 7879SOL    HW124253   2.001   5.975   2.849 -0.4054  0.2025 -1.7853
 7879SOL    HW224254   1.965   5.872   2.954  0.0677  2.2430  0.4844
 7880SOL     OW24255   2.356   5.731   5.231  0.3194  0.5757 -0.3537
 7880SOL    HW124256   2.345   5.684   5.313  2.1682 -1.1129 -0.9721
 7880SOL    HW224257   2.298   5.685   5.169  0.2584  0.6981 -0.3862
 7881SOL     OW24258   4.483   2.709   4.866 -0.2994 -0.3367 -0.3160
 7881SOL    HW124259   4.394   2.713   4.831 -0.8271 -1.1619  0.8766
 7881SOL    HW224260   4.481   2.763   4.945 -0.0344 -1.1612  0.2800
 7882SOL     OW24261   3.096   3.084   0.876  0.6625 -0.1948 -0.1349
 7882SOL    HW124262   3.050   3.049   0.800  0.2937  0.6196 -0.3053
 7882SOL    HW224263   3.103   3.011   0.937 -1.5743 -0.1783  0.2281
 7883SOL     OW24264   2.163   2.369   6.842 -0.2769  0.0333 -0.4709
 7883SOL    HW124265   2.172   2.288   6.893  0.5948  0.5073  0.1456
 7883SOL    HW224266   2.228   2.428   6.879 -1.3837  1.2734 -0.4458
 7884SOL     OW24267   5.812   2.035   3.290  0.1829 -0.5884  0.1161
 7884SOL    HW124268   5.829   2.057   3.381  3.1215  2.0961 -0.9068
 7884SOL    HW224269   5.896   2.001   3.258 -0.4996 -0.5631 -1.8182
 7885SOL     OW24270   2.226   6.391   4.864 -0.1028 -0.0662  0.2243
 7885SOL    HW124271   2.138   6.355   4.879 -0.0605 -0.3780 -0.2600
 7885SOL    HW224272   2.271   6.323   4.814  0.7285 -0.3189  1.2818
 7886SOL     OW24273   4.806   7.243   2.568  0.6505 -0.4230 -0.4102
 7886SOL    HW124274   4.778   7.320   2.518  0.9871  0.9999  1.4612
 7886SOL    HW224275   4.835   7.180   2.501 -2.0505  0.0025 -2.1594
 7887SOL     OW24276   1.466   4.764   0.657 -0.2539 -0.5322 -0.0691
 7887SOL    HW124277   1.461   4.791   0.565  1.9562 -1.2901 -0.4621
 7887SOL    HW224278   1.557   4.782   0.682 -0.4125 -1.7651  1.5088
 7888SOL     OW24279   6.288   3.609   5.369 -0.1802 -0.0203 -0.5552
 7888SOL    HW124280   6.248   3.696   5.364  0.5530  0.3320 -0.4553
 7888SOL    HW224281   6.309   3.597   5.462  3.1519  1.3292 -0.9925
 7889SOL     OW24282   4.122   4.262   7.203 -0.2821 -0.4804  0.0892
 7889SOL    HW124283   4.213   4.274   7.176 -0.1685  0.8595  0.9781
 7889SOL    HW224284   4.113   4.167   7.214  0.5998 -0.7584 -1.3237
 7890SOL     OW24285   5.032   6.559   7.152  0.0655  0.1070  0.0383
 7890SOL    HW124286   4.948   6.523   7.180 -0.0899  0.1777 -0.3299
 7890SOL    HW224287   5.019   6.654   7.152 -0.4522  0.0873 -1.7850
 7891SOL     OW24288   4.981   0.962   5.343 -0.4466  0.4342 -0.0263
 7891SOL    HW124289   5.017   0.989   5.428  2.0355 -0.6767 -0.6303
 7891SOL    HW224290   4.912   1.025   5.325  1.5257  3.0716  1.0629
 7892SOL     OW24291   0.164   3.876   0.278 -0.3139  0.0799 -0.2479
 7892SOL    HW124292   0.132   3.956   0.235 -2.4041 -0.9439 -0.7172
 7892SOL    HW224293   0.097   3.856   0.343  0.2363 -1.2139 -0.0547
 7893SOL     OW24294   4.736   6.504   0.335  0.2674 -0.2098 -0.7465
 7893SOL    HW124295   4.685   6.584   0.353 -1.3459 -1.1785 -0.8213
 7893SOL    HW224296   4.765   6.474   0.421  0.1298 -0.0217 -0.6323
 7894SOL     OW24297   6.796   1.147   2.260 -0.1482 -0.6658  0.0549
 7894SOL    HW124298   6.849   1.204   2.204  0.9600 -0.4818  1.2712
 7894SOL    HW224299   6.833   1.157   2.347 -1.5594 -1.3088  0.7596
 7895SOL     OW24300   1.848   2.080   4.169 -0.4451 -0.1932  0.1061
 7895SOL    HW124301   1.870   2.103   4.260  2.4782  1.2264 -0.8569
 7895SOL    HW224302   1.752   2.074   4.169 -0.9773  4.0375  2.4261
 7896SOL     OW24303   4.880   1.955   5.473 -0.4911 -0.0274 -0.4909
 7896SOL    HW124304   4.847   1.944   5.384 -1.2989  0.7265 -0.2978
 7896SOL    HW224305   4.894   1.865   5.504  0.9259 -0.2875 -1.7547
 7897SOL     OW24306   1.564   6.726   5.796 -0.9819 -0.0916 -0.0038
 7897SOL    HW124307   1.476   6.713   5.759 -0.3170 -0.3030 -1.6271
 7897SOL    HW224308   1.549   6.776   5.876 -2.5870 -0.1716 -0.2134
 7898SOL     OW24309   5.073   4.046   5.930 -0.0020 -0.1085 -0.1928
 7898SOL    HW124310   5.035   3.966   5.965 -0.7819  0.4915  0.3591
 7898SOL    HW224311   5.088   4.027   5.837 -1.4229 -0.4553 -0.3701
 7899SOL     OW24312   2.788   3.247   2.860 -0.2171 -0.4404  0.3668
 7899SOL    HW124313   2.834   3.165   2.842  1.2111  0.0829  1.4588
 7899SOL    HW224314   2.724   3.224   2.928  0.0210 -0.7014  0.5039
 7900SOL     OW24315   5.894   5.920   1.556  0.3793  0.2150  0.0938
 7900SOL    HW124316   5.909   5.913   1.462  0.3529  1.1495  0.0135
 7900SOL    HW224317   5.976   5.892   1.595 -0.1517 -1.8711 -0.1308
 7901SOL     OW24318   3.987   1.409   3.508  0.2412  0.0899  0.9998
 7901SOL    HW124319   4.009   1.339   3.570  0.6384 -1.5007 -0.8570
 7901SOL    HW224320   3.891   1.406   3.502  0.2084  0.1828  1.4476
 7902SOL     OW24321   4.355   6.638   5.075  0.1724  0.1546  0.4481
 7902SOL    HW124322   4.308   6.592   5.144 -1.7786  0.0041 -0.8979
 7902SOL    HW224323   4.445   6.641   5.105 -0.5444 -0.1997  2.8254
 7903SOL     OW24324   2.420   0.240   0.263  0.1097  0.0663  0.2895
 7903SOL    HW124325   2.335   0.271   0.232  0.4556  1.2152  0.4689
 7903SOL    HW224326   2.426   0.150   0.229 -1.7208 -0.5172  1.3564
 7904SOL     OW24327   5.069   4.360   0.998  0.0229 -0.7687  0.6770
 7904SOL    HW124328   5.130   4.363   0.925 -1.2294 -0.8375 -0.4118
 7904SOL    HW224329   5.062   4.267   1.021 -0.2246 -0.8450  0.3057
 7905SOL     OW24330   2.492   4.468   5.828  0.1298  0.1083  0.2088
 7905SOL    HW124331   2.538   4.550   5.812 -0.6100  0.2067 -1.7295
 7905SOL    HW224332   2.555   4.415   5.877  2.1256  0.4692 -1.7472
 7906SOL     OW24333   5.021   4.960   2.672 -0.5697  0.5057  0.2856
 7906SOL    HW124334   5.070   4.898   2.727 -1.0848 -1.0618 -0.9567
 7906SOL    HW224335   4.948   4.988   2.727 -1.0328 -0.9672  0.4713
 7907SOL     OW24336   5.612   2.207   2.941  0.0920  0.4824 -0.1643
 7907SOL    HW124337   5.606   2.115   2.916  0.3381  0.2704  0.5395
 7907SOL    HW224338   5.611   2.207   3.037 -0.0153  1.2209 -0.1544
 7908SOL     OW24339   5.477   0.805   0.910  0.6609  0.2558 -0.0213
 7908SOL    HW124340   5.477   0.881   0.969  1.2776 -1.4777  2.3384
 7908SOL    HW224341   5.562   0.810   0.866  1.3550  0.1444  1.2530
 7909SOL     OW24342   5.845   1.271   4.230 -0.4919 -0.0865  0.0502
 7909SOL    HW124343   5.876   1.204   4.169 -0.7098  0.6152 -0.8478
 7909SOL    HW224344   5.916   1.280   4.294  1.2800  1.5158 -1.9787
 7910SOL     OW24345   2.150   4.143   5.090 -0.7355 -0.2737  0.6145
 7910SOL    HW124346   2.098   4.141   5.009  0.7678 -1.3687 -0.3826
 7910SOL    HW224347   2.219   4.079   5.075  1.5008  1.7829  1.4449
 7911SOL     OW24348   3.072   3.495   0.426 -0.5686  0.0417 -0.7236
 7911SOL    HW124349   3.160   3.479   0.459 -1.3125  0.5125  1.7551
 7911SOL    HW224350   3.076   3.581   0.386 -0.2524  0.8431  0.9570
 7912SOL     OW24351   0.592   0.454   6.436 -0.5354  0.0182 -0.4728
 7912SOL    HW124352   0.569   0.535   6.483 -0.7758  0.5949 -1.5415
 7912SOL    HW224353   0.687   0.458   6.426 -0.4111 -0.3790  0.4145
 7913SOL     OW24354   0.976   4.079   4.027 -0.0687 -0.5246  0.3132
 7913SOL    HW124355   1.008   4.085   3.937  0.7304 -1.2163  0.5398
 7913SOL    HW224356   0.934   3.993   4.031 -0.3535 -0.3778  0.5309
 7914SOL     OW24357   3.079   6.339   4.528 -0.0446  0.5149 -0.2290
 7914SOL    HW124358   3.011   6.398   4.495 -0.2298  0.4205 -0.0178
 7914SOL    HW224359   3.109   6.381   4.608 -0.0219  0.4331 -0.1951
 7915SOL     OW24360   4.377   6.889   1.108 -0.0024 -0.2160 -0.0849
 7915SOL    HW124361   4.402   6.830   1.179  1.6485  0.7819  0.2031
 7915SOL    HW224362   4.392   6.976   1.143 -0.7582  0.3377 -1.0999
 7916SOL     OW24363   5.466   0.036   1.640 -1.0517 -0.2709 -0.2423
 7916SOL    HW124364   5.380   0.073   1.622 -1.6487 -1.5779 -0.1591
 7916SOL    HW224365   5.516   0.109   1.677 -2.9810 -0.1023  2.3390
 7917SOL     OW24366   6.455   1.666   3.123 -0.1153 -0.6018  0.4641
 7917SOL    HW124367   6.385   1.729   3.137 -0.3319 -0.8074  0.3272
 7917SOL    HW224368   6.500   1.696   3.044 -1.8432 -2.0258 -1.1765
 7918SOL     OW24369   0.229   1.417   4.664  0.0288 -0.2779 -0.0682
 7918SOL    HW124370   0.299   1.389   4.723  0.7192  0.6728 -0.4034
 7918SOL    HW224371   0.275   1.460   4.591 -0.7888 -1.5129 -1.3651
 7919SOL     OW24372   4.421   3.676   2.236 -0.4401 -0.5366 -0.0038
 7919SOL    HW124373   4.374   3.757   2.214 -1.1723 -0.8573  0.3750
 7919SOL    HW224374   4.513   3.696   2.215 -0.3927  0.8828  1.3855
 7920SOL     OW24375   2.495   2.138   6.179  0.5105  0.3486  0.1270
 7920SOL    HW124376   2.483   2.057   6.130 -0.1260 -0.1554  1.0825
 7920SOL    HW224377   2.449   2.204   6.126 -0.7418 -0.3088  0.3459
 7921SOL     OW24378   4.995   4.062   3.109  0.3894 -0.2613  0.4225
 7921SOL    HW124379   5.081   4.036   3.076  1.3914  2.2628  0.8583
 7921SOL    HW224380   4.942   3.983   3.100  2.2780 -1.4342 -1.4021
 7922SOL     OW24381   5.118   3.569   0.507  0.5181  0.2540 -0.4381
 7922SOL    HW124382   5.109   3.632   0.579 -0.5355  0.2136 -0.5183
 7922SOL    HW224383   5.029   3.538   0.491  0.4801  1.4303 -2.8461
 7923SOL     OW24384   2.817   1.492   5.763 -0.2348  0.2056 -0.3214
 7923SOL    HW124385   2.778   1.417   5.809 -1.5512  0.3107 -1.1947
 7923SOL    HW224386   2.910   1.488   5.784 -0.6655 -0.1749  1.7347
 7924SOL     OW24387   4.304   4.694   3.360  0.0639  0.4405 -0.0873
 7924SOL    HW124388   4.396   4.678   3.381  0.5555  1.1098 -1.5838
 7924SOL    HW224389   4.263   4.713   3.444  2.0104  3.6043  0.2961
 7925SOL     OW24390   5.296   3.356   5.000  0.2976  0.0012  0.9735
 7925SOL    HW124391   5.275   3.262   4.997 -0.5234  0.1920 -1.2725
 7925SOL    HW224392   5.392   3.359   5.000  0.3309 -0.8270  1.2053
 7926SOL     OW24393   6.452   1.576   4.294  0.1367  0.6000 -0.3156
 7926SOL    HW124394   6.411   1.578   4.380  0.3189  0.8119 -0.2322
 7926SOL    HW224395   6.473   1.668   4.275 -0.6951  0.6649 -0.9702
 7927SOL     OW24396   2.386   7.226   5.635  0.3849 -0.1627 -0.0985
 7927SOL    HW124397   2.381   7.285   5.560  2.3779 -0.6830 -0.7218
 7927SOL    HW224398   2.343   7.272   5.706  1.3777  1.8214 -0.7041
 7928SOL     OW24399   1.490   5.220   2.435 -0.2143 -0.4299 -0.5695
 7928SOL    HW124400   1.405   5.179   2.451 -0.5730  0.6615  0.5061
 7928SOL    HW224401   1.471   5.314   2.429  0.9089 -0.1714 -0.3637
 7929SOL     OW24402   2.726   7.190   1.923  0.2659  0.4532  0.1443
 7929SOL    HW124403   2.790   7.130   1.886  0.6535  0.5008  0.7323
 7929SOL    HW224404   2.767   7.276   1.917  1.5556  0.1712  3.2018
 7930SOL     OW24405   2.599   4.624   6.861  0.2850 -0.2585 -0.2934
 7930SOL    HW124406   2.676   4.597   6.911  1.3116 -0.9140 -2.1053
 7930SOL    HW224407   2.632   4.635   6.771 -0.9001  3.2712 -0.4708
 7931SOL     OW24408   1.537   3.373   2.934  0.0496 -0.3732 -0.7375
 7931SOL    HW124409   1.516   3.398   2.844 -0.8805  1.3359 -0.0913
 7931SOL    HW224410   1.558   3.456   2.977  1.1790 -1.2462  0.4544
 7932SOL     OW24411   6.050   2.925   7.186  0.2213 -0.1777  0.2712
 7932SOL    HW124412   5.982   2.867   7.219  0.2578  0.1127  0.8830
 7932SOL    HW224413   6.049   3.000   7.246 -0.8316  1.1842 -1.3435
 7933SOL     OW24414   0.067   3.179   2.698 -0.3566  0.8420 -0.0515
 7933SOL    HW124415   0.048   3.267   2.665  0.1201  1.3549  0.9815
 7933SOL    HW224416   0.148   3.190   2.748 -0.2825 -0.1969  0.0748
 7934SOL     OW24417   4.400   1.842   1.428 -0.1153 -0.1663  0.3261
 7934SOL    HW124418   4.404   1.754   1.392 -1.0588 -0.1974  0.2679
 7934SOL    HW224419   4.491   1.872   1.429  0.0416 -0.4872 -1.2906
 7935SOL     OW24420   5.452   3.227   5.428 -0.1924  0.4061  1.1926
 7935SOL    HW124421   5.535   3.212   5.474  0.4059  1.3242  0.4465
 7935SOL    HW224422   5.459   3.317   5.396 -0.7498 -0.0818 -0.3518
 7936SOL     OW24423   1.146   2.929   2.962 -0.3142 -0.0791 -0.5313
 7936SOL    HW124424   1.197   2.848   2.967  0.4405  0.3567 -1.0444
 7936SOL    HW224425   1.210   2.997   2.944 -0.6071  1.0169  2.1390
 7937SOL     OW24426   6.965   0.711   4.183 -0.1937  0.9416 -0.2982
 7937SOL    HW124427   6.886   0.750   4.145  0.4055  1.9450 -0.5341
 7937SOL    HW224428   6.934   0.669   4.263 -0.7827  2.3725  0.2578
 7938SOL     OW24429   0.259   2.007   5.588 -0.2053 -0.1588 -0.3626
 7938SOL    HW124430   0.273   2.020   5.682 -1.9567  1.0469 -0.2189
 7938SOL    HW224431   0.212   2.085   5.560 -3.7051 -2.3640 -1.2738
 7939SOL     OW24432   3.788   5.987   2.398 -0.1819 -0.0615 -0.6114
 7939SOL    HW124433   3.806   5.893   2.396  1.0163  0.1634 -1.0390
 7939SOL    HW224434   3.694   5.992   2.417 -0.4423 -1.3614 -1.3727
 7940SOL     OW24435   6.049   4.314   6.350  0.4870 -0.3331  0.0439
 7940SOL    HW124436   6.048   4.301   6.445 -1.0810 -1.9107 -0.1330
 7940SOL    HW224437   5.967   4.358   6.331 -0.5087 -2.4384 -0.8104
 7941SOL     OW24438   2.306   5.663   5.503 -0.0739  0.5385  0.3341
 7941SOL    HW124439   2.374   5.609   5.543  0.9246  0.9460 -0.7576
 7941SOL    HW224440   2.293   5.735   5.565  0.0963  0.1647  0.8064
 7942SOL     OW24441   1.496   6.135   4.731 -0.5449 -0.6417  0.1049
 7942SOL    HW124442   1.584   6.097   4.726 -0.8818 -1.3669 -0.3770
 7942SOL    HW224443   1.437   6.061   4.718 -1.2519 -0.2812  1.1330
 7943SOL     OW24444   0.115   2.074   3.411  0.0919  0.6640 -1.0023
 7943SOL    HW124445   0.134   2.095   3.320 -1.4193  2.4549 -0.9527
 7943SOL    HW224446   0.192   2.105   3.459 -0.1645  2.0027 -1.4257
 7944SOL     OW24447   1.601   4.940   3.366 -0.0820  0.2056  0.2745
 7944SOL    HW124448   1.516   4.969   3.400  0.8231  0.3039  2.5695
 7944SOL    HW224449   1.640   5.018   3.328 -0.8371  0.2360 -0.4718
 7945SOL     OW24450   3.334   4.955   4.995  0.2661  0.2583  0.3204
 7945SOL    HW124451   3.261   4.944   5.055  2.4201  1.0770  3.3779
 7945SOL    HW224452   3.332   5.048   4.972  0.9785  0.5796  1.4446
 7946SOL     OW24453   7.049   0.809   1.545  0.4386  0.3978  1.0034
 7946SOL    HW124454   7.093   0.831   1.463 -0.5640 -2.6557 -0.4752
 7946SOL    HW224455   6.971   0.864   1.546  0.7458  0.8627  0.2117
 7947SOL     OW24456   7.145   4.884   5.823  0.8444 -0.3334  0.0319
 7947SOL    HW124457   7.178   4.870   5.734  1.0851 -1.3796  0.2647
 7947SOL    HW224458   7.216   4.929   5.868  0.7302  0.1837 -0.2936
 7948SOL     OW24459   6.051   1.628   0.082  0.2062  0.1595 -0.6605
 7948SOL    HW124460   6.027   1.561   0.146 -0.7862  1.2818  0.1950
 7948SOL    HW224461   6.026   1.591  -0.002 -0.4525 -0.4804 -0.1961
 7949SOL     OW24462   4.732   4.913   1.852  0.9898  0.4988  0.3575
 7949SOL    HW124463   4.656   4.935   1.906  0.5340 -0.1036 -0.0207
 7949SOL    HW224464   4.759   4.827   1.882  1.1305  0.4382  0.0666
 7950SOL     OW24465   5.648   0.517   6.209  0.0280 -0.0607  0.1795
 7950SOL    HW124466   5.612   0.541   6.124 -2.0248 -2.0684  0.4070
 7950SOL    HW224467   5.725   0.465   6.189  0.8308  1.2914 -0.3711
 7951SOL     OW24468   2.496   4.120   5.943  0.1023  0.3397  0.3426
 7951SOL    HW124469   2.516   4.097   5.852  1.4141 -0.6733  0.8532
 7951SOL    HW224470   2.558   4.191   5.963 -0.1949  0.5706  0.4518
 7952SOL     OW24471   4.234   4.235   1.337 -0.8112 -0.0844 -0.4928
 7952SOL    HW124472   4.274   4.183   1.406  0.5203  0.1758 -1.0471
 7952SOL    HW224473   4.140   4.217   1.345 -0.9522  1.3922  2.6027
 7953SOL     OW24474   6.018   2.795   0.951  0.0572  0.2199  0.2010
 7953SOL    HW124475   6.108   2.796   0.982  0.2533  0.6421 -0.3692
 7953SOL    HW224476   5.970   2.847   1.015  0.5482  1.5148 -0.4621
 7954SOL     OW24477   7.088   3.925   7.240 -0.9986 -0.2935  0.0735
 7954SOL    HW124478   7.130   3.847   7.205 -2.0759 -0.1837 -1.5865
 7954SOL    HW224479   7.153   3.995   7.230 -1.2125 -0.3043 -1.6290
 7955SOL     OW24480   3.453   1.428   6.452  0.2587  0.1054  0.8830
 7955SOL    HW124481   3.514   1.466   6.515 -1.4835  3.0931  0.9395
 7955SOL    HW224482   3.433   1.500   6.392 -4.0838 -0.2925  1.5784
 7956SOL     OW24483   1.261   4.123   0.541  0.2163 -0.1215  0.2747
 7956SOL    HW124484   1.269   4.215   0.517  0.8260 -0.0428  0.7506
 7956SOL    HW224485   1.349   4.099   0.571  0.8177 -1.5985 -2.4053
 7957SOL     OW24486   7.008   2.181   3.081 -0.2296  0.1925  0.2048
 7957SOL    HW124487   6.944   2.218   3.020 -2.8543 -3.0354  0.6645
 7957SOL    HW224488   7.033   2.254   3.137 -2.0238  2.0590 -1.2507
 7958SOL     OW24489   1.466   5.208   1.787  0.3911  0.0969  0.1353
 7958SOL    HW124490   1.401   5.276   1.768 -0.2791 -0.4946  0.2899
 7958SOL    HW224491   1.548   5.244   1.754 -0.0484  0.7662 -0.2544
 7959SOL     OW24492   3.461   5.903   4.043 -0.1965  0.1443  0.1991
 7959SOL    HW124493   3.510   5.953   3.978  2.3479  0.2085  1.9868
 7959SOL    HW224494   3.370   5.930   4.031  0.5797  2.3620 -1.3792
 7960SOL     OW24495   6.382   6.746   3.469 -0.3638 -0.0514 -0.1724
 7960SOL    HW124496   6.349   6.702   3.547 -1.9163  1.0575 -0.1473
 7960SOL    HW224497   6.393   6.838   3.496 -0.5850  0.2779 -1.1452
 7961SOL     OW24498   2.881   5.955   2.980 -0.0149 -0.1069 -0.0530
 7961SOL    HW124499   2.902   6.047   2.961 -2.3306  1.0553  2.3340
 7961SOL    HW224500   2.786   5.950   2.969  0.2214 -2.6576 -1.5549
 7962SOL     OW24501   7.056   3.684   5.890  0.1934 -0.2226  0.3391
 7962SOL    HW124502   7.102   3.725   5.817 -0.3301  2.2599  1.2929
 7962SOL    HW224503   6.968   3.721   5.886 -0.0896 -0.7066  1.7251
 7963SOL     OW24504   2.548   6.202   1.387  0.2828  0.0597  0.3806
 7963SOL    HW124505   2.495   6.161   1.455  1.5051 -2.7412 -0.2447
 7963SOL    HW224506   2.507   6.175   1.305  0.4080  1.1510 -0.0600
 7964SOL     OW24507   7.247   2.512   1.919 -0.0639 -0.0112  0.0950
 7964SOL    HW124508   7.235   2.507   2.014 -0.0048  0.0454  0.1059
 7964SOL    HW224509   7.188   2.582   1.891  1.0326  1.0409  0.2968
 7965SOL     OW24510   0.417   6.856   1.327  0.1555  0.0727 -0.0722
 7965SOL    HW124511   0.499   6.883   1.286 -0.6021 -0.5658 -2.1612
 7965SOL    HW224512   0.427   6.761   1.340  0.1003  0.1489  0.5755
 7966SOL     OW24513   1.887   5.671   4.730 -0.4402  0.0640 -0.5125
 7966SOL    HW124514   1.839   5.601   4.686 -1.4816 -0.4320  1.3253
 7966SOL    HW224515   1.979   5.654   4.710 -0.7822 -1.0265 -1.2018
 7967SOL     OW24516   5.132   1.193   2.427 -0.6087  0.1111 -0.2412
 7967SOL    HW124517   5.179   1.273   2.448  0.8089 -0.8586  0.4396
 7967SOL    HW224518   5.056   1.194   2.486 -0.8236  1.1239 -0.5162
 7968SOL     OW24519   3.025   6.180   2.922  0.2421  0.5330  0.1204
 7968SOL    HW124520   2.995   6.237   2.993 -0.0278  1.2620 -0.5657
 7968SOL    HW224521   3.120   6.178   2.931  0.4087  2.4202 -0.8105
 7969SOL     OW24522   6.268   6.731   3.811  0.0521  0.2743 -0.2547
 7969SOL    HW124523   6.236   6.790   3.879  1.2173  2.0981 -1.2183
 7969SOL    HW224524   6.360   6.715   3.835 -0.2063 -1.0797 -0.0847
 7970SOL     OW24525   3.602   1.647   1.192 -0.4594 -0.3165  0.3002
 7970SOL    HW124526   3.508   1.666   1.198 -0.4684 -0.2649 -0.0167
 7970SOL    HW224527   3.635   1.706   1.125 -0.2334 -0.4678  0.2766
 7971SOL     OW24528   3.827   4.249   2.603 -0.1047  0.2640 -0.2414
 7971SOL    HW124529   3.917   4.279   2.617 -0.1878 -0.1477  1.3152
 7971SOL    HW224530   3.816   4.249   2.507  1.0336  1.7767 -0.4004
 7972SOL     OW24531   6.173   0.060   3.121  0.4037  0.3908 -0.1558
 7972SOL    HW124532   6.240   0.125   3.139  0.6390 -0.0832  0.7486
 7972SOL    HW224533   6.108   0.106   3.067  1.5638  0.7827 -1.2787
 7973SOL     OW24534   6.707   0.274   4.948 -0.2424  0.3301 -0.3992
 7973SOL    HW124535   6.645   0.343   4.973  0.6585  0.5785  1.3163
 7973SOL    HW224536   6.709   0.277   4.853 -0.2420  2.6739 -0.3834
 7974SOL     OW24537   2.705   4.964   0.035  0.2435  0.0340  0.2490
 7974SOL    HW124538   2.632   4.966  -0.027 -0.0361 -1.7821  0.4651
 7974SOL    HW224539   2.752   4.883   0.015  1.7635  0.7677  0.6391
 7975SOL     OW24540   6.116   4.000   3.611  0.3475  0.2142 -0.1317
 7975SOL    HW124541   6.160   4.048   3.682 -1.9954 -1.6516  2.8099
 7975SOL    HW224542   6.177   3.930   3.588  0.6635  0.1258  0.9348
 7976SOL     OW24543   7.042   3.400   1.704  0.0194 -0.4789 -0.5145
 7976SOL    HW124544   7.041   3.479   1.759  0.4089 -0.6277 -0.2911
 7976SOL    HW224545   7.027   3.433   1.615  0.5918 -0.0977 -0.4786
 7977SOL     OW24546   5.445   5.935   6.605 -0.1893  0.1791 -0.0206
 7977SOL    HW124547   5.438   5.967   6.695 -0.3472  0.8660 -0.2772
 7977SOL    HW224548   5.498   6.000   6.560 -0.6757  0.1867 -0.5973
 7978SOL     OW24549   1.760   2.075   3.384  0.0372  0.1636  0.9098
 7978SOL    HW124550   1.737   2.055   3.475  0.4898 -1.3723  0.7145
 7978SOL    HW224551   1.821   2.005   3.359 -1.9221 -0.8899 -1.3260
 7979SOL     OW24552   0.269   0.230   0.169  0.0094  0.0662  0.1602
 7979SOL    HW124553   0.230   0.246   0.255  0.5420 -0.4015  0.5046
 7979SOL    HW224554   0.334   0.299   0.159 -1.2990  1.2003 -0.6775
 7980SOL     OW24555   1.673   0.084   0.637 -0.0620 -0.0798 -0.1832
 7980SOL    HW124556   1.700   0.175   0.638  0.9418 -0.3091  2.3210
 7980SOL    HW224557   1.727   0.042   0.705 -0.4693 -2.5447 -1.2535
 7981SOL     OW24558   4.192   3.629   3.493 -0.5863  0.1365  0.3594
 7981SOL    HW124559   4.105   3.592   3.507 -0.8707  0.7480  0.2664
 7981SOL    HW224560   4.213   3.673   3.576 -0.0407 -0.6346  0.6438
 7982SOL     OW24561   4.399   6.427   1.637 -0.1427 -0.3471 -0.1117
 7982SOL    HW124562   4.315   6.382   1.627 -0.1409 -0.3348 -0.1842
 7982SOL    HW224563   4.455   6.388   1.570  0.1525 -0.9170  0.4620
 7983SOL     OW24564   3.473   4.407   2.516 -0.3418 -0.2000 -0.2044
 7983SOL    HW124565   3.384   4.413   2.482  0.0085  0.4302 -1.0342
 7983SOL    HW224566   3.519   4.482   2.479  1.0085 -1.4464 -1.2208
 7984SOL     OW24567   5.134   5.696   0.099  0.4780 -0.0866  0.0525
 7984SOL    HW124568   5.189   5.752   0.154  0.3624 -0.4288  0.5212
 7984SOL    HW224569   5.190   5.673   0.024  0.6375  0.3732  0.0267
 7985SOL     OW24570   1.746   5.095   6.129 -0.7989  0.3750  0.0308
 7985SOL    HW124571   1.781   5.177   6.095 -0.0161 -0.5201 -1.4797
 7985SOL    HW224572   1.671   5.120   6.183 -0.1485  2.1037  0.1774
 7986SOL     OW24573   6.858   4.003   5.274  0.4571 -0.2690  0.5461
 7986SOL    HW124574   6.887   4.026   5.362 -1.3500  2.6455  0.5278
 7986SOL    HW224575   6.833   3.911   5.280 -0.2924  0.0181  3.2976
 7987SOL     OW24576   2.198   2.994   4.898 -0.0052 -0.3898  0.2944
 7987SOL    HW124577   2.233   3.057   4.961 -0.4348  0.6300 -0.4683
 7987SOL    HW224578   2.172   3.047   4.823 -1.6063 -1.3164  0.1586
 7988SOL     OW24579   6.322   1.434   0.731  0.4371 -0.4741 -0.1517
 7988SOL    HW124580   6.252   1.407   0.790  1.5862  0.2388  1.6138
 7988SOL    HW224581   6.344   1.354   0.682  0.4818 -1.5261  1.4944
 7989SOL     OW24582   4.435   2.935   1.486 -0.6113  0.1586 -0.2075
 7989SOL    HW124583   4.452   2.931   1.580 -1.2840 -1.5845 -0.1037
 7989SOL    HW224584   4.490   2.866   1.449 -1.2738 -0.0126 -0.9075
 7990SOL     OW24585   4.350   6.665   0.870  0.2783  0.2454  0.1062
 7990SOL    HW124586   4.427   6.715   0.896 -0.4269  1.8868 -0.8559
 7990SOL    HW224587   4.276   6.725   0.881 -0.5451 -0.4031 -1.4941
 7991SOL     OW24588   2.348   5.463   1.605 -0.2041  0.1785  0.6109
 7991SOL    HW124589   2.324   5.393   1.665 -3.4243 -0.6623 -1.4380
 7991SOL    HW224590   2.411   5.516   1.654 -0.7939 -1.7908  3.7500
 7992SOL     OW24591   6.517   1.809   6.387  1.1116  0.8717 -0.1842
 7992SOL    HW124592   6.540   1.860   6.309  0.9634 -0.2857 -1.0227
 7992SOL    HW224593   6.422   1.800   6.382  0.9349  1.9197  0.8827
 7993SOL     OW24594   1.270   6.023   6.547 -0.0148 -0.4849  0.0526
 7993SOL    HW124595   1.174   6.022   6.548 -0.1124 -2.4697 -2.1513
 7993SOL    HW224596   1.296   5.960   6.614 -0.2496 -0.3335  0.2877
 7994SOL     OW24597   5.055   6.005   5.994  0.1153 -0.2225  1.0117
 7994SOL    HW124598   5.080   5.945   6.063  0.3526 -0.5091  0.6789
 7994SOL    HW224599   5.011   6.078   6.039  1.5856  0.3219  1.6098
 7995SOL     OW24600   0.008   1.083   6.333 -0.0117 -0.4932  0.6089
 7995SOL    HW124601   0.032   1.139   6.258  1.6979  0.1509  1.5788
 7995SOL    HW224602   0.015   0.994   6.300  0.3532 -0.2066 -0.1072
 7996SOL     OW24603   2.312   4.104   3.714  0.0129 -0.2492  0.3039
 7996SOL    HW124604   2.352   4.018   3.697 -1.1106 -0.8237  0.4604
 7996SOL    HW224605   2.223   4.083   3.741 -0.2370  0.9777  0.4527
 7997SOL     OW24606   4.512   0.129   6.270 -0.0092 -0.5750  0.2090
 7997SOL    HW124607   4.491   0.079   6.191 -0.7468 -0.6849  0.4706
 7997SOL    HW224608   4.441   0.110   6.331  0.2038  0.0334  0.6603
 7998SOL     OW24609   0.793   3.343   6.439 -0.7201  0.4508  0.0927
 7998SOL    HW124610   0.810   3.285   6.514  1.6748 -1.3741 -1.7064
 7998SOL    HW224611   0.700   3.332   6.420 -0.8281 -0.9429  1.2677
 7999SOL     OW24612   0.906   1.038   2.150  0.1747  0.3353  0.0360
 7999SOL    HW124613   0.955   1.118   2.172  1.8414 -0.7130  0.3186
 7999SOL    HW224614   0.973   0.969   2.149 -1.0374 -0.8655 -1.3514
 8000SOL     OW24615   1.740   0.107   0.110  0.2541  0.5182  0.1460
 8000SOL    HW124616   1.763   0.065   0.192 -0.8067 -0.5291 -0.0654
 8000SOL    HW224617   1.745   0.037   0.045  0.5325  1.2094 -0.5910
 8001SOL     OW24618   1.496   0.124   4.553  0.4196 -0.2049  0.2612
 8001SOL    HW124619   1.529   0.213   4.561 -1.8157  0.7391 -0.3283
 8001SOL    HW224620   1.490   0.109   4.458  1.1193 -1.1298  0.3501
 8002SOL     OW24621   3.308   4.691   5.814  0.4998 -0.1632  0.5700
 8002SOL    HW124622   3.285   4.610   5.769 -2.5574  0.4456  0.8033
 8002SOL    HW224623   3.299   4.759   5.746 -1.9143  0.4822  1.4084
 8003SOL     OW24624   5.159   5.964   0.111 -0.2330 -0.0769 -0.7125
 8003SOL    HW124625   5.106   5.994   0.038 -0.5446  0.6700 -0.1948
 8003SOL    HW224626   5.249   5.964   0.078 -0.2925  0.8954 -0.9106
 8004SOL     OW24627   6.559   4.994   1.532  0.1392  0.2962 -0.1684
 8004SOL    HW124628   6.567   4.900   1.515 -1.3072 -0.4872  2.7699
 8004SOL    HW224629   6.645   5.020   1.564 -0.3344 -0.9689  2.4399
 8005SOL     OW24630   1.350   6.383   4.555 -0.1393 -0.0871 -0.2042
 8005SOL    HW124631   1.400   6.463   4.543 -0.5441  0.1800 -0.1227
 8005SOL    HW224632   1.346   6.371   4.650  0.6994 -0.7020 -0.2344
 8006SOL     OW24633   2.556   2.091   4.579  0.0209  0.1737  0.2899
 8006SOL    HW124634   2.515   2.006   4.561  0.3106 -0.3369  1.9124
 8006SOL    HW224635   2.542   2.105   4.672  0.7326  1.5222  0.2150
 8007SOL     OW24636   6.949   5.574   1.401 -0.1966  0.4607  0.4750
 8007SOL    HW124637   6.883   5.628   1.444  0.1721 -1.0895  3.2064
 8007SOL    HW224638   6.899   5.517   1.342 -1.3005 -0.2891  2.0652
 8008SOL     OW24639   2.031   6.104   5.895  0.1496  0.4845  0.1529
 8008SOL    HW124640   2.096   6.095   5.965  1.0658 -0.7588 -0.8104
 8008SOL    HW224641   2.053   6.186   5.851  1.2873 -0.0826 -0.3612
 8009SOL     OW24642   2.867   2.660   3.810 -0.0661  0.1498 -0.2735
 8009SOL    HW124643   2.946   2.641   3.759 -0.2635 -0.5460 -0.3329
 8009SOL    HW224644   2.799   2.676   3.745 -0.0539  0.4258 -0.2213
 8010SOL     OW24645   2.524   0.684   3.925 -0.0410 -0.3630  0.1694
 8010SOL    HW124646   2.611   0.670   3.962  0.8769  0.9484 -1.3251
 8010SOL    HW224647   2.506   0.604   3.875 -0.4711 -1.3424  1.8158
 8011SOL     OW24648   3.996   2.048   1.617  0.3781  0.0576 -0.3563
 8011SOL    HW124649   3.953   1.989   1.555  0.0449 -0.8144  0.6645
 8011SOL    HW224650   3.979   2.008   1.703  0.3001  1.5541  0.3501
 8012SOL     OW24651   4.516   1.566   2.477 -0.5260 -0.3326 -0.0359
 8012SOL    HW124652   4.463   1.589   2.401  0.6502 -0.6048 -0.9570
 8012SOL    HW224653   4.582   1.634   2.483 -0.0555 -0.8006  0.2011
 8013SOL     OW24654   7.205   0.160   0.127  0.0316 -0.4579 -0.8764
 8013SOL    HW124655   7.179   0.193   0.041 -0.5281  0.0655 -0.5112
 8013SOL    HW224656   7.124   0.129   0.167  0.7066 -3.9478 -1.8530
 8014SOL     OW24657   2.506   3.296   1.866 -0.0183 -0.4125  0.1110
 8014SOL    HW124658   2.554   3.216   1.847  1.2569  0.1847  0.7253
 8014SOL    HW224659   2.515   3.308   1.960  0.8304  1.0661 -0.1310
 8015SOL     OW24660   0.519   5.361   3.078  0.3741  0.3567 -0.6686
 8015SOL    HW124661   0.454   5.328   3.141  0.1051  2.3333  0.1746
 8015SOL    HW224662   0.469   5.377   2.998  0.1332  0.3891 -0.5133
 8016SOL     OW24663   6.517   3.160   5.837 -0.1417  0.0482 -0.0579
 8016SOL    HW124664   6.543   3.209   5.915 -1.4454  0.6514  0.0262
 8016SOL    HW224665   6.584   3.181   5.772  0.9285 -0.4036  0.8560
 8017SOL     OW24666   5.033   3.653   7.253  0.1635 -0.1106  0.2957
 8017SOL    HW124667   4.946   3.684   7.229  0.5812  1.7457  1.0577
 8017SOL    HW224668   5.028   3.637   7.348 -0.1011 -2.7355 -0.0741
 8018SOL     OW24669   0.523   6.811   2.729  0.0405 -0.5483  0.1712
 8018SOL    HW124670   0.499   6.902   2.708  1.3181 -0.2626 -0.1102
 8018SOL    HW224671   0.607   6.798   2.687 -0.0533 -1.8302  0.3506
 8019SOL     OW24672   3.572   3.277   2.125  0.7432 -0.1254 -0.2705
 8019SOL    HW124673   3.539   3.328   2.051  0.1655 -1.4297 -0.9380
 8019SOL    HW224674   3.581   3.341   2.195 -1.2230  0.6816 -0.6822
 8020SOL     OW24675   4.893   2.422   4.055  0.8741  0.6185 -0.5086
 8020SOL    HW124676   4.843   2.362   4.000  0.8138  0.7876 -0.6425
 8020SOL    HW224677   4.829   2.489   4.082  0.2610 -0.8121  1.8688
 8021SOL     OW24678   1.356   5.399   0.050  0.1866  0.8326 -0.4737
 8021SOL    HW124679   1.407   5.444   0.117 -0.6978 -0.6347  1.2850
 8021SOL    HW224680   1.370   5.306   0.067 -3.2570  0.3256  0.3293
 8022SOL     OW24681   1.525   7.123   3.653  0.2103  0.0877 -0.6717
 8022SOL    HW124682   1.462   7.194   3.640  0.9882  0.9782  0.1914
 8022SOL    HW224683   1.543   7.124   3.747 -1.2709 -2.6057 -0.2690
 8023SOL     OW24684   3.415   3.008   1.198 -0.5240  0.5302  0.4959
 8023SOL    HW124685   3.417   2.920   1.236 -0.3574  0.7011  0.8896
 8023SOL    HW224686   3.421   2.993   1.103  3.6139  0.2159  0.6169
 8024SOL     OW24687   2.806   0.770   5.647 -0.5713 -0.0019  0.0835
 8024SOL    HW124688   2.749   0.738   5.577 -0.3286  0.4441 -0.3212
 8024SOL    HW224689   2.821   0.693   5.702 -0.4621 -0.4533 -0.5628
 8025SOL     OW24690   5.671   4.028   5.365  0.0747  0.0862 -0.1646
 8025SOL    HW124691   5.702   4.086   5.296  0.1192  0.4271  0.1391
 8025SOL    HW224692   5.741   3.963   5.375  0.7170  0.8479  0.5130
 8026SOL     OW24693   4.355   3.777   4.664  0.4228 -0.0728  0.8044
 8026SOL    HW124694   4.329   3.721   4.737 -0.4142 -2.9188 -1.5116
 8026SOL    HW224695   4.446   3.753   4.646  0.6601  0.6938  0.9340
 8027SOL     OW24696   6.129   5.170   0.097  0.3167 -0.0867 -0.2962
 8027SOL    HW124697   6.091   5.252   0.131  0.9770  0.1393 -0.0725
 8027SOL    HW224698   6.164   5.127   0.175 -2.0502 -1.7338 -0.0370
 8028SOL     OW24699   5.631   5.043   6.420 -0.1329  0.1142 -0.3136
 8028SOL    HW124700   5.661   5.115   6.476 -0.8210 -0.1063  0.3451
 8028SOL    HW224701   5.538   5.033   6.441 -0.0900 -0.8404 -0.5389
 8029SOL     OW24702   7.170   2.990   0.107  0.3215 -0.3740 -0.1979
 8029SOL    HW124703   7.198   2.951   0.024  0.9449 -0.8838  0.2425
 8029SOL    HW224704   7.127   3.072   0.082  0.3357 -0.6170 -1.0332
 8030SOL     OW24705   4.811   6.193   3.877  0.2139  0.5830 -0.1602
 8030SOL    HW124706   4.777   6.276   3.910 -1.2940 -0.0026 -0.1811
 8030SOL    HW224707   4.829   6.210   3.784 -1.7531  0.4266 -0.6031
 8031SOL     OW24708   3.887   2.897   1.994  0.4165  0.2034  0.2490
 8031SOL    HW124709   3.795   2.916   1.976 -0.2180 -0.5694  2.4208
 8031SOL    HW224710   3.912   2.833   1.927 -1.1924 -0.9888  0.7213
 8032SOL     OW24711   6.812   3.576   1.693 -0.3244 -0.1046 -0.1710
 8032SOL    HW124712   6.760   3.653   1.714  0.7337  0.2148  1.4678
 8032SOL    HW224713   6.830   3.535   1.777 -0.0327 -1.6195 -0.9222
 8033SOL     OW24714   3.132   2.855   4.326 -0.7047 -0.4735 -0.1005
 8033SOL    HW124715   3.130   2.792   4.397  0.7815  0.9634  1.2968
 8033SOL    HW224716   3.195   2.819   4.263  0.4786 -0.2164  0.8961
 8034SOL     OW24717   2.335   0.021   5.928 -0.1985  0.4930 -0.5185
 8034SOL    HW124718   2.411  -0.037   5.915  0.0415  0.9652 -1.3176
 8034SOL    HW224719   2.373   0.109   5.931 -0.7009  0.7199 -0.7601
 8035SOL     OW24720   0.179   1.245   1.387 -0.1006 -0.7426 -0.5867
 8035SOL    HW124721   0.095   1.225   1.346 -1.5700  1.0830  1.2861
 8035SOL    HW224722   0.168   1.216   1.478  0.3615  1.5334  0.2745
 8036SOL     OW24723   0.168   1.770   6.271  0.8542 -0.2784 -0.2129
 8036SOL    HW124724   0.199   1.691   6.315  0.2958 -1.2577 -1.5004
 8036SOL    HW224725   0.073   1.768   6.281  0.7072 -0.5397 -1.3986
 8037SOL     OW24726   2.788   6.621   7.249  0.5852  0.2577 -0.1009
 8037SOL    HW124727   2.744   6.706   7.247 -0.4369 -0.2012  0.9538
 8037SOL    HW224728   2.795   6.595   7.158 -0.3221  0.8817 -0.3663
 8038SOL     OW24729   3.724   2.864   6.299 -0.0040 -0.2445  0.0520
 8038SOL    HW124730   3.778   2.929   6.345 -0.1624 -1.9516  2.9135
 8038SOL    HW224731   3.729   2.786   6.354 -0.6755 -2.3483 -2.6986
 8039SOL     OW24732   7.245   4.183   3.531 -0.3213 -0.1389  0.3462
 8039SOL    HW124733   7.161   4.225   3.516 -0.5714 -0.3228  1.1899
 8039SOL    HW224734   7.245   4.108   3.471 -0.8506 -0.2616  0.4929
 8040SOL     OW24735   5.703   2.269   5.144 -0.0604 -0.1898 -0.3400
 8040SOL    HW124736   5.640   2.243   5.077  0.7250 -1.3358 -0.6752
 8040SOL    HW224737   5.649   2.297   5.218 -0.9478  1.7660 -1.6572
 8041SOL     OW24738   0.317   0.607   4.293 -0.3429  0.2138  0.4453
 8041SOL    HW124739   0.283   0.633   4.207  0.4457 -1.3736 -0.3968
 8041SOL    HW224740   0.312   0.687   4.346  2.2791  2.2436 -2.0496
 8042SOL     OW24741   3.530   7.069   7.199 -0.1256 -0.3368 -0.8441
 8042SOL    HW124742   3.503   7.072   7.291  0.1794 -0.6671 -0.7356
 8042SOL    HW224743   3.613   7.020   7.201  1.2880  1.9139 -0.9695
 8043SOL     OW24744   7.120   5.958   6.247 -0.8990  0.2197 -0.4304
 8043SOL    HW124745   7.129   6.043   6.205  2.1211 -0.4912 -1.4469
 8043SOL    HW224746   7.190   5.905   6.209 -0.0996 -1.5147  3.0628
 8044SOL     OW24747   4.099   6.409   1.315 -0.0505 -0.5314 -0.3724
 8044SOL    HW124748   4.145   6.470   1.374 -3.1791  1.6194  0.1014
 8044SOL    HW224749   4.047   6.354   1.374 -0.0315 -1.2042 -0.9712
 8045SOL     OW24750   6.882   1.968   5.477  0.2597 -0.3799 -0.1657
 8045SOL    HW124751   6.902   1.932   5.390 -1.6507 -2.6369  0.2239
 8045SOL    HW224752   6.811   1.913   5.510  1.4998 -0.2093  3.2146
 8046SOL     OW24753   0.324   2.293   5.915  0.2948 -0.0975 -0.6397
 8046SOL    HW124754   0.265   2.257   5.849 -0.7042 -0.4801  0.4427
 8046SOL    HW224755   0.281   2.275   5.999 -0.2710  3.5464  0.0077
 8047SOL     OW24756   6.452   3.354   1.355 -0.3819  0.4555 -0.3683
 8047SOL    HW124757   6.532   3.334   1.405 -0.1362 -0.3854 -1.0696
 8047SOL    HW224758   6.426   3.441   1.385  0.2243  0.3118  0.6135
 8048SOL     OW24759   2.150   5.810   4.257  0.5590  0.4637 -0.5267
 8048SOL    HW124760   2.198   5.733   4.226 -1.0581 -1.1436  0.7505
 8048SOL    HW224761   2.120   5.853   4.176 -0.4051 -1.5487 -1.3192
 8049SOL     OW24762   4.510   5.515   4.020 -0.0297  0.2371  0.3515
 8049SOL    HW124763   4.538   5.605   4.005 -0.6188  0.3041 -0.4194
 8049SOL    HW224764   4.415   5.520   4.031  0.2375  0.1439  3.9470
 8050SOL     OW24765   6.808   5.220   0.514 -0.3397  0.6675  0.1310
 8050SOL    HW124766   6.848   5.248   0.596  0.3765  0.4397 -0.1296
 8050SOL    HW224767   6.770   5.300   0.477  0.4181  1.0248  0.0933
 8051SOL     OW24768   3.401   0.082   4.918  0.3823 -0.3125 -0.1115
 8051SOL    HW124769   3.440   0.102   5.003 -0.4177  0.0059  0.1946
 8051SOL    HW224770   3.458   0.016   4.879  1.3994  0.3733  0.1782
 8052SOL     OW24771   0.014   2.193   5.382  0.1829  0.0668 -0.0472
 8052SOL    HW124772   0.030   2.285   5.404  0.1568 -0.1477  0.9170
 8052SOL    HW224773  -0.081   2.183   5.389  0.3135 -0.3775  1.3152
 8053SOL     OW24774   0.200   3.657   3.415  0.3090 -0.4239 -0.3720
 8053SOL    HW124775   0.249   3.718   3.359 -1.2297  0.9971 -0.2489
 8053SOL    HW224776   0.204   3.697   3.502 -0.8730 -0.3744 -0.3247
 8054SOL     OW24777   6.874   6.355   0.252 -0.0679 -0.2625  0.5818
 8054SOL    HW124778   6.817   6.300   0.306  1.4055 -2.0359  0.4276
 8054SOL    HW224779   6.854   6.445   0.280 -0.1722 -1.0323  3.2972
 8055SOL     OW24780   1.164   6.459   3.611  0.2832 -0.1087  0.4873
 8055SOL    HW124781   1.212   6.538   3.589 -0.7629  0.7183  1.0922
 8055SOL    HW224782   1.091   6.457   3.549  0.3223 -0.6255  0.4519
 8056SOL     OW24783   1.416   5.138   3.017 -0.4657  0.0442 -0.1871
 8056SOL    HW124784   1.493   5.102   2.972 -1.4002  0.1982 -1.9931
 8056SOL    HW224785   1.444   5.226   3.044  0.3300 -0.2953  0.1221
 8057SOL     OW24786   6.331   5.536   7.199 -0.0461  0.2697  0.0009
 8057SOL    HW124787   6.316   5.522   7.292  0.4321  0.6865  0.1431
 8057SOL    HW224788   6.288   5.618   7.179 -0.4039  0.0336 -0.2151
 8058SOL     OW24789   0.716   7.168   3.156  0.3246 -0.0442 -0.1263
 8058SOL    HW124790   0.735   7.251   3.112  1.6937  1.1045  2.3702
 8058SOL    HW224791   0.730   7.101   3.090 -1.1321  1.6757 -2.3242
 8059SOL     OW24792   4.883   4.404   5.418  0.0994  0.2639  0.4026
 8059SOL    HW124793   4.817   4.463   5.382 -0.5788 -0.0853  1.0403
 8059SOL    HW224794   4.835   4.350   5.480  1.1293  0.4883  1.4232
 8060SOL     OW24795   4.781   3.948   6.233  0.0685  0.3134 -0.6002
 8060SOL    HW124796   4.716   3.931   6.301 -0.6465 -2.1260 -1.7971
 8060SOL    HW224797   4.829   4.025   6.265 -1.1052  0.0828  1.9768
 8061SOL     OW24798   5.806   4.263   3.864 -0.3615 -0.0939 -0.2763
 8061SOL    HW124799   5.718   4.291   3.890  0.0087  0.9622 -0.1071
 8061SOL    HW224800   5.854   4.255   3.946 -0.3121 -0.7183 -0.3650
 8062SOL     OW24801   3.343   1.382   1.814 -0.5792 -0.4642  0.2511
 8062SOL    HW124802   3.350   1.308   1.874 -2.0680 -0.1877  0.8014
 8062SOL    HW224803   3.254   1.415   1.826  0.0299  1.4069  0.0052
 8063SOL     OW24804   1.308   2.073   6.946 -0.3238  0.0259  0.1211
 8063SOL    HW124805   1.234   2.125   6.914 -0.4011 -0.1714 -0.0225
 8063SOL    HW224806   1.277   1.982   6.942  0.5133 -0.2274 -1.6053
 8064SOL     OW24807   3.274   4.264   0.830  0.0513  0.1713 -0.2115
 8064SOL    HW124808   3.259   4.204   0.904 -0.0240  2.1960  1.5343
 8064SOL    HW224809   3.369   4.264   0.818  0.0203 -0.5825 -0.5028
 8065SOL     OW24810   2.231   2.053   4.855 -0.3251 -0.2192 -0.3398
 8065SOL    HW124811   2.211   1.970   4.897  0.9185  0.2149  1.1993
 8065SOL    HW224812   2.173   2.056   4.779 -1.9167 -1.5206  0.7481
 8066SOL     OW24813   0.310   3.450   4.986 -0.2357 -0.2122  0.3974
 8066SOL    HW124814   0.405   3.443   4.986 -0.2278 -0.1276  0.7974
 8066SOL    HW224815   0.292   3.536   4.949 -0.2130 -0.8513 -1.1688
 8067SOL     OW24816   3.253   2.435   6.233 -0.3288 -0.0340 -0.6989
 8067SOL    HW124817   3.173   2.481   6.256  0.9876  3.0534 -1.7381
 8067SOL    HW224818   3.313   2.453   6.306  0.2393  0.0284 -1.1692
 8068SOL     OW24819   0.593   3.750   5.736 -0.0266 -0.1145  0.6277
 8068SOL    HW124820   0.685   3.724   5.746  0.3012  0.1545 -1.2456
 8068SOL    HW224821   0.596   3.827   5.679 -1.5408 -1.8576 -2.0159
 8069SOL     OW24822   3.350   4.529   4.018  0.4693  0.5031  0.1541
 8069SOL    HW124823   3.323   4.526   4.110 -0.2576  0.7231 -0.0475
 8069SOL    HW224824   3.313   4.450   3.979  0.4837  0.5826 -0.0249
 8070SOL     OW24825   5.959   4.539   0.813  0.2359  0.3074  0.0876
 8070SOL    HW124826   5.899   4.466   0.795  0.2247  0.0130  1.1892
 8070SOL    HW224827   6.032   4.526   0.752 -0.0000 -0.3454 -0.0655
 8071SOL     OW24828   0.304   0.494   2.774  0.3784  0.3825 -0.5698
 8071SOL    HW124829   0.388   0.477   2.732  0.8631  0.0584  0.5222
 8071SOL    HW224830   0.244   0.432   2.733  1.0556 -0.5945 -0.1175
 8072SOL     OW24831   6.343   3.006   0.872 -0.1035  0.0893  0.1961
 8072SOL    HW124832   6.297   3.069   0.816  0.1843 -0.0592 -0.2185
 8072SOL    HW224833   6.434   3.035   0.871 -0.1543  0.2904  0.8860
 8073SOL     OW24834   1.249   4.297   4.261  0.2297  0.3279 -0.4970
 8073SOL    HW124835   1.314   4.356   4.299 -0.4034  1.2623 -0.8544
 8073SOL    HW224836   1.246   4.320   4.169 -0.7467  0.4328 -0.4477
 8074SOL     OW24837   3.644   2.513   2.427 -0.0555 -0.1908 -0.0012
 8074SOL    HW124838   3.729   2.513   2.472 -0.2318  0.4015  0.3431
 8074SOL    HW224839   3.631   2.605   2.402 -0.8667 -0.1792  0.4574
 8075SOL     OW24840   2.240   6.170   6.760  0.1526 -0.1877 -0.2758
 8075SOL    HW124841   2.166   6.135   6.709 -0.0839  3.6194 -3.0103
 8075SOL    HW224842   2.200   6.233   6.820  1.0134  1.6371 -1.5224
 8076SOL     OW24843   2.609   0.016   0.868 -0.1124  0.2368  0.5614
 8076SOL    HW124844   2.582   0.004   0.777 -2.3220  1.5455  0.9552
 8076SOL    HW224845   2.583   0.106   0.889 -1.0935 -0.5157  2.9131
 8077SOL     OW24846   7.052   5.593   2.625  0.1605  0.1997  0.6267
 8077SOL    HW124847   6.981   5.644   2.585  0.0584  1.5356  2.4218
 8077SOL    HW224848   7.008   5.541   2.692  0.2332 -2.4987 -1.2418
 8078SOL     OW24849   2.590   2.397   2.312 -0.5737 -0.0567  0.5252
 8078SOL    HW124850   2.652   2.351   2.369 -0.7594  0.3770  1.0857
 8078SOL    HW224851   2.600   2.355   2.226 -0.9939 -1.3804  1.1046
 8079SOL     OW24852   2.044   5.142   6.196 -0.3165  0.8033 -0.3448
 8079SOL    HW124853   1.990   5.221   6.189 -1.1231  0.2634 -0.3416
 8079SOL    HW224854   2.040   5.102   6.110 -2.5722 -0.9098  0.4565
 8080SOL     OW24855   6.031   3.521   1.437  0.0864  0.6377  0.1988
 8080SOL    HW124856   6.048   3.438   1.481 -0.9841 -0.4319 -1.2907
 8080SOL    HW224857   6.116   3.565   1.434  0.6536 -0.3665  1.0708
 8081SOL     OW24858   5.776   1.958   5.708 -0.3180 -0.0751 -0.1783
 8081SOL    HW124859   5.821   2.024   5.654 -0.6417  0.4773  0.2214
 8081SOL    HW224860   5.793   1.876   5.662  2.2786 -0.1295  0.6694
 8082SOL     OW24861   5.581   6.220   2.180  0.4438  0.3944 -0.3953
 8082SOL    HW124862   5.542   6.141   2.141  0.1597 -1.0163  2.5059
 8082SOL    HW224863   5.661   6.190   2.222  0.4144  1.6691  0.6490
 8083SOL     OW24864   6.944   5.316   4.053 -0.0581 -0.6873 -0.4027
 8083SOL    HW124865   6.919   5.403   4.085 -1.9769 -1.7375  1.2409
 8083SOL    HW224866   6.953   5.327   3.959  0.7227  1.4789 -0.1331
 8084SOL     OW24867   6.080   1.977   7.082  0.6062 -0.0344 -0.1793
 8084SOL    HW124868   6.144   1.918   7.122  0.6430 -0.6105 -1.0659
 8084SOL    HW224869   6.000   1.924   7.075  0.0729  0.6070  0.7154
 8085SOL     OW24870   2.675   6.959   2.059 -0.4600 -0.0308 -0.0533
 8085SOL    HW124871   2.687   7.038   2.006 -0.9854  0.6326  0.7859
 8085SOL    HW224872   2.759   6.945   2.101 -0.0668 -0.5094 -0.9800
 8086SOL     OW24873   5.173   1.924   5.507 -0.6993 -0.3558 -0.4482
 8086SOL    HW124874   5.086   1.924   5.467 -0.3861 -1.0534 -1.1624
 8086SOL    HW224875   5.156   1.920   5.601 -1.4688  2.4809 -0.3826
 8087SOL     OW24876   1.771   1.796   6.483  0.5109  0.2293  0.7674
 8087SOL    HW124877   1.827   1.808   6.406  0.9865 -2.3714  0.6260
 8087SOL    HW224878   1.707   1.730   6.456  0.5403 -0.5747  2.5059
 8088SOL     OW24879   3.828   4.102   3.251  0.2152  1.0168  0.4066
 8088SOL    HW124880   3.794   4.185   3.285 -1.6339  0.9995 -1.2827
 8088SOL    HW224881   3.782   4.035   3.301 -0.4027  1.0020 -0.1802
 8089SOL     OW24882   4.110   3.247   2.123 -0.0531  0.1862  0.3368
 8089SOL    HW124883   4.078   3.296   2.047  0.6467 -1.6857 -1.2279
 8089SOL    HW224884   4.093   3.305   2.197 -1.0634  1.9459 -1.1876
 8090SOL     OW24885   5.536   4.572   0.570  0.1468  0.1506  0.5802
 8090SOL    HW124886   5.589   4.650   0.556 -1.5351  1.3676  0.7600
 8090SOL    HW224887   5.502   4.582   0.659 -1.0892 -0.1323  0.1616
 8091SOL     OW24888   7.151   6.684   3.352 -0.5218 -0.3738 -0.6582
 8091SOL    HW124889   7.080   6.745   3.372  0.1613  0.2887 -0.2022
 8091SOL    HW224890   7.116   6.628   3.283 -1.3156  0.2539 -0.7777
 8092SOL     OW24891   6.669   7.153   1.884 -0.6668  0.2781  0.1153
 8092SOL    HW124892   6.632   7.067   1.902  0.0273 -0.0703 -0.0791
 8092SOL    HW224893   6.594   7.212   1.882 -1.1886 -0.3833 -0.1243
 8093SOL     OW24894   3.027   5.292   0.690 -0.6871 -0.0786 -0.1676
 8093SOL    HW124895   3.027   5.300   0.594  1.2577 -1.5555 -0.3500
 8093SOL    HW224896   2.997   5.203   0.707 -1.6876  0.3954  0.6682
 8094SOL     OW24897   2.155   4.020   1.373 -0.2749  0.3552  0.0767
 8094SOL    HW124898   2.221   3.976   1.319 -0.7821 -0.8547  0.4214
 8094SOL    HW224899   2.197   4.103   1.398  1.5885 -0.8497  1.2014
 8095SOL     OW24900   6.433   5.447   1.057 -0.6827 -0.6013 -0.4557
 8095SOL    HW124901   6.405   5.505   1.128 -0.8966  1.1114 -1.8398
 8095SOL    HW224902   6.499   5.498   1.010 -1.2183 -1.2637 -2.0018
 8096SOL     OW24903   0.807   3.052   4.357  0.1017 -0.2332 -0.2434
 8096SOL    HW124904   0.833   3.142   4.377 -0.0376  0.0218 -1.1546
 8096SOL    HW224905   0.860   3.028   4.281  0.4526 -1.0863  0.2568
 8097SOL     OW24906   1.730   5.970   4.217 -0.2377  0.4388 -0.4500
 8097SOL    HW124907   1.649   5.966   4.166  0.1915  1.6932 -1.2862
 8097SOL    HW224908   1.799   5.980   4.151  0.6287 -0.8116  0.2425
 8098SOL     OW24909   6.706   1.745   4.938  0.8062  0.1366 -0.3715
 8098SOL    HW124910   6.762   1.820   4.918  1.0690  0.2868  0.8792
 8098SOL    HW224911   6.687   1.753   5.031 -2.2565  0.7192 -0.9521
 8099SOL     OW24912   6.422   6.200   1.799 -0.1299 -0.6380 -0.6463
 8099SOL    HW124913   6.428   6.236   1.711  0.2147 -1.2482 -0.8821
 8099SOL    HW224914   6.442   6.273   1.857  0.1105 -0.3439 -1.0922
 8100SOL     OW24915   3.306   3.831   5.682  0.0536  0.2233  0.2643
 8100SOL    HW124916   3.219   3.793   5.674 -0.2401  0.6112  1.3362
 8100SOL    HW224917   3.292   3.909   5.736  1.0857  0.2056  0.5670
 8101SOL     OW24918   4.311   2.151   0.601  0.0344  0.1365 -0.3882
 8101SOL    HW124919   4.245   2.095   0.641  0.2756 -0.1121 -0.3276
 8101SOL    HW224920   4.269   2.186   0.523 -0.9841  1.8827  0.8937
 8102SOL     OW24921   6.921   3.967   4.819 -0.1259 -0.1243 -0.2789
 8102SOL    HW124922   6.974   4.040   4.788 -1.4725  0.8919 -0.2581
 8102SOL    HW224923   6.853   4.007   4.873  1.1950 -1.6755  2.7828
 8103SOL     OW24924   0.731   2.419   2.158 -0.2913  0.7251  0.0642
 8103SOL    HW124925   0.763   2.406   2.069 -0.9880  1.0628 -0.2485
 8103SOL    HW224926   0.635   2.420   2.149 -0.3620  1.6989  0.6714
 8104SOL     OW24927   2.438   2.637   2.381 -0.6533  0.6657 -0.0382
 8104SOL    HW124928   2.512   2.583   2.353  0.6165  1.4099  1.7163
 8104SOL    HW224929   2.368   2.574   2.400 -0.2928 -0.0912 -1.1112
 8105SOL     OW24930   1.565   1.280   6.012 -0.6560  0.0433 -0.3508
 8105SOL    HW124931   1.575   1.267   6.106  1.3122  0.1941 -0.5090
 8105SOL    HW224932   1.569   1.374   5.999  1.2121 -0.0575 -0.7588
 8106SOL     OW24933   0.060   5.816   4.217 -0.0983  0.0507 -0.3642
 8106SOL    HW124934  -0.034   5.802   4.205 -0.0903  0.0567 -0.4363
 8106SOL    HW224935   0.073   5.908   4.193  0.3422 -0.6081 -2.9812
 8107SOL     OW24936   1.934   2.189   5.144 -0.4100 -0.2304 -0.1778
 8107SOL    HW124937   1.925   2.157   5.054 -0.4096 -0.7495  0.0028
 8107SOL    HW224938   1.936   2.284   5.135 -0.4995 -0.2731 -0.7198
 8108SOL     OW24939   0.868   5.543   3.578  0.1017  0.4195 -0.3470
 8108SOL    HW124940   0.848   5.539   3.485 -0.1937  1.9005 -0.3640
 8108SOL    HW224941   0.963   5.560   3.581  0.3215 -0.7302 -0.3447
 8109SOL     OW24942   0.629   3.313   6.133  0.0831 -0.5113  0.2741
 8109SOL    HW124943   0.579   3.392   6.155  0.3133 -0.2296 -0.1932
 8109SOL    HW224944   0.563   3.251   6.101 -0.1967 -0.7709  1.2974
 8110SOL     OW24945   2.140   2.885   4.118  0.4396  0.2322 -0.5022
 8110SOL    HW124946   2.056   2.931   4.122 -0.3821 -1.0160 -2.3464
 8110SOL    HW224947   2.134   2.819   4.188 -0.4972 -0.4189 -1.1760
 8111SOL     OW24948   5.962   3.210   6.080 -0.2533 -0.1134 -0.4729
 8111SOL    HW124949   5.942   3.164   6.162 -2.2754 -1.5086 -1.6653
 8111SOL    HW224950   5.885   3.265   6.065 -0.1057 -0.2154 -1.6467
 8112SOL     OW24951   6.771   6.724   1.250 -0.4112  0.0944  0.7297
 8112SOL    HW124952   6.769   6.816   1.224 -0.8408 -0.4428 -1.3117
 8112SOL    HW224953   6.858   6.694   1.223 -0.4633 -0.2268  0.9152
 8113SOL     OW24954   6.230   3.970   1.370  0.5197  0.0213 -0.1112
 8113SOL    HW124955   6.290   3.960   1.443  0.8246  0.3087 -0.3247
 8113SOL    HW224956   6.265   4.042   1.318 -0.0427  0.2413 -0.2008
 8114SOL     OW24957   7.037   3.693   0.973  0.2506  0.0558  0.0655
 8114SOL    HW124958   6.981   3.648   1.036 -2.6239  1.7459 -1.0827
 8114SOL    HW224959   7.064   3.624   0.912  1.9774 -1.3379  2.2904
 8115SOL     OW24960   0.119   6.702   1.883 -0.1340  0.5223  0.2025
 8115SOL    HW124961   0.097   6.795   1.876 -0.3905  0.4261 -0.3492
 8115SOL    HW224962   0.050   6.658   1.833 -1.5891 -0.1783  2.6772
 8116SOL     OW24963   0.027   4.970   4.105 -0.1553  0.0686 -0.1240
 8116SOL    HW124964  -0.059   5.011   4.101  0.1555  0.8341  0.7739
 8116SOL    HW224965   0.087   5.042   4.123  0.7403 -0.3839 -1.1997
 8117SOL     OW24966   1.556   7.069   0.530  0.3041  0.3990  0.2770
 8117SOL    HW124967   1.587   7.135   0.592 -0.7059  2.3330 -1.1520
 8117SOL    HW224968   1.629   7.007   0.522  1.1425  1.1152  1.9764
 8118SOL     OW24969   5.220   1.979   2.262 -0.4324  0.2881  0.8343
 8118SOL    HW124970   5.150   1.952   2.204 -1.5917  2.4503  1.1017
 8118SOL    HW224971   5.285   2.020   2.205 -1.4603  2.1924  0.9234
 8119SOL     OW24972   3.711   4.937   0.260  0.0787  0.3516  0.2554
 8119SOL    HW124973   3.634   4.884   0.281 -0.3842  0.7085 -0.5433
 8119SOL    HW224974   3.727   4.989   0.339 -0.9101  0.7764  0.1795
 8120SOL     OW24975   3.097   1.753   3.073 -0.5368 -0.2759  0.0925
 8120SOL    HW124976   3.151   1.716   3.004 -0.8313 -2.0636  0.7684
 8120SOL    HW224977   3.007   1.748   3.040 -0.5032  0.8949 -0.2412
 8121SOL     OW24978   1.283   0.825   1.580 -0.0686  0.4316 -0.2552
 8121SOL    HW124979   1.304   0.855   1.669  0.7758 -0.1308 -0.2497
 8121SOL    HW224980   1.358   0.771   1.555 -0.3508  0.4912 -1.2702
 8122SOL     OW24981   6.290   5.563   2.402 -0.4534  0.5179 -0.1044
 8122SOL    HW124982   6.282   5.513   2.321 -0.5116 -0.6944  0.6295
 8122SOL    HW224983   6.368   5.527   2.445  0.3467  2.0289 -0.2011
 8123SOL     OW24984   2.099   2.191   6.218 -0.1198  0.4283 -0.0832
 8123SOL    HW124985   2.020   2.169   6.169 -0.4740 -1.0122  1.0711
 8123SOL    HW224986   2.137   2.266   6.171  0.8093 -2.1766 -3.9666
 8124SOL     OW24987   2.418   0.111   2.516 -0.1855 -0.0895  0.5844
 8124SOL    HW124988   2.512   0.110   2.536  0.1900  1.5245 -0.8773
 8124SOL    HW224989   2.386   0.193   2.554 -0.9345 -0.4192  0.6911
 8125SOL     OW24990   6.684   6.977   2.537  0.5056 -0.7284 -0.7428
 8125SOL    HW124991   6.660   6.908   2.599  0.0286  1.0903  1.2013
 8125SOL    HW224992   6.605   7.028   2.525  1.8279  2.1838  1.5718
 8126SOL     OW24993   6.242   2.500   5.586  0.6952 -0.0950  0.2162
 8126SOL    HW124994   6.335   2.480   5.576  0.5140 -0.0839 -1.9870
 8126SOL    HW224995   6.234   2.592   5.562  0.0933 -0.1602  0.1374
 8127SOL     OW24996   6.433   5.385   0.506 -0.1910  0.2418  0.1067
 8127SOL    HW124997   6.446   5.475   0.536 -0.1813 -0.2819  1.8020
 8127SOL    HW224998   6.490   5.376   0.430  2.4487  0.7163  1.9086
 8128SOL     OW24999   6.174   1.362   4.060  0.5868 -0.5205  0.1690
 8128SOL    HW125000   6.216   1.304   3.997  0.7991  0.0924 -0.2586
 8128SOL    HW225001   6.199   1.326   4.146 -1.1864 -2.4535 -0.0240
 8129SOL     OW25002   5.251   2.599   2.303  0.1328  0.1006  0.2334
 8129SOL    HW125003   5.222   2.662   2.370 -0.5547  0.2507 -0.1859
 8129SOL    HW225004   5.181   2.534   2.302  0.6619 -0.4703  0.3983
 8130SOL     OW25005   5.156   4.920   0.891 -0.4341 -0.8036  0.0634
 8130SOL    HW125006   5.106   4.893   0.968 -2.5749 -0.3613 -1.1191
 8130SOL    HW225007   5.137   4.854   0.825 -0.7737  0.2421 -0.9199
 8131SOL     OW25008   6.891   0.287   3.683  0.2013 -0.2834 -0.1760
 8131SOL    HW125009   6.955   0.218   3.702 -0.3729 -0.8531 -0.2710
 8131SOL    HW225010   6.910   0.314   3.593  1.4566  0.8156  0.3972
 8132SOL     OW25011   6.063   7.146   2.414  0.3485  0.3672 -0.1036
 8132SOL    HW125012   6.100   7.215   2.359  1.1481 -0.4066 -0.5664
 8132SOL    HW225013   6.125   7.136   2.485  1.4796 -1.4243 -1.2590
 8133SOL     OW25014   4.056   6.685   4.662  0.1569  0.3851 -0.2729
 8133SOL    HW125015   4.064   6.679   4.757  0.7494  0.3449 -0.3232
 8133SOL    HW225016   4.058   6.779   4.643 -0.3700  0.4133 -0.2175
 8134SOL     OW25017   0.658   1.148   7.083 -0.3136  0.3893 -0.6089
 8134SOL    HW125018   0.680   1.231   7.125 -1.5211  1.2700 -1.6680
 8134SOL    HW225019   0.676   1.082   7.151  0.1701  1.5416  0.4261
 8135SOL     OW25020   3.793   4.747   1.639 -0.6041  0.1028 -0.1622
 8135SOL    HW125021   3.760   4.784   1.557  0.2553 -3.3686 -2.2939
 8135SOL    HW225022   3.715   4.710   1.681 -0.7348 -0.1195 -0.5947
 8136SOL     OW25023   1.964   3.016   7.078 -0.2160 -0.5533  0.0532
 8136SOL    HW125024   2.041   3.071   7.068  1.0028 -1.6059  2.7345
 8136SOL    HW225025   1.960   2.965   6.997  1.9533 -0.5297 -0.1216
 8137SOL     OW25026   2.700   2.674   3.168  0.4836 -0.5812  0.6128
 8137SOL    HW125027   2.719   2.683   3.262 -0.5010 -1.5801  0.9270
 8137SOL    HW225028   2.704   2.580   3.151 -0.7691 -0.5370 -0.0265
 8138SOL     OW25029   5.730   4.622   6.232  0.0238  0.0941  0.2869
 8138SOL    HW125030   5.644   4.654   6.258  0.9070  0.5810  2.8633
 8138SOL    HW225031   5.766   4.693   6.178 -0.4914  0.6636  0.6789
 8139SOL     OW25032   6.998   4.703   2.016 -0.5622 -0.2649 -0.0133
 8139SOL    HW125033   6.915   4.700   2.063 -2.5368  2.5824 -2.8387
 8139SOL    HW225034   7.057   4.751   2.074 -1.1390 -1.5472  1.6781
 8140SOL     OW25035   5.137   6.676   4.525  0.1505 -0.1677 -0.3300
 8140SOL    HW125036   5.127   6.759   4.571  0.9299  0.4395 -1.2185
 8140SOL    HW225037   5.182   6.619   4.587 -0.0232  0.2023  0.1447
 8141SOL     OW25038   6.961   1.807   4.080 -0.2589  0.3885  0.0097
 8141SOL    HW125039   6.887   1.845   4.128  0.3356  4.1066 -1.7096
 8141SOL    HW225040   6.920   1.764   4.005 -0.7873  1.2593 -0.2181
 8142SOL     OW25041   1.220   1.304   3.374  0.2755 -0.3116 -0.3676
 8142SOL    HW125042   1.234   1.218   3.333  2.4307 -1.2191  1.9671
 8142SOL    HW225043   1.225   1.286   3.468 -1.1329  2.1336  0.2402
 8143SOL     OW25044   7.077   3.873   3.503  0.5321  0.0206  0.2125
 8143SOL    HW125045   7.002   3.931   3.500  0.5631  0.0378 -0.2406
 8143SOL    HW225046   7.051   3.796   3.451  0.4295 -0.4452  0.9363
 8144SOL     OW25047   7.208   1.770   4.198  0.5447  0.0198 -0.1695
 8144SOL    HW125048   7.224   1.675   4.206 -0.5386 -0.2193 -0.6814
 8144SOL    HW225049   7.134   1.777   4.138  1.1026  1.2425 -0.7574
 8145SOL     OW25050   0.626   3.425   1.374  0.2945  0.1695  0.1548
 8145SOL    HW125051   0.663   3.511   1.355 -1.4214  0.9156 -0.0200
 8145SOL    HW225052   0.622   3.420   1.469  0.2874  0.3375  0.1635
 8146SOL     OW25053   1.012   5.181   2.561  0.2201 -0.0464 -0.0709
 8146SOL    HW125054   0.954   5.164   2.487 -0.1311  1.2396 -0.1243
 8146SOL    HW225055   1.074   5.246   2.528 -0.2441  0.9183  0.8806
 8147SOL     OW25056   1.225   5.402   0.396 -0.4640 -0.0840  0.0052
 8147SOL    HW125057   1.289   5.377   0.463 -0.1829 -0.1742 -0.2938
 8147SOL    HW225058   1.273   5.462   0.338 -0.8070  0.2684  0.0821
 8148SOL     OW25059   6.503   3.625   1.371 -0.0911  0.2974 -0.0273
 8148SOL    HW125060   6.589   3.617   1.413  0.3389  1.2751 -0.6848
 8148SOL    HW225061   6.441   3.631   1.444  0.2754 -1.3048  0.4654
 8149SOL     OW25062   5.209   4.367   0.326 -0.6717  0.5029 -0.1671
 8149SOL    HW125063   5.188   4.274   0.316  0.4436 -0.2429  3.1264
 8149SOL    HW225064   5.297   4.377   0.292 -0.2306 -0.0286  0.7758
 8150SOL     OW25065   4.944   6.778   0.708 -0.1405  0.4266  0.4819
 8150SOL    HW125066   4.960   6.800   0.800 -1.1499 -1.2510  1.1007
 8150SOL    HW225067   4.862   6.824   0.687 -1.2806 -1.2053  1.2244
 8151SOL     OW25068   7.182   3.993   5.375 -0.0926  0.1501 -0.0744
 8151SOL    HW125069   7.205   3.944   5.296 -0.0187 -1.6289  1.0051
 8151SOL    HW225070   7.102   3.951   5.407 -0.8070  1.6172  0.1825
 8152SOL     OW25071   6.548   4.816   1.156 -0.2897 -0.4079 -0.6857
 8152SOL    HW125072   6.626   4.856   1.194 -0.8960 -1.7736  2.2651
 8152SOL    HW225073   6.502   4.889   1.114  1.2591  0.9144 -0.1899
 8153SOL     OW25074   5.366   6.719   2.560 -0.3507 -0.7502 -0.1313
 8153SOL    HW125075   5.453   6.681   2.559 -0.1381 -0.4594  1.8968
 8153SOL    HW225076   5.380   6.809   2.590 -1.3053 -0.5495 -0.2571
 8154SOL     OW25077   3.528   1.130   2.800 -0.0026  0.2301  0.4214
 8154SOL    HW125078   3.463   1.061   2.807 -0.1264  0.0569 -1.7413
 8154SOL    HW225079   3.518   1.181   2.880 -1.2281 -1.1255  1.1687
 8155SOL     OW25080   2.745   2.060   2.207 -0.2553 -0.3793  0.7187
 8155SOL    HW125081   2.758   1.966   2.195  1.5111 -0.0597 -0.1810
 8155SOL    HW225082   2.730   2.071   2.301  1.3240 -1.4061  1.1271
 8156SOL     OW25083   5.063   3.130   2.469  0.2311 -0.1674 -0.2646
 8156SOL    HW125084   4.974   3.124   2.433  0.4478  0.4771 -0.9141
 8156SOL    HW225085   5.104   3.202   2.421  1.2552 -0.7430 -0.2778
 8157SOL     OW25086   5.349   1.661   0.530 -0.0194 -0.0140 -0.8621
 8157SOL    HW125087   5.289   1.712   0.584 -0.3701 -1.1799 -0.1088
 8157SOL    HW225088   5.348   1.705   0.445 -0.0200  1.4256 -0.1437
 8158SOL     OW25089   5.566   0.085   0.149  0.0293 -0.4397  0.1231
 8158SOL    HW125090   5.629   0.108   0.080 -1.9375 -1.6445 -2.2472
 8158SOL    HW225091   5.570  -0.010   0.154  1.8440 -0.3200  3.5559
 8159SOL     OW25092   5.462   6.967   2.018 -0.4000  0.3376  0.2439
 8159SOL    HW125093   5.413   6.966   2.101  0.4491 -2.3250  0.8134
 8159SOL    HW225094   5.529   6.899   2.029  1.1678  1.4307 -1.8367
 8160SOL     OW25095   5.441   3.781   2.291 -0.3032  0.0998  0.1869
 8160SOL    HW125096   5.465   3.698   2.332 -0.3940  0.0612  0.1615
 8160SOL    HW225097   5.483   3.848   2.345  2.0566 -0.0547 -1.3100
 8161SOL     OW25098   5.826   1.816   4.433  0.0822  0.1440  0.0866
 8161SOL    HW125099   5.795   1.786   4.348  0.2584 -2.2671  0.7961
 8161SOL    HW225100   5.804   1.909   4.435 -2.2424 -0.2838 -1.5541
 8162SOL     OW25101   2.957   0.567   1.367  0.0432  0.6459 -0.1039
 8162SOL    HW125102   3.051   0.552   1.358 -0.1029  0.0685 -0.8324
 8162SOL    HW225103   2.919   0.479   1.367 -0.5127  0.8805 -0.0423
 8163SOL     OW25104   3.931   4.813   4.502  0.7443 -0.3660  0.0791
 8163SOL    HW125105   3.905   4.725   4.529  2.0721 -0.8288 -0.0621
 8163SOL    HW225106   3.937   4.809   4.407 -1.1553  0.4759 -0.1293
 8164SOL     OW25107   0.167   2.939   1.640 -0.1786  0.3094  0.4226
 8164SOL    HW125108   0.222   2.973   1.570 -0.0617 -0.9732 -0.1320
 8164SOL    HW225109   0.094   2.895   1.596 -0.1780 -0.3893  1.0854
 8165SOL     OW25110   1.280   3.826   6.807 -0.3758  0.4134 -0.3972
 8165SOL    HW125111   1.280   3.734   6.778  0.4173  0.3630 -0.2841
 8165SOL    HW225112   1.330   3.872   6.739 -1.4456  0.9147 -0.8626
 8166SOL     OW25113   2.801   1.752   5.611 -0.0745 -0.2198 -0.0625
 8166SOL    HW125114   2.810   1.666   5.653 -0.8360 -0.4404 -0.3338
 8166SOL    HW225115   2.891   1.776   5.587  0.2825 -0.4067  1.0442
 8167SOL     OW25116   1.346   5.031   2.659 -0.9533  0.0074 -0.1288
 8167SOL    HW125117   1.314   5.121   2.651 -0.2443  0.1337 -1.8271
 8167SOL    HW225118   1.267   4.977   2.649 -1.1395  0.3939 -0.7491
 8168SOL     OW25119   6.654   1.691   5.207  0.1764 -0.2932 -0.0700
 8168SOL    HW125120   6.580   1.749   5.223  0.6385 -0.0922  1.5026
 8168SOL    HW225121   6.689   1.671   5.294  0.2844 -2.6281 -0.5646
 8169SOL     OW25122   5.598   6.201   3.280 -0.1435  0.7552  0.0920
 8169SOL    HW125123   5.519   6.185   3.229  0.9753  1.3008 -1.8996
 8169SOL    HW225124   5.667   6.214   3.215  1.6705  0.0103  1.7580
 8170SOL     OW25125   1.442   0.321   0.564 -0.4170 -0.0007 -0.0859
 8170SOL    HW125126   1.399   0.240   0.591  0.1354 -0.1314  0.4190
 8170SOL    HW225127   1.483   0.354   0.644 -1.4381  1.2814 -0.0539
 8171SOL     OW25128   2.122   6.575   2.684 -0.0490  0.4281 -0.5669
 8171SOL    HW125129   2.178   6.498   2.669 -0.1858  0.4295 -1.0764
 8171SOL    HW225130   2.149   6.638   2.618  0.1153  0.8528 -0.0985
 8172SOL     OW25131   0.517   3.372   0.443 -0.1099 -0.0412 -0.1497
 8172SOL    HW125132   0.464   3.296   0.464 -0.7084  0.4598  0.2010
 8172SOL    HW225133   0.477   3.407   0.362 -0.7422  0.7063  0.4643
 8173SOL     OW25134   6.551   6.806   6.680 -0.1959  0.0077  0.3155
 8173SOL    HW125135   6.529   6.869   6.612 -0.6429 -0.8201 -0.3224
 8173SOL    HW225136   6.500   6.835   6.756  1.4867  1.8629  0.8599
 8174SOL     OW25137   2.699   0.815   2.976 -0.1491  0.2614 -0.0176
 8174SOL    HW125138   2.610   0.810   3.011 -0.6005 -0.7697 -1.2149
 8174SOL    HW225139   2.732   0.899   3.005 -1.0378  0.0975  1.5618
 8175SOL     OW25140   2.234   3.850   2.828  0.0963  0.7078 -0.0419
 8175SOL    HW125141   2.228   3.861   2.923  1.0139  2.0278 -0.1104
 8175SOL    HW225142   2.243   3.755   2.816  1.1338  0.6101  1.2675
 8176SOL     OW25143   4.791   4.310   0.972 -0.5365  0.3152  0.3449
 8176SOL    HW125144   4.733   4.385   0.962  0.8099  1.1690 -1.5423
 8176SOL    HW225145   4.879   4.346   0.971  0.1588 -1.2768 -0.7699
 8177SOL     OW25146   5.488   3.495   5.419  0.0903 -0.5433  0.1937
 8177SOL    HW125147   5.435   3.500   5.499  0.4495  0.0323  0.4065
 8177SOL    HW225148   5.502   3.586   5.394 -0.6024 -0.7188 -0.9359
 8178SOL     OW25149   4.448   3.187   2.817  0.2021 -0.3441  0.2773
 8178SOL    HW125150   4.386   3.124   2.853 -2.4008  0.6673 -2.0809
 8178SOL    HW225151   4.510   3.133   2.768 -0.4284 -1.2453  0.4404
 8179SOL     OW25152   6.338   1.981   0.836 -0.0665 -0.0863  0.2578
 8179SOL    HW125153   6.392   1.989   0.914  1.3104  0.4044 -0.6972
 8179SOL    HW225154   6.259   2.031   0.856  0.0893 -0.2993  1.4674
 8180SOL     OW25155   5.349   4.171   1.659  0.2987  0.3020 -0.1239
 8180SOL    HW125156   5.330   4.077   1.664  1.2752  0.1571  2.2446
 8180SOL    HW225157   5.409   4.187   1.732 -0.0488  2.8244 -0.3128
 8181SOL     OW25158   0.421   6.622   3.816 -0.3097  0.0752 -0.4034
 8181SOL    HW125159   0.463   6.536   3.826  3.4631  1.7558 -0.1022
 8181SOL    HW225160   0.409   6.631   3.721 -1.1784 -0.9449 -0.4034
 8182SOL     OW25161   3.105   3.168   2.980  0.3339 -0.2041  0.4987
 8182SOL    HW125162   3.023   3.201   3.017  0.5966  0.9131  0.1137
 8182SOL    HW225163   3.114   3.080   3.017 -0.1214  0.3438  1.9597
 8183SOL     OW25164   0.284   4.875   2.989 -0.0177  0.3372  0.9949
 8183SOL    HW125165   0.329   4.867   2.906 -2.5804 -1.6742 -0.3350
 8183SOL    HW225166   0.282   4.969   3.006  1.3678  0.7229 -0.7107
 8184SOL     OW25167   0.802   1.059   4.638  0.1930 -0.2330  0.3791
 8184SOL    HW125168   0.883   1.110   4.642 -0.0831  0.3118 -0.6316
 8184SOL    HW225169   0.750   1.090   4.712  1.0775 -0.9146  1.3107
 8185SOL     OW25170   1.898   0.904   4.175 -0.4297  0.8240 -0.0954
 8185SOL    HW125171   1.891   0.856   4.258 -1.5397  0.2728 -0.4927
 8185SOL    HW225172   1.871   0.841   4.109  0.0340  1.3988 -0.8426
 8186SOL     OW25173   4.794   2.311   5.453 -0.2979  0.1485 -0.0926
 8186SOL    HW125174   4.736   2.337   5.381 -1.0425  1.5958  0.9891
 8186SOL    HW225175   4.798   2.216   5.446 -1.2095  0.1647 -1.3980
 8187SOL     OW25176   4.004   0.242   1.563 -0.2293 -0.4804 -0.5185
 8187SOL    HW125177   4.081   0.209   1.517  2.7065  2.8769  1.5349
 8187SOL    HW225178   4.002   0.193   1.645  0.5942  0.3271  0.0011
 8188SOL     OW25179   5.984   3.099   4.244 -0.0104  0.2620  0.3397
 8188SOL    HW125180   6.050   3.155   4.286  0.1015  0.1281  0.3424
 8188SOL    HW225181   6.032   3.055   4.174  0.1373 -0.5788  0.9546
 8189SOL     OW25182   3.818   5.018   2.477 -0.3268  0.0110 -0.3693
 8189SOL    HW125183   3.745   4.966   2.509  0.0195 -0.9289 -1.0540
 8189SOL    HW225184   3.815   5.007   2.382  0.8837 -0.3077 -0.3883
 8190SOL     OW25185   0.005   2.307   5.001 -0.1786  0.5300  0.5294
 8190SOL    HW125186  -0.029   2.375   5.060 -1.9392  0.2571 -0.0988
 8190SOL    HW225187  -0.013   2.341   4.913  0.6458  0.0714  0.1727
 8191SOL     OW25188   2.834   1.175   5.373 -0.4667 -0.1079  0.0802
 8191SOL    HW125189   2.818   1.155   5.280 -0.0888  0.6413 -0.1583
 8191SOL    HW225190   2.856   1.268   5.373 -0.4946 -0.0978  0.9335
 8192SOL     OW25191   4.700   6.139   1.772 -0.0114  0.0685 -0.3762
 8192SOL    HW125192   4.696   6.156   1.866 -0.6818 -0.0027 -0.3827
 8192SOL    HW225193   4.690   6.044   1.764  0.5645  0.0172 -0.4939
 8193SOL     OW25194   5.800   1.374   6.775  0.3663 -0.1290 -0.2525
 8193SOL    HW125195   5.833   1.410   6.693 -3.5440  1.2696 -1.4074
 8193SOL    HW225196   5.798   1.279   6.760  2.4748 -0.1864 -0.5331
 8194SOL     OW25197   1.615   4.787   0.181 -0.0941 -0.0998  0.0899
 8194SOL    HW125198   1.610   4.822   0.270  1.0660 -1.2268  0.6226
 8194SOL    HW225199   1.707   4.795   0.157 -0.0319 -1.5806 -0.2501
 8195SOL     OW25200   5.920   0.616   0.254 -0.1381 -0.6572  0.5324
 8195SOL    HW125201   5.909   0.680   0.324 -1.1007  1.4061 -1.3776
 8195SOL    HW225202   6.002   0.571   0.275  1.9823  2.9236  0.7966
 8196SOL     OW25203   4.267   5.723   3.414 -0.3442  0.0600 -1.1906
 8196SOL    HW125204   4.210   5.649   3.394  1.4139 -1.0716 -2.2685
 8196SOL    HW225205   4.353   5.696   3.384  0.8399  1.6285  0.5752
 8197SOL     OW25206   0.941   0.702   2.196 -0.1461  0.5466 -0.9754
 8197SOL    HW125207   0.891   0.709   2.277 -0.5448 -2.2295 -0.8912
 8197SOL    HW225208   1.020   0.754   2.212 -0.4087  0.3873  1.0357
 8198SOL     OW25209   4.818   3.385   2.695 -0.4695  0.2877 -0.2537
 8198SOL    HW125210   4.826   3.297   2.734  0.3168  0.1605 -0.6859
 8198SOL    HW225211   4.907   3.409   2.672 -0.7493  0.9849 -0.6317
 8199SOL     OW25212   2.154   0.187   6.254  0.0402  0.4935 -0.7384
 8199SOL    HW125213   2.167   0.114   6.194 -0.3557 -0.1092 -0.1090
 8199SOL    HW225214   2.100   0.151   6.325  0.0276  1.3337 -0.3026
 8200SOL     OW25215   2.094   3.566   4.691 -0.5717 -0.5385 -0.1546
 8200SOL    HW125216   2.068   3.570   4.783  0.5852 -0.7210  0.1886
 8200SOL    HW225217   2.189   3.577   4.692 -0.6125  0.1280 -1.3800
 8201SOL     OW25218   6.272   4.778   6.834  0.2787  0.1667 -0.2853
 8201SOL    HW125219   6.246   4.687   6.838  1.8945 -0.3122  0.0973
 8201SOL    HW225220   6.356   4.781   6.880  1.1913  1.4759 -1.9163
 8202SOL     OW25221   1.113   1.285   1.554  0.0444  0.9159  0.1113
 8202SOL    HW125222   1.106   1.274   1.459  2.5649  4.0188 -0.6178
 8202SOL    HW225223   1.202   1.257   1.575 -0.1784  1.1143  1.4307
 8203SOL     OW25224   1.281   2.958   2.064  0.8390 -0.2580 -0.7743
 8203SOL    HW125225   1.361   2.909   2.086  1.2448  1.0558  0.8217
 8203SOL    HW225226   1.235   2.968   2.147  0.6796  1.8667 -1.0732
 8204SOL     OW25227   2.469   0.468   1.972  0.1480 -0.7167 -0.1960
 8204SOL    HW125228   2.377   0.474   2.000  0.0984 -1.8238 -0.0584
 8204SOL    HW225229   2.478   0.535   1.904  0.1844  1.8945  2.1759
 8205SOL     OW25230   1.403   2.162   2.854 -0.1983  0.0769 -0.0198
 8205SOL    HW125231   1.452   2.244   2.850 -0.3611  0.1946  0.3069
 8205SOL    HW225232   1.436   2.110   2.781 -0.9818  0.9270 -1.0183
 8206SOL     OW25233   6.431   4.159   0.939 -0.5257  0.2810 -0.1774
 8206SOL    HW125234   6.490   4.222   0.898  0.1056  0.8655  1.5309
 8206SOL    HW225235   6.395   4.108   0.866  0.3076  1.4477 -1.4433
 8207SOL     OW25236   7.062   2.955   1.537 -0.0537  0.1348 -0.3793
 8207SOL    HW125237   7.130   2.889   1.525  0.3729  0.4438  0.2671
 8207SOL    HW225238   7.088   3.027   1.479  1.4996  1.2416  1.5598
 8208SOL     OW25239   4.992   5.352   1.485 -0.5854 -0.8270 -0.5122
 8208SOL    HW125240   5.071   5.298   1.486 -0.3725 -0.5383  1.1315
 8208SOL    HW225241   4.977   5.374   1.577 -1.2219  1.1213 -1.0353
 8209SOL     OW25242   6.344   1.898   6.621  0.3983  0.0968 -0.6954
 8209SOL    HW125243   6.336   1.835   6.549 -0.0966  0.5864 -1.0673
 8209SOL    HW225244   6.292   1.973   6.594 -0.5062 -0.0497  0.5530
 8210SOL     OW25245   6.345   2.050   1.475 -0.1948 -0.3196 -0.2514
 8210SOL    HW125246   6.380   1.966   1.506 -0.4017  0.1787  1.4357
 8210SOL    HW225247   6.422   2.104   1.458 -0.0849 -0.3100  0.2679
 8211SOL     OW25248   0.719   3.036   5.162 -0.1872 -0.1653 -0.1102
 8211SOL    HW125249   0.630   3.039   5.126 -0.8032 -0.9966  1.2696
 8211SOL    HW225250   0.753   2.950   5.134  0.5180  0.4861 -1.3354
 8212SOL     OW25251   3.598   5.736   2.015 -0.1855 -0.3636  0.1560
 8212SOL    HW125252   3.518   5.764   1.971 -0.6971 -0.6985  0.8555
 8212SOL    HW225253   3.570   5.709   2.103  0.3025 -2.6600 -0.3064
 8213SOL     OW25254   2.849   6.361   3.258 -0.0887  0.0487 -0.1953
 8213SOL    HW125255   2.916   6.429   3.260  0.3228 -0.3544  1.9912
 8213SOL    HW225256   2.781   6.395   3.199  0.9952  1.4465 -0.6808
 8214SOL     OW25257   4.538   2.011   5.530 -0.0061 -0.0409  0.9121
 8214SOL    HW125258   4.484   2.089   5.542 -1.0774 -0.3505 -1.4261
 8214SOL    HW225259   4.509   1.952   5.599 -3.7418 -0.6997 -0.9621
 8215SOL     OW25260   5.676   0.277   3.355  0.3539  0.0752  0.5653
 8215SOL    HW125261   5.688   0.241   3.267  0.5670  2.7404 -0.5890
 8215SOL    HW225262   5.764   0.281   3.392  1.0322  3.3221 -1.0517
 8216SOL     OW25263   6.252   2.395   6.847 -0.1365  0.0609 -0.0523
 8216SOL    HW125264   6.249   2.301   6.865 -0.4586  0.1860  0.5503
 8216SOL    HW225265   6.318   2.403   6.777  0.2954 -0.5513  0.2701
 8217SOL     OW25266   5.556   4.555   5.786 -0.2403  0.1159  0.2838
 8217SOL    HW125267   5.615   4.564   5.712  0.7561  0.6285  1.1251
 8217SOL    HW225268   5.470   4.579   5.751  0.1463 -0.0153 -0.7918
 8218SOL     OW25269   1.039   6.440   2.602  0.2873  0.3408 -0.0790
 8218SOL    HW125270   1.081   6.526   2.599 -0.0418  0.4815 -1.4892
 8218SOL    HW225271   0.951   6.457   2.635 -0.4728  0.8925 -2.2491
 8219SOL     OW25272   2.994   4.631   2.480 -0.1802  0.1373  0.3438
 8219SOL    HW125273   2.979   4.559   2.418 -2.7201  1.0727 -0.2167
 8219SOL    HW225274   3.004   4.588   2.565  3.3038 -1.1729 -0.5575
 8220SOL     OW25275   7.174   4.511   0.980 -0.1139 -0.0602  0.3139
 8220SOL    HW125276   7.230   4.569   1.031 -0.1342 -0.2889  0.5978
 8220SOL    HW225277   7.133   4.454   1.045  0.7748 -1.1539 -0.0388
 8221SOL     OW25278   0.312   7.042   5.528  0.0818  0.1665 -0.5278
 8221SOL    HW125279   0.285   7.016   5.616 -0.1448  1.5918 -0.1473
 8221SOL    HW225280   0.238   7.020   5.473 -0.7963  1.4827  0.0627
 8222SOL     OW25281   1.521   1.260   2.095 -0.1965  0.2188  0.1076
 8222SOL    HW125282   1.511   1.241   2.188  1.6845  0.7589  0.4594
 8222SOL    HW225283   1.560   1.347   2.092  4.7406 -1.6450 -0.8387
 8223SOL     OW25284   0.454   1.547   3.766 -0.3169  0.0400  0.1203
 8223SOL    HW125285   0.520   1.609   3.735  0.4741 -2.0262 -2.8370
 8223SOL    HW225286   0.371   1.595   3.762  0.4748  1.4325 -0.2476
 8224SOL     OW25287   2.893   0.737   4.109  0.6298 -0.6599  0.1702
 8224SOL    HW125288   2.974   0.699   4.075 -0.5034 -2.5861 -0.5581
 8224SOL    HW225289   2.875   0.811   4.052 -0.0927 -2.5565 -2.2847
 8225SOL     OW25290   5.489   3.313   4.107 -0.0093  0.7272 -0.3801
 8225SOL    HW125291   5.492   3.381   4.040 -0.6606 -0.0998 -1.2800
 8225SOL    HW225292   5.569   3.262   4.093 -2.5196 -2.8956 -4.4048
 8226SOL     OW25293   1.748   3.490   6.141  0.2582 -0.1665  0.6108
 8226SOL    HW125294   1.799   3.487   6.061  0.4274 -0.4371  0.7290
 8226SOL    HW225295   1.706   3.404   6.146 -0.2329  0.0637  0.4968
 8227SOL     OW25296   2.049   2.697   3.757  0.1581  0.1974 -1.0079
 8227SOL    HW125297   2.079   2.624   3.703  1.7758  0.4030 -0.4655
 8227SOL    HW225298   2.051   2.773   3.699 -1.9174 -0.2164 -1.6825
 8228SOL     OW25299   3.534   3.790   3.479 -0.3620  0.1194  0.4042
 8228SOL    HW125300   3.481   3.869   3.488 -0.7294 -0.1147  0.3234
 8228SOL    HW225301   3.487   3.724   3.530  0.1569  0.0541  0.8065
 8229SOL     OW25302   3.644   6.608   1.934  0.1813  0.0014  0.2534
 8229SOL    HW125303   3.682   6.548   1.999  2.1390 -1.3199 -1.9546
 8229SOL    HW225304   3.720   6.655   1.898 -0.7231  0.2007 -1.4995
 8230SOL     OW25305   4.169   5.175   0.516 -0.1214 -0.2590  0.0066
 8230SOL    HW125306   4.114   5.185   0.437 -0.7347 -0.0694  0.4502
 8230SOL    HW225307   4.198   5.084   0.513  0.0451 -0.1948 -0.5578
 8231SOL     OW25308   1.041   3.347   5.105 -0.0899  0.0941  0.6199
 8231SOL    HW125309   1.108   3.411   5.081 -0.4057  0.6760  1.2484
 8231SOL    HW225310   1.075   3.306   5.185  0.0077 -0.3743  0.3426
 8232SOL     OW25311   6.711   6.320   5.038 -0.2828 -0.1215  0.1563
 8232SOL    HW125312   6.763   6.311   5.117  0.9784  0.1176 -0.6139
 8232SOL    HW225313   6.631   6.364   5.067 -0.6605 -1.6481  1.5884
 8233SOL     OW25314   4.148   5.128   5.236  0.3215 -0.3738  0.1617
 8233SOL    HW125315   4.134   5.066   5.308  0.0168 -1.2481 -0.6217
 8233SOL    HW225316   4.181   5.074   5.164 -0.1858  0.3284 -0.6219
 8234SOL     OW25317   5.242   2.929   3.614 -0.1548  0.3917 -0.0627
 8234SOL    HW125318   5.309   2.994   3.593 -0.1876  0.6014  0.4603
 8234SOL    HW225319   5.255   2.912   3.707 -0.0906 -0.4237 -0.2196
 8235SOL     OW25320   5.618   0.129   2.724  0.3198 -0.1629 -0.0331
 8235SOL    HW125321   5.642   0.217   2.754 -0.2110 -0.8360  2.6222
 8235SOL    HW225322   5.546   0.143   2.662  0.4513  1.2698  0.1047
 8236SOL     OW25323   1.779   2.298   4.821  0.2974  0.2128 -0.5223
 8236SOL    HW125324   1.762   2.363   4.889  0.5832 -0.5879  0.3471
 8236SOL    HW225325   1.864   2.324   4.784  0.7940 -0.0899  0.3617
 8237SOL     OW25326   1.162   1.755   0.093 -0.2683  0.4464 -0.2692
 8237SOL    HW125327   1.170   1.664   0.121  0.9146  0.3843 -0.7245
 8237SOL    HW225328   1.253   1.784   0.081 -0.1863  3.2464  4.6666
 8238SOL     OW25329   3.707   4.139   0.188  0.1966  0.3231  0.2561
 8238SOL    HW125330   3.617   4.114   0.207  0.6784 -0.3316  1.8388
 8238SOL    HW225331   3.732   4.196   0.260  0.2120  2.8301 -1.5780
 8239SOL     OW25332   5.823   3.074   0.923 -0.2239  0.2301 -0.1989
 8239SOL    HW125333   5.807   3.161   0.959  0.9664  0.3957 -0.0270
 8239SOL    HW225334   5.810   3.014   0.996 -0.1013  0.3540 -0.0756
 8240SOL     OW25335   6.069   0.269   4.371  0.1007 -0.2756 -0.5465
 8240SOL    HW125336   5.975   0.254   4.366 -0.1760  1.5177 -1.5949
 8240SOL    HW225337   6.090   0.259   4.464 -0.8314 -2.0846 -0.4919
 8241SOL     OW25338   3.046   2.130   5.098  0.1707 -0.0462  0.0280
 8241SOL    HW125339   3.008   2.043   5.083  0.4463 -0.2145  0.2921
 8241SOL    HW225340   3.131   2.112   5.139 -0.2584  0.3771  1.1235
 8242SOL     OW25341   2.096   1.545   3.671 -0.0943 -0.6080  0.0483
 8242SOL    HW125342   2.126   1.492   3.598  1.6704  0.2122  0.1085
 8242SOL    HW225343   2.077   1.482   3.740 -0.6307 -1.3123 -0.7256
 8243SOL     OW25344   5.887   3.921   5.770 -0.5733  0.3412  0.1548
 8243SOL    HW125345   5.844   4.006   5.782 -1.2755  0.2940 -1.6916
 8243SOL    HW225346   5.968   3.942   5.724  0.4649  0.2178  1.8436
 8244SOL     OW25347   3.924   1.608   2.364  0.2561 -0.1715  0.4488
 8244SOL    HW125348   3.930   1.542   2.295  1.1126 -2.4912  2.5873
 8244SOL    HW225349   4.007   1.656   2.357  0.5455 -0.6988  0.1861
 8245SOL     OW25350   1.219   3.842   2.860  0.7455  0.0470  0.3308
 8245SOL    HW125351   1.290   3.865   2.920 -1.1783 -0.4174  2.9782
 8245SOL    HW225352   1.206   3.748   2.872  0.6042 -0.1625 -1.2331
 8246SOL     OW25353   0.275   5.901   6.131  0.5747  0.2738 -0.1758
 8246SOL    HW125354   0.323   5.932   6.054 -0.6204 -1.7922 -1.8938
 8246SOL    HW225355   0.208   5.843   6.094  0.8638 -1.9660  2.5209
 8247SOL     OW25356   5.755   7.052   2.461  0.0920  0.1337 -0.2626
 8247SOL    HW125357   5.739   7.074   2.553 -1.1009  0.9121 -0.6426
 8247SOL    HW225358   5.725   7.128   2.412 -0.3625 -0.7415 -1.3763
 8248SOL     OW25359   4.294   2.647   0.977 -0.0834 -0.2624  0.1876
 8248SOL    HW125360   4.210   2.605   0.957 -0.0414 -0.3106  0.1136
 8248SOL    HW225361   4.299   2.720   0.916 -0.3298  0.0782  0.5654
 8249SOL     OW25362   7.178   0.703   0.075  0.4950 -0.0012 -0.9357
 8249SOL    HW125363   7.250   0.645   0.100 -0.7457 -0.9120  0.7263
 8249SOL    HW225364   7.154   0.749   0.155 -2.2680 -1.4740 -0.7892
 8250SOL     OW25365   6.451   0.337   0.167  0.2807  0.2572  0.1142
 8250SOL    HW125366   6.448   0.432   0.154  1.7114  0.2554 -0.3685
 8250SOL    HW225367   6.385   0.303   0.106  0.9936  0.8381 -1.0255
 8251SOL     OW25368   4.569   4.908   3.874  0.3638 -0.0962 -0.3323
 8251SOL    HW125369   4.627   4.910   3.797 -0.2930  0.1734 -0.8299
 8251SOL    HW225370   4.539   4.818   3.880  1.7128 -0.5065  0.6068
 8252SOL     OW25371   5.934   3.424   1.766 -1.1569 -0.0517  0.2964
 8252SOL    HW125372   5.965   3.354   1.710  1.9245  1.0585  0.4583
 8252SOL    HW225373   5.883   3.480   1.708 -0.6965 -0.5840 -0.6452
 8253SOL     OW25374   3.924   3.711   6.925  0.0656  0.4711 -0.3420
 8253SOL    HW125375   3.829   3.713   6.934  0.0153  0.2897 -0.7838
 8253SOL    HW225376   3.954   3.792   6.967 -0.0456 -0.7388  2.2399
 8254SOL     OW25377   2.567   5.216   5.687 -0.0263 -0.0790  0.8354
 8254SOL    HW125378   2.571   5.122   5.670 -0.9629 -0.0042  0.0883
 8254SOL    HW225379   2.652   5.249   5.659 -0.0869 -0.5592  0.0550
 8255SOL     OW25380   1.815   3.325   3.921 -0.2784  0.4451  0.0246
 8255SOL    HW125381   1.774   3.411   3.926  1.1004  1.1087  0.3431
 8255SOL    HW225382   1.884   3.335   3.856  1.2270  0.1793  1.5062
 8256SOL     OW25383   3.585   1.511   3.945 -0.0107  0.1998  0.0938
 8256SOL    HW125384   3.569   1.420   3.970  0.4802 -0.4066 -1.6392
 8256SOL    HW225385   3.660   1.507   3.886  0.8794  1.9060  1.0170
 8257SOL     OW25386   1.877   4.613   5.144  0.0231 -0.7289  0.1918
 8257SOL    HW125387   1.949   4.674   5.131 -0.6236  0.0162  0.0665
 8257SOL    HW225388   1.902   4.562   5.221 -0.2982  1.0172  1.5202
 8258SOL     OW25389   4.779   1.877   5.237  0.7539 -0.1560 -0.7320
 8258SOL    HW125390   4.688   1.892   5.263  1.4290  1.9178  0.7197
 8258SOL    HW225391   4.803   1.956   5.188  1.7899 -0.6617 -1.0539
 8259SOL     OW25392   5.988   3.407   4.904  0.1349  0.1308 -0.0080
 8259SOL    HW125393   5.908   3.456   4.886  1.1746  1.6675 -0.6537
 8259SOL    HW225394   5.958   3.320   4.928 -1.7111  0.5372 -0.6838
 8260SOL     OW25395   5.341   4.369   0.784  0.0025 -0.4512 -0.8360
 8260SOL    HW125396   5.398   4.296   0.760  0.0787 -0.9006  0.6361
 8260SOL    HW225397   5.380   4.407   0.862 -1.5186 -0.5700  0.0335
 8261SOL     OW25398   4.565   2.048   1.108 -0.8225  0.1457  0.0319
 8261SOL    HW125399   4.488   2.003   1.073 -0.3731  0.6140 -1.6993
 8261SOL    HW225400   4.581   2.119   1.045  0.7681  0.3072  0.5721
 8262SOL     OW25401   3.939   4.611   3.518  0.4805 -0.3574 -0.4330
 8262SOL    HW125402   4.025   4.649   3.532  0.5398 -0.6996  0.1331
 8262SOL    HW225403   3.956   4.519   3.498  0.2540 -0.4117 -0.3787
 8263SOL     OW25404   4.153   6.789   3.208 -0.1883  0.7240 -0.2890
 8263SOL    HW125405   4.132   6.859   3.146 -1.4593  0.0027 -0.6962
 8263SOL    HW225406   4.209   6.729   3.158 -1.2993  0.0873 -0.8030
 8264SOL     OW25407   2.373   4.450   5.160  0.0663  0.5249  0.0955
 8264SOL    HW125408   2.312   4.455   5.086  2.2962 -0.2620 -1.9221
 8264SOL    HW225409   2.375   4.538   5.196 -1.0912  0.9280 -0.7693
 8265SOL     OW25410   6.335   2.544   3.233  0.3816  0.8467 -0.4559
 8265SOL    HW125411   6.389   2.587   3.167  0.3506 -0.5655 -1.4419
 8265SOL    HW225412   6.327   2.454   3.202 -0.9837  0.5613  0.6517
 8266SOL     OW25413   2.135   0.995   6.575 -0.4773  0.0631 -0.1193
 8266SOL    HW125414   2.153   1.034   6.489 -0.7484  2.2497  0.7607
 8266SOL    HW225415   2.143   0.901   6.560 -4.2854  0.0081 -3.4651
 8267SOL     OW25416   4.250   2.631   1.476 -0.0800  0.5798  0.1906
 8267SOL    HW125417   4.229   2.568   1.407  1.7095  3.2480 -3.0878
 8267SOL    HW225418   4.343   2.650   1.464  0.0925  1.8549  2.8108
 8268SOL     OW25419   7.077   2.967   4.757 -0.4220 -0.3030  0.1218
 8268SOL    HW125420   7.131   2.974   4.678 -0.7676 -0.2743 -0.1194
 8268SOL    HW225421   7.117   3.027   4.820 -0.3557 -0.0471 -0.1616
 8269SOL     OW25422   1.512   2.917   0.054 -0.1001 -0.0774  0.4545
 8269SOL    HW125423   1.539   2.910   0.145  0.4123 -1.1044  0.2406
 8269SOL    HW225424   1.493   2.827   0.028 -2.8527  0.4500  0.3065
 8270SOL     OW25425   4.421   6.641   7.099  0.1933  0.8820  0.8007
 8270SOL    HW125426   4.347   6.591   7.134 -0.0436  1.5282  1.2370
 8270SOL    HW225427   4.489   6.633   7.166  0.6235  0.0782  0.2876
 8271SOL     OW25428   3.177   0.801   6.070  0.8040  0.5746 -0.1071
 8271SOL    HW125429   3.147   0.739   6.004  1.2268  0.2625 -0.0059
 8271SOL    HW225430   3.185   0.749   6.150  1.2169  0.7459 -0.0371
 8272SOL     OW25431   0.713   2.266   7.185  0.1949 -0.4784 -0.1021
 8272SOL    HW125432   0.666   2.197   7.232 -1.1815 -0.5190 -1.4643
 8272SOL    HW225433   0.730   2.228   7.098  0.4914  0.4674 -0.4665
 8273SOL     OW25434   6.960   6.976   0.426 -0.0901  0.2937 -0.4270
 8273SOL    HW125435   6.932   7.025   0.349  1.1840  1.0860 -0.4077
 8273SOL    HW225436   6.993   7.042   0.487  1.2698 -0.5185 -0.2307
 8274SOL     OW25437   2.892   1.401   4.104  0.4941  0.0273  0.1446
 8274SOL    HW125438   2.973   1.353   4.117 -0.0106 -1.1522 -0.8598
 8274SOL    HW225439   2.854   1.364   4.024 -1.2217  0.2457  0.7991
 8275SOL     OW25440   5.905   0.797   7.113 -0.6225  0.4634  0.4463
 8275SOL    HW125441   5.869   0.767   7.197 -2.0054  1.6471  0.3079
 8275SOL    HW225442   5.828   0.820   7.061  0.1309 -1.3915 -1.6359
 8276SOL     OW25443   5.170   6.481   3.266  0.1649  0.1955 -0.2339
 8276SOL    HW125444   5.109   6.513   3.199  0.3852  0.7714 -0.1571
 8276SOL    HW225445   5.204   6.399   3.229 -1.0881 -0.4340 -0.0199
 8277SOL     OW25446   2.859   1.593   2.399 -0.8276 -0.5402  0.1989
 8277SOL    HW125447   2.800   1.532   2.356 -0.8974 -0.3734  0.0611
 8277SOL    HW225448   2.936   1.540   2.421 -0.0271 -0.2323 -1.7287
 8278SOL     OW25449   6.433   2.944   0.098  0.4199 -0.2141 -0.3853
 8278SOL    HW125450   6.341   2.939   0.125  0.0461 -2.9548 -1.7414
 8278SOL    HW225451   6.478   2.881   0.154  1.7446  1.7555  0.8911
 8279SOL     OW25452   4.683   5.339   2.594 -0.2493  0.1852  0.2967
 8279SOL    HW125453   4.716   5.306   2.510  0.2524 -0.0133  0.5665
 8279SOL    HW225454   4.610   5.396   2.571 -1.1748 -1.1400 -0.1963
 8280SOL     OW25455   2.519   6.663   6.120  0.1860  0.1437 -0.0422
 8280SOL    HW125456   2.599   6.681   6.071 -0.0485 -0.6076 -0.7052
 8280SOL    HW225457   2.456   6.728   6.088 -0.3064 -1.0514 -1.5817
 8281SOL     OW25458   6.572   4.842   6.640 -0.5970 -0.7002  0.2751
 8281SOL    HW125459   6.568   4.888   6.724  1.9056 -0.0930  0.1384
 8281SOL    HW225460   6.637   4.774   6.654  1.0936  0.4446 -1.5828
 8282SOL     OW25461   2.815   0.144   6.669  0.5927 -0.0214 -0.3878
 8282SOL    HW125462   2.756   0.206   6.712  0.8749 -1.3418  2.0355
 8282SOL    HW225463   2.760   0.068   6.650  0.9941 -0.3434 -0.2696
 8283SOL     OW25464   3.201   2.247   4.758 -0.1255 -0.1268 -0.5669
 8283SOL    HW125465   3.297   2.247   4.760  0.0184 -0.2290 -3.3126
 8283SOL    HW225466   3.177   2.156   4.776  0.0999  0.2817  2.2501
 8284SOL     OW25467   1.735   1.594   4.013 -0.0313  0.4626 -0.1116
 8284SOL    HW125468   1.793   1.666   4.036 -1.4970  1.9926 -0.9856
 8284SOL    HW225469   1.731   1.540   4.092  0.8029  1.5514  0.6982
 8285SOL     OW25470   0.756   1.501   0.488 -0.0677 -0.8530 -0.4795
 8285SOL    HW125471   0.757   1.448   0.567  2.2253  0.4105  0.4693
 8285SOL    HW225472   0.670   1.543   0.488 -0.5957 -1.8715  0.6166
 8286SOL     OW25473   3.589   5.001   1.889  0.5184 -0.1942  0.1832
 8286SOL    HW125474   3.520   5.067   1.882  1.0963  0.5345  1.1857
 8286SOL    HW225475   3.670   5.051   1.891  1.0384 -1.0106 -0.2690
 8287SOL     OW25476   3.134   1.254   2.194  0.0438 -0.1480  0.0507
 8287SOL    HW125477   3.188   1.193   2.244  2.3625  0.9783 -0.9455
 8287SOL    HW225478   3.175   1.339   2.207 -2.1382  0.9728  0.0773
 8288SOL     OW25479   6.613   4.307   0.607  0.7132  0.4986  0.6012
 8288SOL    HW125480   6.693   4.360   0.612  1.0635  0.2036 -1.2940
 8288SOL    HW225481   6.645   4.217   0.604  0.1820  0.2333  2.1288
 8289SOL     OW25482   3.828   4.513   1.883 -0.6331 -0.3689  0.2062
 8289SOL    HW125483   3.853   4.431   1.842  1.5520  0.1484  0.3654
 8289SOL    HW225484   3.878   4.515   1.965  1.2864  2.1266 -0.8853
 8290SOL     OW25485   2.923   1.332   1.226  0.8501 -0.2209  0.0784
 8290SOL    HW125486   2.951   1.335   1.134  2.7703 -0.6518  0.5882
 8290SOL    HW225487   2.838   1.289   1.224 -0.2321  1.8071 -1.6854
 8291SOL     OW25488   6.162   6.733   5.873  0.0486  0.0581 -0.1804
 8291SOL    HW125489   6.118   6.674   5.812  0.8576  0.8062 -1.5388
 8291SOL    HW225490   6.113   6.724   5.955  0.6004 -3.0940 -0.0514
 8292SOL     OW25491   1.168   3.195   6.410  0.2618  0.2218 -0.1175
 8292SOL    HW125492   1.256   3.173   6.379  1.1126  1.2779  1.4241
 8292SOL    HW225493   1.111   3.179   6.335  1.5140 -2.1216 -0.6426
 8293SOL     OW25494   7.001   5.301   3.408  0.3266 -0.0147 -0.2528
 8293SOL    HW125495   6.986   5.380   3.355 -0.2060  0.9204  1.2214
 8293SOL    HW225496   7.089   5.274   3.385  1.1254  1.9227  0.2664
 8294SOL     OW25497   2.322   6.004   2.820 -0.1025 -0.3153 -0.2582
 8294SOL    HW125498   2.373   6.015   2.740  0.3812 -0.9593 -0.0470
 8294SOL    HW225499   2.288   6.092   2.840 -0.3965 -0.1881 -1.2697
 8295SOL     OW25500   0.172   0.218   7.169 -0.0267 -0.5954  0.0545
 8295SOL    HW125501   0.210   0.263   7.244 -0.3186  0.8300 -0.5989
 8295SOL    HW225502   0.100   0.167   7.205  1.3470 -1.8984  1.0521
 8296SOL     OW25503   3.208   4.214   2.076  0.1915  0.0422 -0.0984
 8296SOL    HW125504   3.203   4.305   2.046 -0.5791 -0.6254 -2.1737
 8296SOL    HW225505   3.122   4.196   2.114  0.1660  0.0388 -0.1572
 8297SOL     OW25506   3.024   4.521   7.197 -0.0282 -0.2534 -0.1377
 8297SOL    HW125507   3.049   4.563   7.115 -0.4130  0.6834  0.2163
 8297SOL    HW225508   3.100   4.533   7.254 -0.5552  0.9995  0.3389
 8298SOL     OW25509   1.151   7.223   3.889  0.2861  0.3166 -0.1925
 8298SOL    HW125510   1.061   7.198   3.870  0.2629  0.3376 -0.1140
 8298SOL    HW225511   1.203   7.186   3.818  0.4310 -1.1229  0.6354
 8299SOL     OW25512   4.057   2.180   0.097  0.2463  0.2211  0.2509
 8299SOL    HW125513   4.123   2.114   0.119  0.7007  0.7541  0.4813
 8299SOL    HW225514   3.996   2.133   0.038  0.6926 -0.3360  0.2219
 8300SOL     OW25515   3.568   2.496   6.068  0.3952 -0.1140  0.4279
 8300SOL    HW125516   3.610   2.521   6.150  0.2888 -0.7620  0.6874
 8300SOL    HW225517   3.586   2.403   6.059 -1.6487 -0.6194  0.9597
 8301SOL     OW25518   4.058   5.641   5.051  0.2586 -0.4344  0.2527
 8301SOL    HW125519   4.084   5.550   5.044  0.7996 -0.3191  0.7349
 8301SOL    HW225520   4.087   5.668   5.138  0.3276  0.2694  0.0173
 8302SOL     OW25521   0.180   4.651   4.887 -0.7353 -0.7160 -0.2120
 8302SOL    HW125522   0.087   4.660   4.907 -0.8901 -2.3907  0.0083
 8302SOL    HW225523   0.188   4.561   4.853  1.1793 -1.5509  2.1325
 8303SOL     OW25524   1.458   0.931   4.679 -0.0263 -0.3712  0.1830
 8303SOL    HW125525   1.484   0.920   4.587  0.4071  0.1046  0.2456
 8303SOL    HW225526   1.395   0.860   4.694  0.0789 -0.6023 -0.4111
 8304SOL     OW25527   0.017   4.523   4.622 -0.2044 -0.4226  0.6096
 8304SOL    HW125528   0.028   4.481   4.537  1.2028  0.5296  0.2945
 8304SOL    HW225529   0.093   4.493   4.674  1.7996  2.8767 -0.1602
 8305SOL     OW25530   0.912   0.615   6.642 -0.5209  0.2707  0.7250
 8305SOL    HW125531   1.003   0.587   6.649  0.0913  2.3625  2.1014
 8305SOL    HW225532   0.879   0.613   6.732 -1.2818  1.1947  0.4854
 8306SOL     OW25533   5.902   3.039   0.667 -0.2240  0.6777 -0.5517
 8306SOL    HW125534   5.991   3.006   0.677 -0.1093  0.9566 -0.6158
 8306SOL    HW225535   5.874   3.060   0.756 -0.2097  0.6292 -0.5358
 8307SOL     OW25536   4.169   1.610   3.444 -0.2114 -0.5285  0.5690
 8307SOL    HW125537   4.237   1.554   3.480  0.4574 -0.0752  0.0315
 8307SOL    HW225538   4.087   1.565   3.465  0.3056 -1.6508  0.2411
 8308SOL     OW25539   0.080   4.507   4.365 -0.0046  0.0954  0.2433
 8308SOL    HW125540   0.173   4.494   4.348  0.2364  0.3806  1.2937
 8308SOL    HW225541   0.067   4.602   4.361 -0.7940 -0.0176 -2.4666
 8309SOL     OW25542   4.862   7.185   5.320 -1.2072  0.7309 -0.3592
 8309SOL    HW125543   4.954   7.209   5.332 -1.2681  0.2514  1.2856
 8309SOL    HW225544   4.821   7.266   5.290 -0.2410  0.9240 -1.2291
 8310SOL     OW25545   7.082   3.009   0.375 -0.2928  0.1444  0.2819
 8310SOL    HW125546   7.060   2.943   0.441 -0.2245 -1.2191 -1.0084
 8310SOL    HW225547   7.099   2.959   0.296  2.8489  1.4693 -0.0120
 8311SOL     OW25548   5.998   2.535   1.628  0.3787 -0.3894  0.3225
 8311SOL    HW125549   5.923   2.490   1.591  0.3977 -0.7142  0.6668
 8311SOL    HW225550   5.966   2.623   1.650  0.3156 -0.2633 -0.2626
 8312SOL     OW25551   3.079   6.624   5.417 -0.1338  0.9030  0.5511
 8312SOL    HW125552   3.137   6.566   5.368 -0.5753  1.0553 -0.1632
 8312SOL    HW225553   3.111   6.712   5.399  0.2732  0.9185  1.2932
 8313SOL     OW25554   5.564   3.846   4.639 -0.7011  0.3451  0.4252
 8313SOL    HW125555   5.586   3.881   4.726 -0.2756  0.6688  0.1945
 8313SOL    HW225556   5.469   3.853   4.634 -0.6473  1.2806  0.4780
 8314SOL     OW25557   0.125   2.833   3.307  0.6124 -0.0869  0.1143
 8314SOL    HW125558   0.177   2.912   3.318  3.1324 -1.6805  0.5193
 8314SOL    HW225559   0.181   2.774   3.256 -1.1535 -1.6328 -0.1665
 8315SOL     OW25560   0.297   2.663   2.272  0.4951  0.4443  0.2717
 8315SOL    HW125561   0.364   2.716   2.315  0.6454 -0.6978  1.5000
 8315SOL    HW225562   0.245   2.627   2.344 -0.6882  0.3244 -0.6159
 8316SOL     OW25563   0.489   6.715   4.344  0.1711 -0.2893  0.1000
 8316SOL    HW125564   0.521   6.680   4.261  0.3084 -0.0148  0.0408
 8316SOL    HW225565   0.407   6.667   4.359 -0.3105  0.2831 -0.6306
 8317SOL     OW25566   6.093   6.971   5.228 -0.6504  0.2154  0.3461
 8317SOL    HW125567   6.072   6.879   5.244  0.1875 -0.0096  0.1847
 8317SOL    HW225568   6.171   6.969   5.173 -0.9735  1.0250 -0.1553
 8318SOL     OW25569   2.727   6.628   5.942 -0.2357 -0.1597 -0.2770
 8318SOL    HW125570   2.750   6.553   5.887 -1.0957 -1.6810  1.3043
 8318SOL    HW225571   2.810   6.671   5.961  0.3567 -1.0374 -0.8052
 8319SOL     OW25572   5.750   3.034   5.903 -0.2296  0.2721  0.6419
 8319SOL    HW125573   5.739   3.123   5.937 -1.3180  0.1312  0.6821
 8319SOL    HW225574   5.832   3.037   5.854 -2.6446  2.7677 -3.9112
 8320SOL     OW25575   0.050   4.521   1.682  0.0782  0.2317  0.1157
 8320SOL    HW125576   0.047   4.530   1.586  0.5874  2.1455  0.2466
 8320SOL    HW225577  -0.031   4.563   1.712 -0.2513 -0.6814  0.5178
 8321SOL     OW25578   0.903   1.919   0.580 -0.2945  0.1214 -0.4145
 8321SOL    HW125579   0.816   1.927   0.619 -0.6041 -1.3542 -0.7378
 8321SOL    HW225580   0.887   1.887   0.491  0.5250  1.0971 -0.9276
 8322SOL     OW25581   2.739   5.844   3.776 -0.0800  0.5679 -0.6937
 8322SOL    HW125582   2.719   5.897   3.852  1.2529 -0.7832  0.6569
 8322SOL    HW225583   2.806   5.893   3.729  0.1940  0.7070 -0.1627
 8323SOL     OW25584   4.021   3.359   1.781  0.0472 -0.5344 -0.0635
 8323SOL    HW125585   3.951   3.358   1.846  0.0158  0.1072 -0.0840
 8323SOL    HW225586   4.026   3.269   1.750  0.2831 -0.9273  1.0636
 8324SOL     OW25587   6.277   5.242   4.591 -0.5028  0.5166 -0.1246
 8324SOL    HW125588   6.191   5.279   4.609 -0.4099  0.3374  0.7026
 8324SOL    HW225589   6.278   5.158   4.636 -0.3846 -0.1061 -1.2570
 8325SOL     OW25590   6.053   4.071   2.099 -0.3982  0.1069 -0.0007
 8325SOL    HW125591   6.099   3.996   2.060  1.3123  0.9805  0.2398
 8325SOL    HW225592   5.986   4.094   2.035 -0.7722 -1.4407 -0.2085
 8326SOL     OW25593   2.709   4.764   4.515 -0.0597 -0.1071  0.3813
 8326SOL    HW125594   2.801   4.772   4.491 -0.0883  1.5723  0.6523
 8326SOL    HW225595   2.703   4.810   4.599 -1.3173  0.7307 -0.1389
 8327SOL     OW25596   3.347   2.019   2.592 -0.7808 -0.7236 -0.2974
 8327SOL    HW125597   3.292   1.941   2.593 -1.2002 -0.4409 -0.6101
 8327SOL    HW225598   3.429   1.991   2.552 -0.5861 -1.2224  0.4535
 8328SOL     OW25599   6.584   2.068   2.602 -0.0824 -0.4468 -0.2985
 8328SOL    HW125600   6.603   2.123   2.526  1.3952  1.2438  1.1836
 8328SOL    HW225601   6.496   2.093   2.629 -0.1242 -0.1427 -0.7227
 8329SOL     OW25602   2.500   3.191   3.338 -0.3669  0.6894  0.5490
 8329SOL    HW125603   2.577   3.160   3.385 -0.5496 -0.6459 -0.0039
 8329SOL    HW225604   2.534   3.246   3.268  0.2797 -1.8670 -1.2385
 8330SOL     OW25605   2.154   3.011   1.016  0.0143  0.0595 -0.0136
 8330SOL    HW125606   2.181   2.976   0.931 -0.0024 -0.5317  0.2190
 8330SOL    HW225607   2.076   2.961   1.039 -0.5260  0.8468 -0.0671
 8331SOL     OW25608   4.442   6.768   4.419 -0.2029  0.1708  0.4315
 8331SOL    HW125609   4.530   6.739   4.394 -0.2302  1.9739 -2.2147
 8331SOL    HW225610   4.456   6.853   4.460 -0.6590  0.0798  0.7806
 8332SOL     OW25611   4.240   5.914   5.927  0.0836  0.5178  0.2431
 8332SOL    HW125612   4.289   5.994   5.916 -0.4665  0.8469  0.1436
 8332SOL    HW225613   4.178   5.912   5.854  1.2875 -0.8969 -0.7977
 8333SOL     OW25614   4.406   5.452   6.597 -0.6296 -0.2950  0.0253
 8333SOL    HW125615   4.313   5.468   6.583 -0.4963 -1.0199 -2.1843
 8333SOL    HW225616   4.413   5.357   6.607  0.0230 -0.5169 -2.0043
 8334SOL     OW25617   5.735   5.548   4.537  0.0976  0.7928 -0.6868
 8334SOL    HW125618   5.796   5.474   4.534  0.4598  1.0138  0.6576
 8334SOL    HW225619   5.759   5.597   4.616 -1.7624  0.9348 -0.1451
 8335SOL     OW25620   6.321   5.081   3.957 -0.6532  0.8311 -0.0006
 8335SOL    HW125621   6.251   5.140   3.987 -0.6844  0.6124  0.3643
 8335SOL    HW225622   6.368   5.057   4.037 -1.1049 -0.2386 -0.0368
 8336SOL     OW25623   2.548   1.055   3.205 -0.1889  0.1900 -0.1192
 8336SOL    HW125624   2.614   1.083   3.269  1.0520 -1.8863 -0.3793
 8336SOL    HW225625   2.539   0.961   3.219 -2.0219  0.1664 -1.1237
 8337SOL     OW25626   2.617   5.386   5.933 -0.5201  0.2159 -0.0685
 8337SOL    HW125627   2.572   5.309   5.897 -0.9702 -0.2552  1.4559
 8337SOL    HW225628   2.641   5.437   5.855 -0.2315 -1.4379 -1.1217
 8338SOL     OW25629   1.539   3.345   0.228 -0.7274 -0.3412  0.1245
 8338SOL    HW125630   1.505   3.298   0.152  1.0218 -1.2030 -0.1684
 8338SOL    HW225631   1.509   3.294   0.304 -1.2030 -0.3264 -0.0514
 8339SOL     OW25632   3.386   5.771   1.806 -0.2861 -0.2820 -0.0639
 8339SOL    HW125633   3.334   5.805   1.879 -0.3078 -0.5962  0.0695
 8339SOL    HW225634   3.356   5.821   1.730 -0.1751  0.1342  0.1614
 8340SOL     OW25635   0.272   1.337   3.694  0.4386 -0.0600  0.4242
 8340SOL    HW125636   0.318   1.421   3.692 -0.7482  0.6915  2.2430
 8340SOL    HW225637   0.182   1.359   3.672  0.1115 -0.8555  0.9362
 8341SOL     OW25638   4.638   5.836   5.786  0.0349  0.3538  0.2214
 8341SOL    HW125639   4.676   5.807   5.869 -0.8526  1.8209  1.1811
 8341SOL    HW225640   4.706   5.890   5.746  0.7875 -1.0217 -0.4622
 8342SOL     OW25641   2.107   3.530   3.013  0.3742 -0.0221  0.4634
 8342SOL    HW125642   2.077   3.585   3.086  0.0123 -0.2499  0.4861
 8342SOL    HW225643   2.046   3.550   2.941  0.6657  0.1240  0.2520
 8343SOL     OW25644   0.507   5.595   1.716 -0.3993 -0.2048  0.1757
 8343SOL    HW125645   0.530   5.627   1.803 -0.0227 -1.1078  0.4196
 8343SOL    HW225646   0.445   5.523   1.733 -0.9139  0.1067 -0.3368
 8344SOL     OW25647   2.320   3.691   5.096  0.5830  0.0270  0.5167
 8344SOL    HW125648   2.385   3.668   5.029  1.1839  0.3316  0.9866
 8344SOL    HW225649   2.292   3.779   5.073 -0.6720 -0.5990 -0.4617
 8345SOL     OW25650   5.883   1.387   1.058  0.2029 -0.8593 -0.2814
 8345SOL    HW125651   5.796   1.387   1.018  0.0922  1.3163 -0.2016
 8345SOL    HW225652   5.872   1.340   1.140 -0.3867 -2.3801 -1.1994
 8346SOL     OW25653   0.875   0.086   6.625 -0.2659  0.4376  0.2660
 8346SOL    HW125654   0.892   0.005   6.672 -1.0252  0.2126  0.1627
 8346SOL    HW225655   0.795   0.069   6.575 -0.6437  1.3636  0.5241
 8347SOL     OW25656   4.414   5.997   0.125  0.2290  0.1812 -0.3461
 8347SOL    HW125657   4.329   6.034   0.147  0.2756 -0.4184  0.8934
 8347SOL    HW225658   4.476   6.046   0.178  0.3137 -1.4641  1.1508
 8348SOL     OW25659   2.336   3.279   5.898  0.4159 -0.4038  0.3345
 8348SOL    HW125660   2.404   3.250   5.838 -0.5906 -1.1593 -0.4767
 8348SOL    HW225661   2.369   3.254   5.985  1.2297 -0.6087 -0.0208
 8349SOL     OW25662   4.781   5.980   3.027 -0.3127  0.0965  0.1313
 8349SOL    HW125663   4.794   6.061   2.978  0.9605 -0.6714 -0.8677
 8349SOL    HW225664   4.787   6.006   3.119 -0.0466  1.1531 -0.1740
 8350SOL     OW25665   5.461   1.669   1.980  0.4861  0.0170  0.2162
 8350SOL    HW125666   5.380   1.632   2.016  0.1190  0.4540 -0.1476
 8350SOL    HW225667   5.431   1.734   1.916  1.1269  0.1833  0.0812
 8351SOL     OW25668   4.795   5.675   2.077 -0.3409  0.8753  0.1661
 8351SOL    HW125669   4.766   5.764   2.098  0.6895  1.0372  1.0480
 8351SOL    HW225670   4.824   5.640   2.161 -0.3998 -0.1672 -0.2422
 8352SOL     OW25671   0.869   5.590   7.052 -0.1745 -0.1600 -0.2756
 8352SOL    HW125672   0.936   5.638   7.002 -0.9291 -0.1096 -1.2690
 8352SOL    HW225673   0.789   5.599   7.000 -1.1181  0.2777  1.1829
 8353SOL     OW25674   0.277   5.168   2.966  0.3583 -0.3893  0.1991
 8353SOL    HW125675   0.208   5.225   3.001  0.6447 -0.2776  0.5985
 8353SOL    HW225676   0.322   5.221   2.900 -0.1802 -0.5960 -0.3363
 8354SOL     OW25677   5.575   3.347   6.495 -0.2984 -0.7505  0.5585
 8354SOL    HW125678   5.543   3.374   6.581 -0.5164  0.8103  0.0327
 8354SOL    HW225679   5.507   3.288   6.462 -1.6261  0.8104  0.3586
 8355SOL     OW25680   4.725   4.339   1.645  0.4793 -0.4164  0.2342
 8355SOL    HW125681   4.687   4.317   1.730 -0.6539 -1.8923 -0.5857
 8355SOL    HW225682   4.650   4.365   1.591  0.9748 -0.7959 -0.6693
 8356SOL     OW25683   0.209   4.513   3.950 -0.0858 -0.1795 -0.4674
 8356SOL    HW125684   0.209   4.598   3.995  0.9816 -0.7709  0.6998
 8356SOL    HW225685   0.196   4.535   3.858  1.0431  1.3406 -0.3030
 8357SOL     OW25686   6.387   6.509   6.422 -0.1819  0.3049  0.4415
 8357SOL    HW125687   6.446   6.540   6.491  0.5889 -0.1901  0.0048
 8357SOL    HW225688   6.418   6.422   6.400 -0.3887  0.4717 -0.5705
 8358SOL     OW25689   1.313   2.032   5.028 -0.3548  0.2635  0.1776
 8358SOL    HW125690   1.259   2.110   5.018 -1.1402 -0.2466  0.3082
 8358SOL    HW225691   1.292   1.999   5.116  0.6992  0.4365  0.5118
 8359SOL     OW25692   6.433   5.085   0.537  0.1105  0.0970 -0.2571
 8359SOL    HW125693   6.404   5.049   0.453  1.8215 -0.0411 -0.8234
 8359SOL    HW225694   6.403   5.176   0.536 -0.7193 -0.1685 -0.5807
 8360SOL     OW25695   3.722   1.811   5.657 -0.4562  0.0441  0.4711
 8360SOL    HW125696   3.676   1.728   5.648 -1.7168  0.7876 -0.1230
 8360SOL    HW225697   3.653   1.877   5.660  0.5569  1.1564  0.0621
 8361SOL     OW25698   2.958   1.830   2.743  0.2456  0.3619  0.1410
 8361SOL    HW125699   2.903   1.803   2.817  1.9023 -0.7794  1.0044
 8361SOL    HW225700   3.023   1.889   2.781  0.8142  0.1601 -0.4942
 8362SOL     OW25701   6.466   4.213   0.235  0.4368  0.3831  0.2342
 8362SOL    HW125702   6.427   4.130   0.207 -1.4968  0.6502  1.8650
 8362SOL    HW225703   6.480   4.261   0.153 -1.0463 -0.4708 -0.5764
 8363SOL     OW25704   6.936   7.199   4.755 -0.3987 -0.1160  0.9848
 8363SOL    HW125705   6.970   7.285   4.730  0.0540 -0.5181  0.1865
 8363SOL    HW225706   6.888   7.215   4.836 -0.1287  0.8499  0.9655
 8364SOL     OW25707   5.598   1.402   4.324 -0.0097  0.0223  0.5523
 8364SOL    HW125708   5.683   1.360   4.339 -0.7071 -0.8991  2.2892
 8364SOL    HW225709   5.534   1.332   4.338 -1.0874  0.8330 -0.1284
 8365SOL     OW25710   4.899   1.356   1.783  0.0331  0.2851  0.4178
 8365SOL    HW125711   4.879   1.289   1.849 -0.8342 -0.0103 -0.1328
 8365SOL    HW225712   4.825   1.416   1.786  0.5034  0.8754  0.4489
 8366SOL     OW25713   1.241   0.041   0.277 -0.6840  0.5875  0.1952
 8366SOL    HW125714   1.247   0.115   0.216 -2.1788 -0.0876 -0.8330
 8366SOL    HW225715   1.163   0.058   0.329  0.5909  1.1627  1.9991
 8367SOL     OW25716   4.877   1.434   2.137 -0.8462  0.5069 -0.6462
 8367SOL    HW125717   4.960   1.388   2.150 -1.0462  0.3090 -0.0294
 8367SOL    HW225718   4.848   1.456   2.226 -1.4936  0.4982 -0.8529
 8368SOL     OW25719   5.080   2.096   1.489 -0.3314  0.1135 -0.1842
 8368SOL    HW125720   5.118   2.137   1.567 -1.6300  2.0762 -0.5054
 8368SOL    HW225721   4.985   2.105   1.502 -0.5693  0.8935 -2.1703
 8369SOL     OW25722   4.305   2.397   6.338 -0.1077  0.3362 -0.1269
 8369SOL    HW125723   4.360   2.355   6.404  0.1002 -0.1326 -0.5919
 8369SOL    HW225724   4.306   2.490   6.361  0.5064  0.2709  0.1335
 8370SOL     OW25725   4.914   5.778   3.425  0.0939 -0.1902  0.7232
 8370SOL    HW125726   4.863   5.700   3.404  0.0938  0.1095 -0.4706
 8370SOL    HW225727   5.003   5.745   3.439  0.2388 -0.3426 -0.4655
 8371SOL     OW25728   4.526   3.516   3.462  0.4279 -0.2845  0.1588
 8371SOL    HW125729   4.541   3.608   3.439 -0.2043  0.0408  1.0175
 8371SOL    HW225730   4.495   3.476   3.380  0.6949  0.2634 -0.2187
 8372SOL     OW25731   0.079   6.034   1.854 -0.6050 -0.4511 -0.2893
 8372SOL    HW125732   0.033   5.951   1.838 -0.1085 -0.9922  0.9779
 8372SOL    HW225733   0.170   6.016   1.828 -0.0282 -1.0011  1.9060
 8373SOL     OW25734   5.244   2.232   3.693  0.5882 -0.2250 -1.1199
 8373SOL    HW125735   5.166   2.279   3.723  0.6280 -1.7221  1.6807
 8373SOL    HW225736   5.260   2.265   3.604 -1.7452  1.9318 -0.8386
 8374SOL     OW25737   1.506   4.298   0.401  0.0712 -0.2298 -0.0367
 8374SOL    HW125738   1.427   4.303   0.347 -0.2381  0.4105  0.4662
 8374SOL    HW225739   1.483   4.344   0.481  1.0421  0.1850  0.0139
 8375SOL     OW25740   2.134   3.519   3.875 -0.1180  0.4103 -0.2381
 8375SOL    HW125741   2.220   3.477   3.864  0.0291  1.2754 -3.1700
 8375SOL    HW225742   2.071   3.450   3.853 -0.0926  0.3685 -0.1818
 8376SOL     OW25743   7.079   5.531   2.264 -0.0994  0.8205 -0.1460
 8376SOL    HW125744   7.047   5.618   2.288 -1.3750  0.1740  0.6301
 8376SOL    HW225745   7.038   5.513   2.179 -0.3016  0.7483 -0.0338
 8377SOL     OW25746   4.212   2.609   6.686  0.7725 -0.0939  0.3193
 8377SOL    HW125747   4.239   2.605   6.594  1.1778 -0.9406  0.4657
 8377SOL    HW225748   4.290   2.639   6.733  0.7803 -0.3541  0.4736
 8378SOL     OW25749   4.991   4.924   6.684 -0.5337  0.0896  0.4249
 8378SOL    HW125750   4.969   4.832   6.696 -2.4277  0.4991  0.4293
 8378SOL    HW225751   4.962   4.945   6.595 -0.0495  0.6715  0.3950
 8379SOL     OW25752   2.959   1.197   2.491  0.0405  0.1192 -0.0746
 8379SOL    HW125753   3.014   1.120   2.507  0.3359  0.3742  0.1600
 8379SOL    HW225754   2.870   1.168   2.512  0.0416 -0.3821 -0.7430
 8380SOL     OW25755   2.034   0.951   3.825 -0.1199  0.2222 -0.1367
 8380SOL    HW125756   1.968   0.899   3.871  0.5436  0.1195  0.7114
 8380SOL    HW225757   2.031   1.036   3.868  1.2416 -0.1938  0.8252
 8381SOL     OW25758   4.898   0.044   1.081 -0.1150 -0.7420 -0.1959
 8381SOL    HW125759   4.829  -0.023   1.073  0.0323 -1.2011  1.9134
 8381SOL    HW225760   4.866   0.104   1.149  1.0777 -0.3404  0.0410
 8382SOL     OW25761   6.755   1.894   4.517 -0.0236 -0.5802 -0.3608
 8382SOL    HW125762   6.848   1.891   4.540 -0.3495 -1.7925  0.9224
 8382SOL    HW225763   6.722   1.807   4.538 -1.4996 -0.1058 -0.5753
 8383SOL     OW25764   6.531   4.794   5.714  0.5141 -0.6668 -0.4228
 8383SOL    HW125765   6.565   4.869   5.667 -0.0209 -0.9451 -1.2812
 8383SOL    HW225766   6.589   4.721   5.691  1.1516 -0.4918  0.5642
 8384SOL     OW25767   4.763   2.054   5.744  0.1131 -0.2372 -0.6292
 8384SOL    HW125768   4.697   2.120   5.764  0.1762 -0.5658  0.7937
 8384SOL    HW225769   4.768   2.053   5.649 -0.9353  0.7695 -0.7191
 8385SOL     OW25770   5.263   2.738   0.054  0.0391 -0.0012 -0.3035
 8385SOL    HW125771   5.324   2.687  -0.001 -0.0678  0.0535 -0.4724
 8385SOL    HW225772   5.244   2.816   0.002 -1.3840 -0.7388 -0.9320
 8386SOL     OW25773   3.746   2.422   3.675 -0.1576  0.0333  0.2469
 8386SOL    HW125774   3.764   2.328   3.679  0.7391  0.2430  2.4475
 8386SOL    HW225775   3.686   2.432   3.600  0.6857 -2.1006 -0.7979
 8387SOL     OW25776   0.081   4.261   0.863 -0.7780 -0.7063 -0.4024
 8387SOL    HW125777   0.057   4.331   0.925  0.0180 -2.1703  1.6568
 8387SOL    HW225778   0.076   4.181   0.915  0.8115 -1.9178 -2.0295
 8388SOL     OW25779   1.112   1.234   5.747  0.0868  0.2310  0.2078
 8388SOL    HW125780   1.072   1.219   5.833 -0.5370  1.4912  0.1602
 8388SOL    HW225781   1.202   1.204   5.757 -0.3685 -1.0111  0.8559
 8389SOL     OW25782   4.332   4.474   6.716 -0.0117  0.1480  0.1073
 8389SOL    HW125783   4.364   4.394   6.673  0.0289 -0.5223  1.3340
 8389SOL    HW225784   4.238   4.471   6.704 -0.1159 -0.6138  0.9763
 8390SOL     OW25785   1.346   3.192   4.594  0.2052  0.4255  0.0962
 8390SOL    HW125786   1.371   3.254   4.526  0.3342 -0.3592 -0.5813
 8390SOL    HW225787   1.428   3.149   4.619 -0.0503 -0.2899 -0.2682
 8391SOL     OW25788   2.393   0.358   3.535 -0.8142  0.2367 -0.5800
 8391SOL    HW125789   2.373   0.285   3.593 -0.2818  0.2215 -0.4089
 8391SOL    HW225790   2.457   0.322   3.473 -1.1397  0.3404 -0.9768
 8392SOL     OW25791   4.691   2.254   1.920 -0.4320  0.8902 -0.0347
 8392SOL    HW125792   4.729   2.304   1.849  2.0841  0.3278  0.8066
 8392SOL    HW225793   4.759   2.190   1.944 -2.2089 -0.6873  1.1255
 8393SOL     OW25794   1.069   0.382   0.311  0.0084  0.4009 -0.0160
 8393SOL    HW125795   1.088   0.448   0.378  0.5846  0.4460 -0.2129
 8393SOL    HW225796   0.996   0.332   0.347  0.0902  0.6363  0.4977
 8394SOL     OW25797   2.547   1.535   5.984 -0.5568 -0.1970 -0.0275
 8394SOL    HW125798   2.483   1.481   6.030 -0.5055 -0.4251 -0.2253
 8394SOL    HW225799   2.543   1.507   5.893  1.5515 -1.9660  0.3488
 8395SOL     OW25800   3.434   1.093   6.959 -0.4731  0.0014  0.0327
 8395SOL    HW125801   3.516   1.082   7.008 -0.1114  0.1558 -0.5317
 8395SOL    HW225802   3.462   1.109   6.869 -1.1326 -0.1048 -0.1931
 8396SOL     OW25803   5.916   7.083   0.800  0.7261  0.1193  0.0352
 8396SOL    HW125804   5.976   7.158   0.801 -0.0717  0.7703  0.2815
 8396SOL    HW225805   5.843   7.112   0.744 -0.2445  0.0560  1.2387
 8397SOL     OW25806   1.860   5.141   6.576  0.1273  0.1141 -0.3339
 8397SOL    HW125807   1.863   5.223   6.528 -0.5511 -0.3181 -1.1449
 8397SOL    HW225808   1.835   5.076   6.511  0.7810 -0.7637  0.2657
 8398SOL     OW25809   5.498   1.632   2.856 -0.3913  0.0289 -0.0368
 8398SOL    HW125810   5.581   1.675   2.831 -0.7231  1.5705  1.2976
 8398SOL    HW225811   5.442   1.705   2.883 -0.2233 -1.2780  4.6088
 8399SOL     OW25812   7.017   1.242   7.011  0.3515  0.0649  0.3774
 8399SOL    HW125813   7.106   1.208   7.009  0.5359  0.5505 -0.1589
 8399SOL    HW225814   7.026   1.333   7.042  0.1768  0.4536 -0.6592
 8400SOL     OW25815   4.415   4.431   2.263 -0.6313 -0.3436  0.2602
 8400SOL    HW125816   4.508   4.430   2.284 -0.8186 -0.2034  1.1432
 8400SOL    HW225817   4.380   4.352   2.304 -0.6331 -1.2233 -1.3989
 8401SOL     OW25818   3.110   7.032   2.050 -0.0488  0.0358  0.3172
 8401SOL    HW125819   3.039   6.995   1.998 -1.9212  0.6211  2.2885
 8401SOL    HW225820   3.168   7.074   1.986  0.8547 -3.9174 -1.7919
 8402SOL     OW25821   3.644   1.550   3.296 -0.4670 -0.4185 -0.0610
 8402SOL    HW125822   3.663   1.464   3.334 -1.0819 -0.8937 -0.7941
 8402SOL    HW225823   3.695   1.552   3.215  0.5602  0.4452  0.5806
 8403SOL     OW25824   1.304   5.155   1.112  0.3563 -0.3613  0.0616
 8403SOL    HW125825   1.397   5.149   1.131  0.1449 -2.0537  0.8012
 8403SOL    HW225826   1.267   5.200   1.187  0.2860 -1.9323  1.0185
 8404SOL     OW25827   6.523   7.000   3.484  0.4562  0.2283  0.2892
 8404SOL    HW125828   6.511   7.055   3.561  0.1675 -0.8806  1.0642
 8404SOL    HW225829   6.618   6.984   3.482  0.3482 -0.6071  1.0608
 8405SOL     OW25830   5.394   2.262   4.102 -0.5659  0.2739 -0.2070
 8405SOL    HW125831   5.386   2.171   4.071 -1.3645  1.0694 -2.5646
 8405SOL    HW225832   5.347   2.263   4.185  1.2585 -1.9139  0.9672
 8406SOL     OW25833   6.428   0.149   0.376  0.3775  0.0845  0.2369
 8406SOL    HW125834   6.412   0.203   0.299  1.4242 -0.1956 -0.2019
 8406SOL    HW225835   6.392   0.063   0.353  0.5176  0.0535  0.1299
 8407SOL     OW25836   6.777   1.017   0.801 -0.3828 -0.4194  0.0890
 8407SOL    HW125837   6.811   0.981   0.883  1.7321  0.0793 -0.5112
 8407SOL    HW225838   6.744   0.941   0.753  0.3080 -1.0050  0.5245
 8408SOL     OW25839   5.066   4.493   5.675  0.1486  0.0016  0.3016
 8408SOL    HW125840   5.018   4.432   5.731  0.6660  0.6619  1.4949
 8408SOL    HW225841   5.006   4.511   5.602 -0.4821 -0.9820  0.5599
 8409SOL     OW25842   4.790   0.811   5.746 -0.4154  0.4820  0.5627
 8409SOL    HW125843   4.782   0.741   5.681 -0.5155 -0.8556  1.9674
 8409SOL    HW225844   4.750   0.887   5.703 -0.2863 -0.2922 -1.0127
 8410SOL     OW25845   5.872   4.112   6.189  0.4657 -0.6379 -0.0003
 8410SOL    HW125846   5.876   4.060   6.270  0.3119  0.8203  0.9866
 8410SOL    HW225847   5.874   4.203   6.219 -1.0670 -0.0391 -1.5542
 8411SOL     OW25848   5.284   1.941   1.055 -0.2565 -0.1381  0.4448
 8411SOL    HW125849   5.202   1.894   1.071  0.5656 -1.0338  2.4192
 8411SOL    HW225850   5.308   1.917   0.966 -0.8235 -2.0180  0.7498
 8412SOL     OW25851   2.721   4.951   2.251  0.2828 -0.5944  0.1908
 8412SOL    HW125852   2.686   4.862   2.259  0.2532 -0.5377  0.7276
 8412SOL    HW225853   2.651   5.000   2.208  0.0617 -0.6949  0.4324
 8413SOL     OW25854   1.025   1.357   0.109 -0.2676 -0.5843  0.3241
 8413SOL    HW125855   1.087   1.400   0.050  0.6015 -1.9028  0.2315
 8413SOL    HW225856   0.958   1.423   0.125  0.3410  0.3599 -0.8188
 8414SOL     OW25857   2.185   3.481   5.209  0.1090 -0.1052  0.5571
 8414SOL    HW125858   2.237   3.551   5.170  0.2565 -0.2451  0.5029
 8414SOL    HW225859   2.210   3.402   5.162 -0.7406 -0.0466 -0.0075
 8415SOL     OW25860   3.935   1.843   3.033 -0.8517 -0.0523  0.4154
 8415SOL    HW125861   3.991   1.819   3.107 -0.1721 -1.4669 -0.5186
 8415SOL    HW225862   3.965   1.788   2.961 -0.4963  2.3421 -1.3717
 8416SOL     OW25863   5.453   1.172   3.595 -0.3385 -0.9723  0.0976
 8416SOL    HW125864   5.460   1.136   3.506 -0.2040  1.3734 -0.9294
 8416SOL    HW225865   5.539   1.158   3.634  0.3532  0.0026 -1.0177
 8417SOL     OW25866   5.555   2.108   3.196  0.3065 -0.3024 -0.0879
 8417SOL    HW125867   5.631   2.058   3.224  1.4396  1.0862 -0.5642
 8417SOL    HW225868   5.533   2.162   3.272  0.3266 -0.0968 -0.2267
 8418SOL     OW25869   2.585   1.134   5.454  0.5311  0.8095  0.4541
 8418SOL    HW125870   2.528   1.196   5.410  0.6512 -0.1922 -1.2172
 8418SOL    HW225871   2.671   1.148   5.414  0.5031 -0.5684 -0.1496
 8419SOL     OW25872   4.253   3.141   0.130  0.3754  0.0492  0.1515
 8419SOL    HW125873   4.226   3.152   0.039  0.4551 -1.8964 -0.1467
 8419SOL    HW225874   4.241   3.227   0.169  0.5842  0.9984 -1.7507
 8420SOL     OW25875   1.993   5.810   3.603 -0.2343  0.1638 -0.2008
 8420SOL    HW125876   2.078   5.834   3.567 -0.3881  0.2888 -0.4909
 8420SOL    HW225877   2.012   5.772   3.689  0.1490 -0.1823 -0.4342
 8421SOL     OW25878   5.727   0.050   7.121  0.0181 -0.2926 -0.5358
 8421SOL    HW125879   5.678   0.122   7.082 -0.2330 -0.2610 -0.1659
 8421SOL    HW225880   5.819   0.077   7.114 -0.1152  0.3852  0.2313
 8422SOL     OW25881   5.749   0.181   3.127 -0.5118 -0.3161 -0.3260
 8422SOL    HW125882   5.828   0.161   3.077  0.9069  0.2970  1.5395
 8422SOL    HW225883   5.696   0.234   3.068  1.0952  0.4085 -1.1815
 8423SOL     OW25884   2.088   2.918   3.588 -0.0879 -0.1429 -0.4330
 8423SOL    HW125885   2.091   2.899   3.495 -2.4278  0.0195 -0.5933
 8423SOL    HW225886   2.170   2.963   3.606 -0.2311  1.1686 -2.7355
 8424SOL     OW25887   0.938   2.170   3.834 -0.2961  0.1918 -0.0762
 8424SOL    HW125888   0.917   2.205   3.920 -1.7943  1.4079 -0.9087
 8424SOL    HW225889   1.016   2.115   3.849  0.0763  1.1805  1.8453
 8425SOL     OW25890   4.280   4.774   0.262  0.4531  0.5519 -0.2185
 8425SOL    HW125891   4.221   4.707   0.228 -0.8948  1.2709  0.6207
 8425SOL    HW225892   4.310   4.821   0.184 -2.0380  1.7245 -0.5859
 8426SOL     OW25893   3.170   3.798   2.707  1.0344 -1.1773 -0.3798
 8426SOL    HW125894   3.139   3.817   2.795  2.8622 -2.1029  0.5079
 8426SOL    HW225895   3.131   3.713   2.686  0.6414 -0.9817 -0.4463
 8427SOL     OW25896   0.773   0.448   2.025  0.2532 -0.1581  0.9005
 8427SOL    HW125897   0.824   0.522   2.059 -0.3406 -0.0637  1.6286
 8427SOL    HW225898   0.701   0.488   1.976  1.3530 -0.3001 -0.9096
 8428SOL     OW25899   3.900   5.659   0.019  0.0633  0.2098 -0.1458
 8428SOL    HW125900   3.882   5.746  -0.017 -0.4137 -0.8143 -2.6628
 8428SOL    HW225901   3.835   5.648   0.088 -2.4461  0.5172 -2.2632
 8429SOL     OW25902   0.743   0.325   2.288  0.2072 -0.7908 -0.4334
 8429SOL    HW125903   0.764   0.400   2.343  3.4044 -1.4563 -0.5316
 8429SOL    HW225904   0.744   0.359   2.199 -2.7047 -0.1735 -0.3147
 8430SOL     OW25905   2.590   6.454   0.470  0.4712 -0.2429  0.3793
 8430SOL    HW125906   2.596   6.510   0.392 -2.0174 -1.5454 -0.8722
 8430SOL    HW225907   2.588   6.515   0.543  0.3236  1.1843 -0.7650
 8431SOL     OW25908   4.552   6.028   4.281 -0.4656 -0.0064 -0.5826
 8431SOL    HW125909   4.590   6.040   4.368 -1.1734  1.2746 -0.4225
 8431SOL    HW225910   4.624   6.048   4.221 -0.3811  0.6289 -0.2813
 8432SOL     OW25911   1.227   7.121   4.153  0.0923 -0.3053  0.5937
 8432SOL    HW125912   1.235   7.150   4.062  0.8381 -2.2739 -0.0342
 8432SOL    HW225913   1.133   7.111   4.167 -0.0838  0.8723  0.3520
 8433SOL     OW25914   1.520   0.968   3.314  0.5132 -0.3155 -0.5614
 8433SOL    HW125915   1.614   0.954   3.302  0.6679 -0.8635  1.0704
 8433SOL    HW225916   1.494   0.903   3.380 -1.3080 -1.1303 -1.9879
 8434SOL     OW25917   6.847   2.747   5.643  0.1559  0.3864 -0.1304
 8434SOL    HW125918   6.909   2.782   5.706  0.3738 -2.1388  1.1807
 8434SOL    HW225919   6.901   2.717   5.570  0.8945 -3.2600  1.6680
 8435SOL     OW25920   2.262   4.932   0.066 -0.3206  0.0597  0.5275
 8435SOL    HW125921   2.339   4.972   0.105 -1.6929  2.7012  0.7946
 8435SOL    HW225922   2.247   4.981  -0.014 -1.7984 -0.2773  0.5636
 8436SOL     OW25923   6.792   6.915   7.188  0.3300  0.6401 -0.0584
 8436SOL    HW125924   6.699   6.926   7.172  0.4261  0.3537 -0.8682
 8436SOL    HW225925   6.833   6.991   7.145  0.6361 -0.4172 -1.7371
 8437SOL     OW25926   5.443   1.104   5.255  0.6510 -0.1110 -0.5249
 8437SOL    HW125927   5.536   1.079   5.259  0.3305 -1.2192  0.6413
 8437SOL    HW225928   5.397   1.031   5.297 -0.8699 -0.1185 -2.1115
 8438SOL     OW25929   0.706   4.650   0.109 -1.0152  0.5110 -0.7276
 8438SOL    HW125930   0.637   4.673   0.171  0.1618  0.8344  0.4907
 8438SOL    HW225931   0.719   4.556   0.122 -0.2255  0.7273  0.0924
 8439SOL     OW25932   4.381   0.322   4.083  0.5812 -0.2393 -0.9396
 8439SOL    HW125933   4.421   0.236   4.096 -0.6073 -0.4843  1.6612
 8439SOL    HW225934   4.287   0.305   4.090  0.3513  1.3485  0.1374
 8440SOL     OW25935   1.437   0.608   0.155  0.1330 -0.0696 -0.4204
 8440SOL    HW125936   1.516   0.555   0.143  0.2145 -0.5130  1.6807
 8440SOL    HW225937   1.406   0.585   0.243 -1.0835  1.7362 -0.3257
 8441SOL     OW25938   0.681   4.514   5.304 -0.6780  0.1147 -0.4893
 8441SOL    HW125939   0.673   4.429   5.347 -0.1835  0.8199  1.0990
 8441SOL    HW225940   0.639   4.575   5.365  1.6375  1.4259 -0.0852
 8442SOL     OW25941   4.574   6.382   6.664 -0.4358 -0.1409  0.1576
 8442SOL    HW125942   4.654   6.381   6.610 -2.2362 -1.2310 -2.7521
 8442SOL    HW225943   4.537   6.469   6.650 -0.4568 -0.1086  0.4096
 8443SOL     OW25944   4.927   5.438   4.020 -0.2350  0.2750 -0.4311
 8443SOL    HW125945   4.845   5.392   4.036  0.4961 -0.9536 -0.0421
 8443SOL    HW225946   4.909   5.496   3.946 -1.5508  0.3168 -0.0854
 8444SOL     OW25947   2.857   2.959   1.350 -0.1642  0.0156  0.5234
 8444SOL    HW125948   2.849   3.053   1.334  0.6797  0.1772  0.9955
 8444SOL    HW225949   2.769   2.932   1.377 -0.5507  0.5521 -0.1518
 8445SOL     OW25950   4.978   3.417   6.450  0.0536 -0.6217 -0.0217
 8445SOL    HW125951   5.055   3.409   6.507 -0.6521 -0.2142  1.0107
 8445SOL    HW225952   4.927   3.488   6.488 -0.6479 -0.6175 -0.9337
 8446SOL     OW25953   6.002   1.523   2.316  0.2625 -0.2353  0.5571
 8446SOL    HW125954   5.983   1.578   2.240 -0.3108  0.8942  1.4812
 8446SOL    HW225955   5.924   1.531   2.371 -1.0451 -4.0574 -0.3850
 8447SOL     OW25956   2.554   3.195   3.682 -0.3697 -0.3752  0.4516
 8447SOL    HW125957   2.559   3.145   3.601 -0.7895  0.0790  0.1441
 8447SOL    HW225958   2.628   3.162   3.734  0.1330 -0.4000 -0.2592
 8448SOL     OW25959   2.139   6.828   3.834  0.0388 -0.5206 -0.3097
 8448SOL    HW125960   2.068   6.832   3.770 -0.3286  0.0501  0.1232
 8448SOL    HW225961   2.205   6.889   3.799  0.1270 -0.7143 -0.4838
 8449SOL     OW25962   7.047   1.533   1.580  0.2018 -0.2940 -0.4612
 8449SOL    HW125963   7.114   1.531   1.647  0.3787 -0.2691 -0.6362
 8449SOL    HW225964   7.095   1.529   1.497  0.0490  0.7358 -0.6190
 8450SOL     OW25965   6.404   3.568   3.576 -0.1893 -0.4464 -0.1673
 8450SOL    HW125966   6.390   3.474   3.560  0.7898 -0.8550  1.1717
 8450SOL    HW225967   6.347   3.588   3.651 -0.4182  0.0490 -0.4669
 8451SOL     OW25968   1.744   1.598   0.561 -0.1533  0.3043 -0.2418
 8451SOL    HW125969   1.687   1.576   0.634  1.0527 -0.6617  0.4486
 8451SOL    HW225970   1.748   1.518   0.509  1.6902 -0.1545  0.5188
 8452SOL     OW25971   1.308   6.610   3.930 -0.1578  0.6080  0.1940
 8452SOL    HW125972   1.338   6.633   3.842  0.6332 -0.8340  0.0514
 8452SOL    HW225973   1.346   6.678   3.986  1.3153  0.2593 -0.3107
 8453SOL     OW25974   6.505   3.391   1.071  0.0200 -0.2518  0.0271
 8453SOL    HW125975   6.431   3.372   1.014 -1.5045  2.2942  1.0308
 8453SOL    HW225976   6.487   3.341   1.150  0.7651 -1.6621 -0.6520
 8454SOL     OW25977   4.972   1.835   1.704  0.7756 -0.1613  0.6088
 8454SOL    HW125978   4.885   1.870   1.727  1.3904  1.5019  0.5600
 8454SOL    HW225979   4.954   1.749   1.666 -0.8848  0.2789  0.2998
 8455SOL     OW25980   1.224   6.556   0.741  0.0127 -0.0431 -0.1299
 8455SOL    HW125981   1.159   6.597   0.798 -0.6981  1.1056 -1.6916
 8455SOL    HW225982   1.256   6.627   0.686  2.0056 -0.7599  0.0439
 8456SOL     OW25983   1.639   6.349   0.155 -0.1824 -0.0129  0.0435
 8456SOL    HW125984   1.621   6.442   0.139  0.9459  0.3280  0.6187
 8456SOL    HW225985   1.714   6.330   0.099  1.6629  0.3161  2.2668
 8457SOL     OW25986   6.038   0.440   4.175 -0.3571 -0.0858  0.1184
 8457SOL    HW125987   5.956   0.484   4.198  0.8224  0.9876  2.6405
 8457SOL    HW225988   6.052   0.377   4.245  0.3806 -1.1661 -0.9552
 8458SOL     OW25989   3.322   3.282   7.235  0.2945 -0.3438 -0.2681
 8458SOL    HW125990   3.356   3.197   7.261 -2.3112 -1.3029  0.3102
 8458SOL    HW225991   3.287   3.320   7.316 -0.5413  0.2817 -0.8999
 8459SOL     OW25992   4.595   4.784   6.617  0.2843 -0.5924  0.1355
 8459SOL    HW125993   4.546   4.866   6.611 -0.6802 -1.2485 -2.7290
 8459SOL    HW225994   4.661   4.791   6.548 -0.5149 -2.6087 -0.9100
 8460SOL     OW25995   0.840   7.118   3.761  0.2833 -0.6968  0.3095
 8460SOL    HW125996   0.886   7.073   3.690  0.4080  1.7064 -1.2583
 8460SOL    HW225997   0.757   7.072   3.769 -0.2972 -0.2869 -2.3613
 8461SOL     OW25998   4.022   0.069   6.931 -0.4874  0.1425 -0.2158
 8461SOL    HW125999   4.016  -0.016   6.976 -0.6987  0.0809 -0.3571
 8461SOL    HW226000   3.986   0.132   6.994 -1.4266 -0.0373 -0.5465
 8462SOL     OW26001   3.280   3.715   0.171  0.4843  0.0936 -0.0036
 8462SOL    HW126002   3.191   3.751   0.163 -0.7206 -2.6378  0.0656
 8462SOL    HW226003   3.333   3.789   0.200 -1.5943  2.0129 -0.8069
 8463SOL     OW26004   2.348   2.291   6.516 -0.6155  0.6632 -0.2094
 8463SOL    HW126005   2.263   2.250   6.530 -1.0166  1.8618  1.0491
 8463SOL    HW226006   2.408   2.242   6.572 -1.1931  2.0506  1.7068
 8464SOL     OW26007   6.204   3.629   3.750  0.0581  0.5724  0.3888
 8464SOL    HW126008   6.154   3.548   3.759  0.7660  0.3069  2.2905
 8464SOL    HW226009   6.138   3.694   3.723 -0.9069 -0.2082  0.7841
 8465SOL     OW26010   6.445   4.429   4.381  0.2166 -0.4117 -0.1723
 8465SOL    HW126011   6.530   4.446   4.423 -0.2833 -1.3557  1.2985
 8465SOL    HW226012   6.380   4.451   4.447 -0.6442 -1.0351 -0.7763
 8466SOL     OW26013   0.796   6.565   2.683  0.0537 -0.3237  0.3764
 8466SOL    HW126014   0.737   6.586   2.610 -0.2561 -1.6828  0.2184
 8466SOL    HW226015   0.737   6.536   2.752  0.5607 -2.4846 -0.0522
 8467SOL     OW26016   2.949   6.830   5.838 -0.2609 -0.1277  0.0363
 8467SOL    HW126017   2.950   6.922   5.862 -1.2426 -0.2329  0.5308
 8467SOL    HW226018   2.938   6.830   5.743  0.5712  0.2622 -0.0659
 8468SOL     OW26019   0.234   3.584   3.072  0.2750  0.1712  0.3548
 8468SOL    HW126020   0.207   3.618   2.987  0.1015  0.1460  0.3991
 8468SOL    HW226021   0.159   3.599   3.129  0.9752  1.7194  0.9309
 8469SOL     OW26022   1.364   3.269   2.142  0.4391 -0.3526 -0.0781
 8469SOL    HW126023   1.341   3.251   2.233 -0.4386 -1.3138 -0.4705
 8469SOL    HW226024   1.306   3.213   2.091  0.8780  0.2150 -1.2392
 8470SOL     OW26025   5.776   6.037   7.082  0.1565  0.3879 -0.6801
 8470SOL    HW126026   5.856   5.993   7.052  0.7940  1.2889 -0.3640
 8470SOL    HW226027   5.782   6.125   7.044  0.2988  1.1052  0.8938
 8471SOL     OW26028   6.479   3.124   3.192  0.2026 -0.1860 -0.1977
 8471SOL    HW126029   6.411   3.063   3.164  0.0976 -0.3756  0.4540
 8471SOL    HW226030   6.561   3.077   3.175  0.1017 -0.9420  1.2242
 8472SOL     OW26031   5.638   1.602   6.791  0.0322  0.2894  0.0776
 8472SOL    HW126032   5.610   1.616   6.881 -0.6908 -0.2016 -0.0621
 8472SOL    HW226033   5.687   1.519   6.793  2.4011  1.6060  0.4991
 8473SOL     OW26034   4.533   0.195   0.970 -0.4481  0.0246 -0.1194
 8473SOL    HW126035   4.576   0.110   0.965 -0.5405 -0.0852  0.7865
 8473SOL    HW226036   4.467   0.192   0.900 -0.3313 -0.5768 -0.2124
 8474SOL     OW26037   3.808   6.175   6.845 -0.0878 -0.1427  0.5678
 8474SOL    HW126038   3.890   6.179   6.797 -0.6453 -0.6237 -0.4652
 8474SOL    HW226039   3.751   6.239   6.801  0.1984  1.3647  2.2642
 8475SOL     OW26040   6.015   4.840   3.449  0.5963 -0.8633  0.0497
 8475SOL    HW126041   5.930   4.800   3.466  1.0464 -1.5685  0.6994
 8475SOL    HW226042   6.077   4.790   3.502  1.1255  0.9331  1.2164
 8476SOL     OW26043   2.999   3.245   2.546 -0.5157 -0.5831  0.1085
 8476SOL    HW126044   3.073   3.215   2.493 -1.1045 -0.8227 -0.5876
 8476SOL    HW226045   2.925   3.192   2.517 -0.8951 -0.5924  1.0461
 8477SOL     OW26046   0.411   2.701   0.952  0.0150  0.0217  0.0013
 8477SOL    HW126047   0.499   2.668   0.938  0.2938  0.1639  1.2949
 8477SOL    HW226048   0.374   2.643   1.019 -0.1220  1.2364  1.0058
 8478SOL     OW26049   4.116   3.705   0.450  0.7506  0.4239  0.6838
 8478SOL    HW126050   4.144   3.772   0.388 -3.4169 -0.3643 -2.5225
 8478SOL    HW226051   4.024   3.725   0.467  0.7198 -1.6188  3.7995
 8479SOL     OW26052   5.403   2.873   1.972 -0.9967 -0.0922  0.6896
 8479SOL    HW126053   5.485   2.919   1.959 -0.9123  0.1008  1.7604
 8479SOL    HW226054   5.339   2.942   1.988 -1.9746 -0.0490 -2.6688
 8480SOL     OW26055   6.675   5.607   2.056  0.1694 -0.0614  0.1903
 8480SOL    HW126056   6.713   5.690   2.028  0.4582  0.0384  0.8565
 8480SOL    HW226057   6.712   5.592   2.142  0.1981 -0.9365  0.0333
 8481SOL     OW26058   7.160   1.676   0.253  0.2182 -0.2034 -0.5711
 8481SOL    HW126059   7.222   1.610   0.282  0.5051  0.9127  1.5086
 8481SOL    HW226060   7.076   1.630   0.247  0.7715 -1.1732 -1.1184
 8482SOL     OW26061   7.078   5.654   5.884  0.4407  0.5861  0.4432
 8482SOL    HW126062   7.061   5.744   5.855  2.7479  0.9842  0.1511
 8482SOL    HW226063   7.154   5.626   5.833  0.1286 -1.3481  0.9485
 8483SOL     OW26064   5.904   4.616   5.405  0.4207 -0.0756  0.1995
 8483SOL    HW126065   5.846   4.545   5.379  1.9907 -1.0252 -0.9080
 8483SOL    HW226066   5.858   4.661   5.476 -1.4491 -1.0160 -0.3623
 8484SOL     OW26067   5.164   1.041   5.123 -0.1521  0.2559 -1.0997
 8484SOL    HW126068   5.117   0.979   5.178 -1.1134  1.3675 -0.6161
 8484SOL    HW226069   5.235   1.075   5.178  0.3849 -0.4000 -1.3701
 8485SOL     OW26070   6.074   1.942   2.697  0.6165  0.0166 -0.0235
 8485SOL    HW126071   6.067   1.847   2.712 -0.8265  0.2661  1.0968
 8485SOL    HW226072   6.032   1.956   2.613  0.0452 -0.2285  0.2195
 8486SOL     OW26073   5.075   4.779   5.665 -0.4324  0.1302  0.7034
 8486SOL    HW126074   5.019   4.748   5.736 -1.0162 -0.1925  0.1167
 8486SOL    HW226075   5.015   4.794   5.592  0.1329  0.6246  0.3282
 8487SOL     OW26076   6.450   5.923   7.059 -0.0985 -0.0973  0.2180
 8487SOL    HW126077   6.495   5.883   6.984  0.7872 -1.7085  1.5465
 8487SOL    HW226078   6.521   5.962   7.111 -0.8201  2.1655 -0.3608
 8488SOL     OW26079   0.276   2.283   1.168  0.3528  0.8256 -0.3317
 8488SOL    HW126080   0.322   2.355   1.124  0.4093  0.3297 -1.0997
 8488SOL    HW226081   0.302   2.205   1.119 -0.3438  0.3829 -0.0040
 8489SOL     OW26082   6.611   4.463   2.517 -0.3193  0.5480 -0.5001
 8489SOL    HW126083   6.688   4.465   2.460  0.0140 -0.2832 -0.0958
 8489SOL    HW226084   6.605   4.551   2.552 -0.5519  1.0849 -1.8524
 8490SOL     OW26085   5.336   5.011   5.857 -0.0557 -0.0304  0.3030
 8490SOL    HW126086   5.335   4.917   5.876 -0.5525 -0.0672  0.1224
 8490SOL    HW226087   5.272   5.022   5.786  0.1255  0.4199  0.2058
 8491SOL     OW26088   5.556   5.886   4.039 -0.0588 -0.4077 -0.4442
 8491SOL    HW126089   5.563   5.971   4.082  0.8774 -0.4064 -0.5807
 8491SOL    HW226090   5.629   5.835   4.074 -0.6574 -1.1955 -0.2980
 8492SOL     OW26091   6.844   4.205   0.836  0.7075  0.9337  0.0411
 8492SOL    HW126092   6.882   4.119   0.856 -0.4701  0.6699  1.2979
 8492SOL    HW226093   6.758   4.203   0.877 -0.1415  1.9985 -1.6027
 8493SOL     OW26094   2.126   6.310   6.939  0.1088 -0.6226 -0.1207
 8493SOL    HW126095   2.164   6.350   7.017 -0.9627 -1.7698  1.0589
 8493SOL    HW226096   2.099   6.383   6.884  0.1084  0.2265  0.9840
 8494SOL     OW26097   6.996   7.148   1.736 -0.1778  0.4623  0.5129
 8494SOL    HW126098   6.921   7.196   1.700 -1.8922 -1.9975  0.5948
 8494SOL    HW226099   6.970   7.127   1.825 -0.1873 -1.8625  0.0170
 8495SOL     OW26100   6.314   7.235   3.416 -0.0167 -0.0506  0.0678
 8495SOL    HW126101   6.313   7.330   3.407  1.4820 -0.0121  0.0249
 8495SOL    HW226102   6.404   7.210   3.397 -0.1256 -1.3747  1.1409
 8496SOL     OW26103   2.324   6.194   1.869 -0.6240  0.0046  0.4132
 8496SOL    HW126104   2.346   6.151   1.951  1.3468  0.1391  0.0185
 8496SOL    HW226105   2.229   6.192   1.865 -0.6874 -2.6602  1.2771
 8497SOL     OW26106   3.135   4.524   3.087 -0.1934  1.2323 -0.2357
 8497SOL    HW126107   3.148   4.542   3.180 -1.6365  0.9544  0.0332
 8497SOL    HW226108   3.219   4.486   3.058  0.0163  0.6107  1.1142
 8498SOL     OW26109   5.085   3.578   2.605  0.0320 -0.1311  0.4192
 8498SOL    HW126110   5.171   3.600   2.643  0.9487  0.6519 -1.9169
 8498SOL    HW226111   5.082   3.627   2.523 -2.7528 -0.0301  0.4886
 8499SOL     OW26112   4.429   6.622   3.858  0.3221  0.1681 -0.2046
 8499SOL    HW126113   4.487   6.622   3.783 -1.9880 -0.6462 -2.1141
 8499SOL    HW226114   4.342   6.635   3.821 -0.7071  2.2647  2.5750
 8500SOL     OW26115   4.995   2.528   6.965  0.5668 -0.3016  0.1945
 8500SOL    HW126116   4.959   2.485   6.888 -1.9166 -0.8229  1.5209
 8500SOL    HW226117   4.944   2.609   6.973  0.3459 -0.5377  1.5496
 8501SOL     OW26118   2.480   5.172   1.467 -0.3411  0.5262  0.1004
 8501SOL    HW126119   2.555   5.224   1.495 -1.2365  1.9829 -0.1366
 8501SOL    HW226120   2.455   5.121   1.544  0.1457  0.9283  0.5260
 8502SOL     OW26121   2.798   2.280   0.600  0.2289  0.1133  0.5162
 8502SOL    HW126122   2.817   2.296   0.507  0.1107 -0.3062  0.4182
 8502SOL    HW226123   2.726   2.217   0.599  1.7889 -1.7877  0.8827
 8503SOL     OW26124   6.039   3.241   1.581 -0.0058  0.4933 -0.2766
 8503SOL    HW126125   6.119   3.232   1.634 -0.1841  0.0125 -0.0866
 8503SOL    HW226126   6.040   3.166   1.523  0.5807  1.4165 -1.5158
 8504SOL     OW26127   3.620   0.790   1.483 -0.6503 -0.6295 -0.4043
 8504SOL    HW126128   3.714   0.792   1.502 -0.4686 -1.1398 -1.2358
 8504SOL    HW226129   3.579   0.797   1.570  0.0961  1.9910 -0.1619
 8505SOL     OW26130   6.355   0.575   0.051 -0.4169  0.2582  0.1515
 8505SOL    HW126131   6.321   0.654   0.093  1.6027  0.4279  1.5745
 8505SOL    HW226132   6.294   0.558  -0.022 -1.9162  2.0539  0.9263
 8506SOL     OW26133   4.529   4.742   3.043  0.4569  0.1104  0.1250
 8506SOL    HW126134   4.575   4.823   3.064  0.5842  1.1708 -3.5752
 8506SOL    HW226135   4.440   4.756   3.076  0.6078  1.5883 -0.0126
 8507SOL     OW26136   4.078   6.678   2.530 -0.1809  0.6297 -0.6903
 8507SOL    HW126137   4.059   6.748   2.467  0.6859  2.1259  0.6198
 8507SOL    HW226138   4.151   6.713   2.582  0.5248 -1.4258 -0.2163
 8508SOL     OW26139   5.137   4.469   5.302 -0.2820 -0.1225 -0.3789
 8508SOL    HW126140   5.063   4.435   5.352  1.1841  0.0035  2.0138
 8508SOL    HW226141   5.097   4.527   5.236 -2.2747  1.8511  2.3538
 8509SOL     OW26142   3.528   3.246   0.250  0.6947  0.0023 -0.7157
 8509SOL    HW126143   3.623   3.240   0.252  0.8021  0.9306 -1.8942
 8509SOL    HW226144   3.502   3.197   0.173  0.3705  1.0995 -1.3316
 8510SOL     OW26145   5.752   0.492   3.869  0.4315  0.4023 -0.0657
 8510SOL    HW126146   5.728   0.404   3.840 -0.2338  0.2222  0.9768
 8510SOL    HW226147   5.833   0.512   3.821  1.6832 -1.5714  1.0657
 8511SOL     OW26148   0.259   2.675   0.465  0.0027  0.6937  0.2301
 8511SOL    HW126149   0.270   2.747   0.527 -1.4086  0.7777  0.3996
 8511SOL    HW226150   0.324   2.610   0.492  0.2599  1.2633  1.0085
 8512SOL     OW26151   3.059   6.688   0.435  0.1241 -0.4868  1.0716
 8512SOL    HW126152   3.035   6.610   0.385  1.2812 -0.1822 -0.0140
 8512SOL    HW226153   2.980   6.712   0.482 -1.3053 -0.2758 -1.2933
 8513SOL     OW26154   3.556   6.732   0.944 -0.4770  0.3631  0.0721
 8513SOL    HW126155   3.540   6.826   0.939  0.0512  0.5069  0.8250
 8513SOL    HW226156   3.644   6.725   0.980 -0.3882 -0.4223 -0.2806
 8514SOL     OW26157   1.391   1.415   0.201 -0.4613 -0.1076 -0.5937
 8514SOL    HW126158   1.429   1.334   0.235  0.8228  0.9120  0.5500
 8514SOL    HW226159   1.320   1.435   0.261 -0.4053 -0.0939 -0.5315
 8515SOL     OW26160   6.698   2.543   3.319 -0.0654  0.5251 -0.7839
 8515SOL    HW126161   6.655   2.591   3.389  0.8340  2.9149 -1.7529
 8515SOL    HW226162   6.788   2.532   3.349 -0.1698 -0.2672 -0.7362
 8516SOL     OW26163   2.514   6.935   0.725  0.2310 -0.0309 -0.1670
 8516SOL    HW126164   2.598   6.965   0.759 -0.4320  0.2664  1.3342
 8516SOL    HW226165   2.481   6.876   0.793 -1.8880  1.8501  0.5929
 8517SOL     OW26166   4.958   1.536   1.419 -0.0414 -0.3004  0.1352
 8517SOL    HW126167   4.922   1.471   1.479 -2.3689  1.6454  1.0460
 8517SOL    HW226168   5.052   1.536   1.437 -0.1852 -2.3107  1.1551
 8518SOL     OW26169   0.469   0.276   2.340  0.3000 -0.3142  0.0064
 8518SOL    HW126170   0.474   0.266   2.245  0.4139  2.4707 -0.3534
 8518SOL    HW226171   0.560   0.271   2.370  0.1560 -2.7554  0.2432
 8519SOL     OW26172   7.179   3.048   6.726 -0.4736  0.2335 -0.3604
 8519SOL    HW126173   7.091   3.018   6.748  0.0394 -1.7007 -0.8134
 8519SOL    HW226174   7.171   3.084   6.638 -1.1943  1.9594  0.3717
 8520SOL     OW26175   4.274   3.584   4.900  0.4670 -0.3192  0.1542
 8520SOL    HW126176   4.246   3.549   4.815  0.1285  1.3733 -0.4663
 8520SOL    HW226177   4.258   3.513   4.961 -0.4689 -1.1489 -1.0020
 8521SOL     OW26178   6.035   0.620   5.123  0.1904  0.1189  0.2907
 8521SOL    HW126179   5.954   0.666   5.100  0.4646 -0.2141 -1.4618
 8521SOL    HW226180   6.094   0.636   5.050  1.0307 -1.2651  0.6194
 8522SOL     OW26181   5.925   3.783   7.187  0.0192  0.2825  0.4350
 8522SOL    HW126182   5.913   3.731   7.267  1.3157  0.4353  0.7465
 8522SOL    HW226183   6.019   3.798   7.182 -0.1773  1.2990 -0.4870
 8523SOL     OW26184   6.249   0.188   6.973  0.2362  0.1081 -0.4573
 8523SOL    HW126185   6.253   0.283   6.970  1.1599  0.0503 -1.9153
 8523SOL    HW226186   6.320   0.163   7.032 -0.3753  0.3105  0.3968
 8524SOL     OW26187   6.678   1.473   7.157  0.6675 -0.3016 -0.1420
 8524SOL    HW126188   6.757   1.523   7.177  1.6551 -1.0212 -2.0255
 8524SOL    HW226189   6.670   1.478   7.061  0.0684 -2.6362 -0.2660
 8525SOL     OW26190   3.706   4.598   6.322  0.0606 -0.6448  0.2151
 8525SOL    HW126191   3.641   4.640   6.265 -0.4465 -1.6098  0.0484
 8525SOL    HW226192   3.790   4.619   6.282 -0.2655 -1.0012 -0.6930
 8526SOL     OW26193   7.106   2.566   6.760  0.3939 -0.0033 -0.7809
 8526SOL    HW126194   7.011   2.568   6.756  0.1764  0.9975  2.1921
 8526SOL    HW226195   7.135   2.574   6.669 -2.3226  1.6232 -1.6050
 8527SOL     OW26196   6.985   4.588   1.676 -0.3736  0.1556 -0.0350
 8527SOL    HW126197   6.901   4.573   1.719 -2.2945  2.0307 -2.8616
 8527SOL    HW226198   7.002   4.681   1.686  0.7969  0.0167 -0.5096
 8528SOL     OW26199   3.459   0.524   1.539  0.0798 -0.3218 -0.9238
 8528SOL    HW126200   3.493   0.565   1.460  0.9820 -0.4097 -0.5990
 8528SOL    HW226201   3.400   0.456   1.508  0.5865 -0.4924 -1.5276
 8529SOL     OW26202   7.148   1.439   5.267  0.1834 -0.0525 -0.3931
 8529SOL    HW126203   7.081   1.431   5.335  0.2164  1.2244 -0.1783
 8529SOL    HW226204   7.103   1.479   5.193  0.4762 -0.0949 -0.5964
 8530SOL     OW26205   0.707   1.636   7.046 -0.2078  0.6157 -0.3146
 8530SOL    HW126206   0.793   1.653   7.082 -0.7809  2.1132  0.4084
 8530SOL    HW226207   0.720   1.638   6.951  0.6470  0.1834 -0.2192
 8531SOL     OW26208   2.950   7.110   1.757 -0.0292 -0.0478 -0.1560
 8531SOL    HW126209   3.041   7.140   1.744  0.3983 -1.9780 -2.2890
 8531SOL    HW226210   2.897   7.176   1.712  0.3142  0.9001  0.7898
 8532SOL     OW26211   5.298   3.938   5.244 -0.2476  0.2724  0.0194
 8532SOL    HW126212   5.362   3.973   5.182  0.4175  1.0339  1.0985
 8532SOL    HW226213   5.233   4.007   5.253 -0.0729  0.3691  0.5468
 8533SOL     OW26214   1.317   3.147   1.618  0.1751  0.1576  0.5098
 8533SOL    HW126215   1.228   3.148   1.654 -0.7979  0.8857 -1.7799
 8533SOL    HW226216   1.321   3.224   1.562  1.4428 -1.1416 -1.2752
 8534SOL     OW26217   6.446   0.754   6.486 -0.0052 -0.2131  0.0896
 8534SOL    HW126218   6.423   0.686   6.424 -1.0022 -1.6064  1.8705
 8534SOL    HW226219   6.533   0.729   6.519 -0.9966 -1.6077  1.8648
 8535SOL     OW26220   0.726   0.035   6.936 -0.0774 -0.0708  0.0068
 8535SOL    HW126221   0.699  -0.009   7.016 -0.1648 -3.2146 -1.6148
 8535SOL    HW226222   0.773   0.113   6.966 -0.4001 -0.9391  3.0633
 8536SOL     OW26223   4.929   7.167   6.972 -0.2242 -0.3797 -1.0150
 8536SOL    HW126224   4.889   7.080   6.981  1.1240 -1.0581 -1.3593
 8536SOL    HW226225   4.991   7.172   7.044  1.9303 -0.9887 -2.7176
 8537SOL     OW26226   0.020   1.270   5.418 -1.0946  0.2276 -0.0443
 8537SOL    HW126227  -0.033   1.327   5.363 -0.6789  0.5532 -0.1163
 8537SOL    HW226228  -0.038   1.245   5.490 -1.1982  0.9634  0.1349
 8538SOL     OW26229   2.397   1.876   6.073 -0.0982  0.2735  0.0353
 8538SOL    HW126230   2.466   1.905   6.014 -2.1266  1.1797 -2.0096
 8538SOL    HW226231   2.356   1.803   6.028  1.1100 -2.0624  2.4445
 8539SOL     OW26232   2.393   1.123   2.520  0.2691  0.4837 -0.3194
 8539SOL    HW126233   2.441   1.058   2.470  2.5674  1.7281  0.1240
 8539SOL    HW226234   2.418   1.207   2.481  0.2086  1.3224  1.3540
 8540SOL     OW26235   5.476   0.450   2.316 -0.2391 -0.1880 -0.4105
 8540SOL    HW126236   5.422   0.504   2.375  0.6513 -1.3241  1.5307
 8540SOL    HW226237   5.416   0.383   2.285 -0.4570 -0.2546  0.1301
 8541SOL     OW26238   3.994   6.552   1.085  0.4996  0.1412 -0.9242
 8541SOL    HW126239   4.032   6.500   1.155 -2.6557 -1.6675 -0.3693
 8541SOL    HW226240   4.049   6.534   1.008  2.9291  0.7267  0.5702
 8542SOL     OW26241   1.403   6.395   3.741 -0.2620  0.0565 -0.1470
 8542SOL    HW126242   1.429   6.487   3.732  0.4584 -0.0695  0.5249
 8542SOL    HW226243   1.313   6.392   3.708 -0.6129  1.1743  0.6596
 8543SOL     OW26244   5.224   0.151   5.657  0.0460 -0.0208 -0.3469
 8543SOL    HW126245   5.294   0.145   5.723 -0.5588  0.4141  0.3491
 8543SOL    HW226246   5.151   0.190   5.704 -0.5959 -0.2635 -1.1352
 8544SOL     OW26247   6.998   2.642   2.557 -0.4332  1.1503 -0.6777
 8544SOL    HW126248   7.081   2.597   2.574 -0.9713  0.2837 -0.2934
 8544SOL    HW226249   7.007   2.677   2.468 -0.3693 -0.5927 -1.4055
 8545SOL     OW26250   1.433   5.188   4.429  0.1961 -0.4934  0.1613
 8545SOL    HW126251   1.524   5.219   4.430  0.7534 -1.9954  2.1633
 8545SOL    HW226252   1.387   5.250   4.372  2.3993  0.4864 -0.6507
 8546SOL     OW26253   6.812   4.908   4.694 -0.1299  0.3831  0.4661
 8546SOL    HW126254   6.890   4.856   4.674  2.1661  3.2668  1.2221
 8546SOL    HW226255   6.782   4.939   4.609  0.3136  0.2561  0.2602
 8547SOL     OW26256   5.884   3.189   6.741  0.3888  1.0288 -0.4433
 8547SOL    HW126257   5.908   3.234   6.660  2.7779 -2.0792 -1.6930
 8547SOL    HW226258   5.966   3.183   6.790 -0.2571 -0.2208  0.5453
 8548SOL     OW26259   2.554   0.030   6.243  0.3612 -0.8828  0.1230
 8548SOL    HW126260   2.542   0.106   6.186 -0.2412 -1.0096  0.0668
 8548SOL    HW226261   2.480  -0.028   6.222  2.0526 -2.5629 -1.4868
 8549SOL     OW26262   5.016   2.157   3.339  0.5187  0.7466  0.6173
 8549SOL    HW126263   5.039   2.135   3.430  0.7976  1.0406  0.6215
 8549SOL    HW226264   5.047   2.081   3.288  1.7190  1.2237  0.5999
 8550SOL     OW26265   1.499   2.876   4.352  0.0065 -0.1888 -0.1370
 8550SOL    HW126266   1.525   2.948   4.409 -0.6528  0.6454 -0.8667
 8550SOL    HW226267   1.572   2.815   4.356  1.0212  0.9873 -0.2903
 8551SOL     OW26268   5.522   4.986   2.646  0.3938  0.1046  0.1499
 8551SOL    HW126269   5.564   4.911   2.605 -0.1630 -0.0051 -0.2362
 8551SOL    HW226270   5.531   5.056   2.582  0.1790  0.1354  0.1519
 8552SOL     OW26271   0.639   0.889   7.230  0.2896 -0.2078  0.1303
 8552SOL    HW126272   0.725   0.857   7.204  0.4432  0.4958 -0.2319
 8552SOL    HW226273   0.597   0.813   7.270  0.4914 -0.9779 -1.0863
 8553SOL     OW26274   6.909   3.180   2.124  0.1254  0.0303  0.1485
 8553SOL    HW126275   6.877   3.263   2.158 -2.1820  0.6157 -2.9756
 8553SOL    HW226276   6.935   3.131   2.201  0.7035  3.2623  2.1880
 8554SOL     OW26277   0.998   2.999   3.148  0.6813  0.0619 -0.6561
 8554SOL    HW126278   1.052   3.019   3.225 -0.9586 -1.5951  1.0308
 8554SOL    HW226279   1.062   2.980   3.079  2.3838 -2.3209  1.3810
 8555SOL     OW26280   2.368   5.782   4.438  0.6424 -0.2634 -0.4840
 8555SOL    HW126281   2.348   5.692   4.412  1.5402 -1.0281  1.3313
 8555SOL    HW226282   2.319   5.836   4.375 -3.0750 -1.9799  0.6069
 8556SOL     OW26283   5.358   1.800   6.391 -0.1346  0.3306 -0.2824
 8556SOL    HW126284   5.428   1.805   6.457 -1.0094  0.7247  0.6528
 8556SOL    HW226285   5.352   1.707   6.370 -1.1185 -0.1037  1.6753
 8557SOL     OW26286   6.552   0.704   3.354  0.7086  0.1382 -0.0583
 8557SOL    HW126287   6.637   0.709   3.397 -0.0130 -0.5982  1.5433
 8557SOL    HW226288   6.531   0.795   3.331  1.0059  0.6047  1.4309
 8558SOL     OW26289   3.243   0.569   7.056  0.6075 -0.4688  0.1405
 8558SOL    HW126290   3.313   0.521   7.013  1.8238  0.3284  1.1397
 8558SOL    HW226291   3.197   0.504   7.108  0.4883 -1.0329 -0.6578
 8559SOL     OW26292   4.254   5.322   2.629 -0.6781  0.6561 -0.0227
 8559SOL    HW126293   4.295   5.263   2.692  1.7100  0.2923 -1.7724
 8559SOL    HW226294   4.201   5.265   2.574 -1.1806  0.6889  0.4167
 8560SOL     OW26295   0.883   0.184   4.901 -1.0313 -0.3840  0.0393
 8560SOL    HW126296   0.818   0.212   4.966  0.7586  2.4797  0.7960
 8560SOL    HW226297   0.967   0.190   4.947 -0.0352 -2.3044 -1.4008
 8561SOL     OW26298   4.816   6.901   6.963  0.1235 -0.3876 -0.0905
 8561SOL    HW126299   4.845   6.901   7.054  0.6822 -0.0426 -0.2613
 8561SOL    HW226300   4.766   6.820   6.953 -0.2036 -0.2735  0.6003
 8562SOL     OW26301   0.494   4.800   3.495  0.2361  0.5506 -0.2741
 8562SOL    HW126302   0.545   4.795   3.414  2.4476  1.0139  0.9950
 8562SOL    HW226303   0.412   4.842   3.469  0.2203 -0.6817 -2.5165
 8563SOL     OW26304   4.365   2.484   5.415  0.6828 -0.6544 -0.1868
 8563SOL    HW126305   4.388   2.483   5.322 -1.6072 -2.2716 -0.8354
 8563SOL    HW226306   4.294   2.548   5.420 -1.1326 -2.5730 -0.1741
 8564SOL     OW26307   1.893   4.460   5.359  0.1677 -0.1899 -0.0119
 8564SOL    HW126308   1.909   4.370   5.330  0.4204 -0.3961  0.7394
 8564SOL    HW226309   1.957   4.474   5.429  0.0650  0.5456 -0.0561
 8565SOL     OW26310   6.408   1.486   3.460 -0.0163 -0.3495  0.0327
 8565SOL    HW126311   6.394   1.393   3.442  2.3371 -0.7452 -0.0447
 8565SOL    HW226312   6.363   1.502   3.543 -2.5505 -0.9002 -1.1209
 8566SOL     OW26313   2.910   0.049   3.538 -0.0121  0.0109 -0.1119
 8566SOL    HW126314   2.837   0.045   3.599 -0.8784  0.3988 -1.0937
 8566SOL    HW226315   2.949  -0.039   3.541 -0.6027 -0.2423  0.3237
 8567SOL     OW26316   3.344   7.021   4.770 -1.1096 -0.0186 -0.1262
 8567SOL    HW126317   3.305   7.055   4.850 -2.0001 -1.0314 -0.1184
 8567SOL    HW226318   3.317   6.930   4.766  0.8004 -0.6300 -0.4104
 8568SOL     OW26319   5.646   3.718   3.898 -0.0285 -0.8122  0.1648
 8568SOL    HW126320   5.590   3.640   3.890 -0.6838 -0.2668 -0.7621
 8568SOL    HW226321   5.584   3.791   3.902  0.5824 -0.3296  1.0449
 8569SOL     OW26322   2.030   7.122   2.993 -0.5999 -0.1123  0.2388
 8569SOL    HW126323   1.984   7.165   3.065 -1.0688  1.4962 -0.9655
 8569SOL    HW226324   2.084   7.055   3.036 -0.2580  1.3078  2.1728
 8570SOL     OW26325   5.314   0.499   1.946 -0.2516 -0.2964  0.7614
 8570SOL    HW126326   5.377   0.518   2.016  0.6971  0.1070 -0.1686
 8570SOL    HW226327   5.328   0.406   1.927 -0.2860 -0.3295  0.8982
 8571SOL     OW26328   3.579   4.335   2.770 -0.0637 -0.4490  0.0503
 8571SOL    HW126329   3.524   4.343   2.692 -0.5667  0.3715  0.4658
 8571SOL    HW226330   3.641   4.408   2.763 -1.2968  0.7942  1.2951
 8572SOL     OW26331   1.201   5.576   6.724  0.0243  0.3794 -0.0220
 8572SOL    HW126332   1.126   5.616   6.768 -0.0226  0.1165  0.1382
 8572SOL    HW226333   1.208   5.623   6.641 -0.6235  0.0704 -0.2583
 8573SOL     OW26334   1.290   0.390   3.332  0.4814 -0.7605 -0.1523
 8573SOL    HW126335   1.276   0.296   3.343  3.5823 -1.3876 -0.6532
 8573SOL    HW226336   1.270   0.427   3.418 -0.0111 -1.9786  0.2884
 8574SOL     OW26337   2.576   7.121   5.461  0.2579  0.2498  0.4399
 8574SOL    HW126338   2.552   7.178   5.533  1.3033 -0.5738  1.4813
 8574SOL    HW226339   2.502   7.061   5.451  0.0659  0.4386  0.7617
 8575SOL     OW26340   7.142   1.778   6.388 -0.5351  0.3056  0.4402
 8575SOL    HW126341   7.132   1.873   6.399 -2.0990  0.1892  0.2047
 8575SOL    HW226342   7.089   1.756   6.312  0.8042 -0.6125 -0.2815
 8576SOL     OW26343   0.267   3.032   5.430 -0.7320  0.4144  0.2500
 8576SOL    HW126344   0.323   3.029   5.352  1.7038  0.8241  1.8686
 8576SOL    HW226345   0.221   3.116   5.423 -1.1048  0.1207 -1.0715
 8577SOL     OW26346   1.371   0.803   5.385 -0.0087  0.5957 -0.6241
 8577SOL    HW126347   1.425   0.870   5.342  1.5176 -1.1808 -1.6130
 8577SOL    HW226348   1.282   0.822   5.356  0.5371  1.5246 -1.7965
 8578SOL     OW26349   2.823   3.400   0.471 -0.6976 -0.0311 -0.4815
 8578SOL    HW126350   2.906   3.444   0.451 -0.6179 -1.1989 -3.2023
 8578SOL    HW226351   2.802   3.426   0.560  3.1710 -0.5811  0.7508
 8579SOL     OW26352   2.547   2.679   2.691  0.3732 -0.1504 -0.2063
 8579SOL    HW126353   2.605   2.639   2.756  1.8742  1.8179 -0.2304
 8579SOL    HW226354   2.522   2.606   2.633  1.8614 -1.3003  0.5168
 8580SOL     OW26355   0.047   5.424   5.488  0.2833  0.0001  0.3330
 8580SOL    HW126356  -0.035   5.468   5.469 -0.2621 -0.4281  1.6397
 8580SOL    HW226357   0.084   5.405   5.401 -2.0575 -1.7749 -0.3793
 8581SOL     OW26358   7.001   3.649   7.168 -0.3932  0.2201  0.0778
 8581SOL    HW126359   6.946   3.580   7.205  1.0764 -0.5459  0.9114
 8581SOL    HW226360   6.967   3.662   7.079 -0.9223 -1.3234  0.0324
 8582SOL     OW26361   0.794   0.528   0.517 -0.3598 -0.4809 -0.4619
 8582SOL    HW126362   0.820   0.442   0.483 -1.7415 -2.0091  2.0728
 8582SOL    HW226363   0.749   0.509   0.599  0.8460  2.8204  1.1368
 8583SOL     OW26364   6.998   5.095   1.818 -0.5457  0.4817 -0.5841
 8583SOL    HW126365   7.064   5.067   1.755 -0.1012  1.1942 -0.4503
 8583SOL    HW226366   7.033   5.176   1.855 -1.0991  0.4160  0.1130
 8584SOL     OW26367   2.947   3.276   5.166  0.0003 -0.3134 -0.4472
 8584SOL    HW126368   2.904   3.225   5.097  0.3301 -1.1191 -0.0674
 8584SOL    HW226369   2.998   3.341   5.119 -2.2490  1.2419 -0.9205
 8585SOL     OW26370   4.739   0.804   2.564  0.0986 -0.1277  0.0902
 8585SOL    HW126371   4.683   0.743   2.516  0.3458 -0.0811 -0.2596
 8585SOL    HW226372   4.692   0.888   2.560 -0.9299 -0.5606  1.7449
 8586SOL     OW26373   5.059   4.142   0.505 -0.1770  0.5973 -0.5587
 8586SOL    HW126374   5.043   4.221   0.556  0.3200 -0.9168  2.1065
 8586SOL    HW226375   5.154   4.132   0.506 -0.3059 -0.8934  0.6428
 8587SOL     OW26376   2.825   5.727   3.458 -0.6620  0.4645 -0.1325
 8587SOL    HW126377   2.857   5.761   3.374 -0.4087 -0.1100 -0.2713
 8587SOL    HW226378   2.904   5.700   3.504 -0.8127  0.6686  0.2450
 8588SOL     OW26379   0.442   2.106   2.513 -0.2443 -0.5811  0.0529
 8588SOL    HW126380   0.412   2.137   2.427 -1.2043 -1.4889  0.0272
 8588SOL    HW226381   0.366   2.061   2.549  0.1599 -0.2214  1.3887
 8589SOL     OW26382   3.469   3.072   2.000  0.7812  0.7087  0.6177
 8589SOL    HW126383   3.478   3.109   1.913 -1.1880  0.3559  0.2364
 8589SOL    HW226384   3.524   3.128   2.056  0.1895  2.3859 -0.4325
 8590SOL     OW26385   2.707   1.579   1.816 -0.1005  0.1126 -0.1059
 8590SOL    HW126386   2.730   1.554   1.727 -1.1930  3.5398 -1.5479
 8590SOL    HW226387   2.786   1.621   1.850  0.2166 -0.9150  0.4475
 8591SOL     OW26388   3.720   4.213   1.505  0.2700 -0.4234 -0.6744
 8591SOL    HW126389   3.667   4.169   1.438 -0.4945  0.9531 -1.0281
 8591SOL    HW226390   3.784   4.263   1.455  0.7503 -0.6734 -0.3086
 8592SOL     OW26391   4.470   5.942   5.252  0.4061  0.5174 -0.6604
 8592SOL    HW126392   4.561   5.917   5.270 -0.6596 -3.0767  0.4483
 8592SOL    HW226393   4.454   5.912   5.163 -0.2721 -0.9138 -0.0814
 8593SOL     OW26394   4.913   5.065   0.024  0.3053  0.4101  0.3474
 8593SOL    HW126395   4.822   5.095   0.019  0.4497  0.6878 -0.8314
 8593SOL    HW226396   4.929   5.054   0.118 -0.9407  0.3571  0.5693
 8594SOL     OW26397   1.160   3.807   5.604 -0.7698 -0.5207  0.0859
 8594SOL    HW126398   1.248   3.818   5.568  0.5013  0.5951  3.1794
 8594SOL    HW226399   1.143   3.713   5.600  0.5901 -0.7611 -0.4731
 8595SOL     OW26400   3.909   3.014   2.537  0.1365  0.3511 -0.1244
 8595SOL    HW126401   3.854   3.060   2.601  2.1448  1.1168  1.1500
 8595SOL    HW226402   3.904   2.922   2.563  2.9228  0.8715  2.9654
 8596SOL     OW26403   6.442   6.454   4.633  0.1862 -0.2106  0.0817
 8596SOL    HW126404   6.405   6.497   4.710 -1.2984  0.2067 -0.8325
 8596SOL    HW226405   6.456   6.363   4.660  1.6166  0.3576  1.4531
 8597SOL     OW26406   3.895   0.958   3.202 -0.5193 -0.5649 -0.3158
 8597SOL    HW126407   3.818   0.921   3.244 -0.2870 -1.7084 -0.8514
 8597SOL    HW226408   3.863   0.995   3.120 -0.9008  1.2844  0.6179
 8598SOL     OW26409   1.890   1.593   2.015  0.3983  0.3581  0.2109
 8598SOL    HW126410   1.938   1.602   1.933  0.0853  2.5392  0.1972
 8598SOL    HW226411   1.950   1.548   2.074  0.8802 -0.6242 -1.0002
 8599SOL     OW26412   4.875   3.805   3.071 -0.0823 -0.0855  0.5232
 8599SOL    HW126413   4.793   3.839   3.035  0.2617 -1.0401 -1.2976
 8599SOL    HW226414   4.853   3.717   3.101  0.3003 -0.4318 -0.1813
 8600SOL     OW26415   2.146   0.760   1.585 -0.1227  0.4350  0.0823
 8600SOL    HW126416   2.131   0.824   1.655  0.8756  2.2312 -1.2557
 8600SOL    HW226417   2.134   0.810   1.504 -0.1444 -1.3092 -1.0305
 8601SOL     OW26418   6.601   4.082   5.135 -0.5533 -0.4502  0.0186
 8601SOL    HW126419   6.513   4.050   5.154 -0.4235 -1.4951 -1.0511
 8601SOL    HW226420   6.659   4.029   5.189 -0.4055 -1.5202 -1.1404
 8602SOL     OW26421   3.129   3.951   0.200  0.1501 -0.0517  0.7627
 8602SOL    HW126422   3.102   4.040   0.177 -0.4939 -0.4749 -0.1852
 8602SOL    HW226423   3.224   3.956   0.206  0.1150  0.7224  0.7999
 8603SOL     OW26424   4.966   1.595   0.145  0.0984  0.2317 -0.4644
 8603SOL    HW126425   5.018   1.529   0.192 -0.0001  0.8465  0.5517
 8603SOL    HW226426   5.029   1.641   0.091  1.1644  2.4275  2.3625
 8604SOL     OW26427   1.211   2.624   4.076 -0.2845  0.7277 -0.0702
 8604SOL    HW126428   1.297   2.584   4.070  0.6827  2.9188 -2.2928
 8604SOL    HW226429   1.218   2.686   4.149 -1.9892 -3.0785  3.8547
 8605SOL     OW26430   6.878   2.654   6.159  0.7515  0.4330 -0.0806
 8605SOL    HW126431   6.810   2.710   6.123 -1.4831 -2.7394 -1.2225
 8605SOL    HW226432   6.879   2.675   6.252 -4.0577 -1.2811  0.6502
 8606SOL     OW26433   6.932   6.412   6.769  0.5111  0.2725  0.3398
 8606SOL    HW126434   6.913   6.503   6.793  1.6184  0.5681  0.1737
 8606SOL    HW226435   7.014   6.418   6.720  0.3947 -0.7816  0.0058
 8607SOL     OW26436   4.042   1.102   2.692  0.3834  0.8175  0.1763
 8607SOL    HW126437   4.098   1.033   2.655 -2.6133 -1.1108 -1.0985
 8607SOL    HW226438   4.038   1.168   2.623  0.9361  0.9122  0.2260
 8608SOL     OW26439   4.288   6.102   0.545 -0.1889  0.0011 -0.8293
 8608SOL    HW126440   4.250   6.016   0.568  1.5259 -0.5342  0.1702
 8608SOL    HW226441   4.287   6.103   0.449  0.8015 -1.6691 -0.9089
 8609SOL     OW26442   3.513   2.039   6.748  0.2071 -0.4186 -0.6172
 8609SOL    HW126443   3.433   1.999   6.713 -0.1998 -2.0876  1.9255
 8609SOL    HW226444   3.562   1.966   6.785  0.7021  1.0736  1.9263
 8610SOL     OW26445   6.825   5.546   4.216 -0.0270 -0.1491 -0.0827
 8610SOL    HW126446   6.846   5.603   4.290 -1.1296 -1.3740  1.2341
 8610SOL    HW226447   6.849   5.598   4.139  0.5893  1.4101  1.0892
 8611SOL     OW26448   1.997   6.775   2.036  0.2281 -0.3105  0.3626
 8611SOL    HW126449   2.087   6.803   2.020  0.5772 -0.7072  1.5393
 8611SOL    HW226450   1.974   6.724   1.959  0.4048  1.1998 -0.7261
 8612SOL     OW26451   6.150   0.698   1.725 -0.2703  0.1261  0.5095
 8612SOL    HW126452   6.059   0.715   1.698 -0.1359  0.7570  0.4432
 8612SOL    HW226453   6.169   0.768   1.788  0.0367 -0.2487  0.8342
 8613SOL     OW26454   0.509   0.119   6.185  0.1676 -0.3722  0.6247
 8613SOL    HW126455   0.589   0.164   6.158  0.8191 -1.0381  1.4031
 8613SOL    HW226456   0.518   0.031   6.147 -1.3690  0.2617 -1.4018
 8614SOL     OW26457   0.301   6.405   4.181  0.0496  0.3070 -0.1934
 8614SOL    HW126458   0.337   6.376   4.265  1.8375  0.2294 -0.9401
 8614SOL    HW226459   0.258   6.489   4.201 -0.2719 -0.1022  0.9272
 8615SOL     OW26460   5.009   0.211   6.107  0.1218 -0.2330  0.0660
 8615SOL    HW126461   4.915   0.224   6.108 -0.1312 -1.6837 -1.0852
 8615SOL    HW226462   5.046   0.298   6.122 -1.3997  0.6574 -1.1295
 8616SOL     OW26463   3.613   2.290   6.830  0.7365 -0.2766 -0.0627
 8616SOL    HW126464   3.575   2.207   6.800  0.7663 -0.1312 -0.5236
 8616SOL    HW226465   3.539   2.351   6.832  0.0719 -1.0213  3.2204
 8617SOL     OW26466   5.468   5.069   5.078 -0.2576  0.0874  0.4814
 8617SOL    HW126467   5.541   5.016   5.047 -1.7876 -2.1846  0.4855
 8617SOL    HW226468   5.396   5.007   5.090 -2.1055  2.1376  0.8494
 8618SOL     OW26469   6.924   4.874   4.265  0.3509 -0.5359 -0.9316
 8618SOL    HW126470   6.991   4.882   4.333 -1.0103  2.4379  0.2162
 8618SOL    HW226471   6.945   4.942   4.202 -1.9719  1.1241 -0.0663
 8619SOL     OW26472   0.970   0.337   5.253 -0.0097  0.0205  0.1327
 8619SOL    HW126473   0.909   0.295   5.192 -0.3017 -1.4166  1.3744
 8619SOL    HW226474   0.930   0.328   5.339  1.7178 -0.5452  0.9266
 8620SOL     OW26475   5.187   5.399   0.787 -0.0473 -0.2295  0.2600
 8620SOL    HW126476   5.176   5.486   0.749  1.0970 -0.9834 -2.0006
 8620SOL    HW226477   5.225   5.415   0.873  2.8755  1.5256 -1.1871
 8621SOL     OW26478   1.611   3.038   4.899 -0.1530  0.1563  0.1826
 8621SOL    HW126479   1.580   3.013   4.812  0.7262  0.3054 -0.1803
 8621SOL    HW226480   1.633   3.131   4.891  1.6659 -0.2638  0.0506
 8622SOL     OW26481   1.126   3.968   4.928  0.4528  0.3032 -0.0039
 8622SOL    HW126482   1.159   4.028   4.995  1.4528  0.7750 -0.9078
 8622SOL    HW226483   1.117   3.884   4.974  0.8909  0.6715  0.7757
 8623SOL     OW26484   0.154   1.290   3.365  0.0677 -0.3028  0.1156
 8623SOL    HW126485   0.197   1.363   3.409 -0.6860  1.2627 -1.5945
 8623SOL    HW226486   0.226   1.238   3.330  0.6110  0.1721  0.4937
 8624SOL     OW26487   5.556   6.642   4.539  0.1947 -0.0612 -0.2364
 8624SOL    HW126488   5.644   6.675   4.517 -0.2536  0.5337 -1.1866
 8624SOL    HW226489   5.570   6.551   4.563  1.4863  0.7314  2.4380
 8625SOL     OW26490   0.840   5.720   5.291  0.6433 -0.1546 -0.1535
 8625SOL    HW126491   0.744   5.722   5.291  0.6506  0.8124 -0.5769
 8625SOL    HW226492   0.863   5.695   5.201  0.7920  0.9947 -0.4458
 8626SOL     OW26493   2.018   1.956   3.473  0.5369  0.0291  0.2963
 8626SOL    HW126494   2.087   2.017   3.498  2.2612 -1.2390 -1.0859
 8626SOL    HW226495   2.004   1.903   3.552 -0.2707  1.4764  1.1824
 8627SOL     OW26496   3.353   1.223   5.714  0.7146 -0.4391 -0.3715
 8627SOL    HW126497   3.339   1.308   5.756 -0.5427 -0.9565  0.3007
 8627SOL    HW226498   3.404   1.173   5.777  1.8398 -0.0707 -0.9499
 8628SOL     OW26499   4.611   2.907   0.005  0.3344 -0.7434  0.4067
 8628SOL    HW126500   4.701   2.932  -0.015 -0.1069 -1.3442 -2.8406
 8628SOL    HW226501   4.619   2.831   0.064  1.7820  1.0561  2.7273
 8629SOL     OW26502   1.448   2.203   0.760 -0.0790 -0.2924  0.3008
 8629SOL    HW126503   1.445   2.225   0.852 -1.4714 -0.5180  0.3354
 8629SOL    HW226504   1.459   2.286   0.715 -1.8002  0.1191  0.5797
 8630SOL     OW26505   4.659   0.181   4.224  0.2663  0.7468 -0.5328
 8630SOL    HW126506   4.667   0.152   4.315  0.4846 -0.0004 -0.7797
 8630SOL    HW226507   4.672   0.275   4.228 -2.4021  1.1588  0.5750
 8631SOL     OW26508   6.391   6.880   2.507  0.0111 -0.2598  0.2635
 8631SOL    HW126509   6.378   6.872   2.412  0.2053  0.3404  0.1796
 8631SOL    HW226510   6.381   6.973   2.525  0.2191 -0.3353  0.7970
 8632SOL     OW26511   1.198   0.557   3.138  0.3034  0.0522 -0.2695
 8632SOL    HW126512   1.223   0.497   3.208 -1.2620  0.7525  0.9659
 8632SOL    HW226513   1.145   0.504   3.078 -1.3203  0.1993  0.9702
 8633SOL     OW26514   0.065   6.199   6.987  0.4210 -0.0681  0.1002
 8633SOL    HW126515   0.093   6.127   7.044 -0.0359 -0.2793  0.0554
 8633SOL    HW226516  -0.030   6.200   6.995  0.3295 -0.2976 -0.9119
 8634SOL     OW26517   2.089   3.360   0.991 -0.1422  0.0014  0.1606
 8634SOL    HW126518   2.015   3.391   0.939  0.2073 -1.7256 -1.4610
 8634SOL    HW226519   2.052   3.294   1.049 -0.1440  0.2952  0.4947
 8635SOL     OW26520   2.413   6.266   0.559  0.3926  0.4353  0.0492
 8635SOL    HW126521   2.485   6.324   0.535  0.8059 -0.5556 -1.2015
 8635SOL    HW226522   2.456   6.190   0.599  0.1978 -0.8218 -2.0178
 8636SOL     OW26523   0.673   6.261   4.107 -0.0565 -0.0753 -0.1745
 8636SOL    HW126524   0.692   6.204   4.182 -2.4628  1.1321  1.5202
 8636SOL    HW226525   0.756   6.304   4.087  1.1286 -2.0039  0.3832
 8637SOL     OW26526   0.787   5.049   1.560 -0.3284  0.3033 -0.1947
 8637SOL    HW126527   0.702   5.014   1.587 -0.0564  0.1142  0.4573
 8637SOL    HW226528   0.803   5.011   1.474  0.5514 -2.3217  1.0114
 8638SOL     OW26529   5.277   6.166   6.563  0.4855 -0.5877  0.1304
 8638SOL    HW126530   5.195   6.159   6.611 -0.5586  1.0596 -1.3039
 8638SOL    HW226531   5.334   6.217   6.620 -0.1378 -0.1277  0.3467
 8639SOL     OW26532   2.810   6.977   7.115 -0.2568  0.0209  0.4808
 8639SOL    HW126533   2.783   6.923   7.189  0.3854  1.0658  1.5028
 8639SOL    HW226534   2.732   7.029   7.093  0.1444  1.2706  1.8538
 8640SOL     OW26535   1.913   3.528   1.288 -0.0080 -0.0348 -0.4420
 8640SOL    HW126536   1.946   3.546   1.376 -0.3962 -1.3172 -0.0269
 8640SOL    HW226537   1.979   3.566   1.230  0.2044  0.9104  0.3861
 8641SOL     OW26538   2.998   0.832   6.428 -0.0493  0.1122 -0.4859
 8641SOL    HW126539   2.967   0.919   6.402  0.0942  0.3827  0.2049
 8641SOL    HW226540   3.023   0.843   6.520  1.4070 -0.2669 -0.8059
 8642SOL     OW26541   5.139   7.223   4.568  0.5164  0.6590  0.1079
 8642SOL    HW126542   5.186   7.171   4.503 -1.5373  0.4073 -1.2847
 8642SOL    HW226543   5.192   7.216   4.647  2.4088 -0.1549 -1.1543
 8643SOL     OW26544   6.306   0.299   5.305  0.0841  0.0600  0.3249
 8643SOL    HW126545   6.296   0.346   5.387  1.2355 -0.5552  0.8428
 8643SOL    HW226546   6.334   0.366   5.242 -1.8278  0.7383  0.1356
 8644SOL     OW26547   6.297   0.299   3.096 -0.0548  0.1516 -0.4258
 8644SOL    HW126548   6.251   0.340   3.023  0.5536  0.7150 -0.4999
 8644SOL    HW226549   6.354   0.367   3.130  0.3219 -0.3709  0.0119
 8645SOL     OW26550   0.548   6.593   4.080 -0.3293 -0.6774  0.2551
 8645SOL    HW126551   0.456   6.566   4.083 -0.4972 -0.0938  0.4992
 8645SOL    HW226552   0.557   6.638   3.996  0.2972 -2.6592 -0.8060
 8646SOL     OW26553   1.214   1.930   6.569  0.1668  0.0148  0.0406
 8646SOL    HW126554   1.220   1.925   6.474  1.9026 -1.0050  0.1684
 8646SOL    HW226555   1.277   1.865   6.601 -2.4068 -1.7895  1.8974
 8647SOL     OW26556   6.764   0.903   5.748 -0.3668 -0.2350  0.2902
 8647SOL    HW126557   6.826   0.830   5.738  0.5916  0.7894 -1.9569
 8647SOL    HW226558   6.738   0.899   5.840  0.6949 -2.5585  0.5763
 8648SOL     OW26559   7.036   1.838   4.581  0.4012  0.5097  0.5885
 8648SOL    HW126560   7.066   1.783   4.653  1.7899 -0.4345 -0.6924
 8648SOL    HW226561   7.047   1.786   4.502 -1.5834  1.3271 -0.3243
 8649SOL     OW26562   5.691   6.886   5.218  0.0307  0.0517  0.0938
 8649SOL    HW126563   5.767   6.906   5.273  1.5521  0.1175 -1.9341
 8649SOL    HW226564   5.713   6.803   5.176 -0.7289  0.3702 -0.9878
 8650SOL     OW26565   6.274   6.382   5.351  0.1269  0.2022 -0.0858
 8650SOL    HW126566   6.211   6.311   5.364 -0.3900  0.5650 -0.5448
 8650SOL    HW226567   6.335   6.373   5.424 -0.6064 -0.0079  0.5183
 8651SOL     OW26568   4.927   3.814   2.268 -0.1000  0.2441  0.1348
 8651SOL    HW126569   5.015   3.848   2.254 -0.2780  0.5166 -0.3356
 8651SOL    HW226570   4.885   3.880   2.325 -0.6466  1.1656 -1.2778
 8652SOL     OW26571   7.032   0.240   1.568  0.0375 -0.4445 -0.2310
 8652SOL    HW126572   7.069   0.154   1.550  1.7913  0.4564 -1.2149
 8652SOL    HW226573   7.082   0.300   1.512 -0.7366  1.2923  0.8487
 8653SOL     OW26574   3.223   5.059   4.347 -0.1688  0.2917 -0.0526
 8653SOL    HW126575   3.300   5.096   4.390 -1.4640  2.3793  0.5938
 8653SOL    HW226576   3.237   5.077   4.254  0.4571 -0.0245 -0.0274
 8654SOL     OW26577   2.208   6.466   1.834  0.5224  0.2926 -0.4628
 8654SOL    HW126578   2.130   6.416   1.810  1.1976 -0.9065 -0.2771
 8654SOL    HW226579   2.219   6.447   1.928  0.6872  0.9527 -0.3482
 8655SOL     OW26580   5.861   3.305   3.654 -0.5478 -0.2210  0.4980
 8655SOL    HW126581   5.783   3.360   3.662 -0.9019 -0.7409  0.6446
 8655SOL    HW226582   5.844   3.251   3.576 -0.2286 -0.1703  0.3914
 8656SOL     OW26583   5.457   2.158   5.323  0.1029 -0.4739  0.3479
 8656SOL    HW126584   5.372   2.186   5.358  0.6993  1.9342  0.0868
 8656SOL    HW226585   5.435   2.103   5.247 -1.2523  0.7758 -0.2190
 8657SOL     OW26586   3.918   5.610   3.895 -0.0277 -0.3074 -0.2361
 8657SOL    HW126587   3.834   5.579   3.860 -0.6209  1.8596 -0.9146
 8657SOL    HW226588   3.896   5.644   3.982  0.0490  0.5622 -0.5455
 8658SOL     OW26589   1.605   0.578   0.933 -0.0800 -0.1943  0.6856
 8658SOL    HW126590   1.700   0.583   0.948  0.2451 -0.3343 -1.1527
 8658SOL    HW226591   1.575   0.668   0.947 -0.0435 -0.5156  3.2557
 8659SOL     OW26592   3.298   4.525   1.177 -0.6705 -0.2346 -0.0089
 8659SOL    HW126593   3.329   4.572   1.255  1.3828  0.8273 -1.3785
 8659SOL    HW226594   3.229   4.581   1.141 -0.1999  0.3051 -0.0759
 8660SOL     OW26595   0.164   4.289   5.743 -0.0326  0.5488 -0.7453
 8660SOL    HW126596   0.073   4.273   5.718 -0.4315  1.1820  0.2382
 8660SOL    HW226597   0.166   4.274   5.837  1.1122 -0.3983 -0.9072
 8661SOL     OW26598   3.963   2.965   0.980 -0.6636  0.0749 -0.5133
 8661SOL    HW126599   3.981   2.910   0.904  0.2660  1.1583 -1.0952
 8661SOL    HW226600   4.030   3.033   0.978  0.5020 -0.8570  2.2814
 8662SOL     OW26601   0.405   4.453   0.319  1.0866  0.1663  0.2578
 8662SOL    HW126602   0.440   4.540   0.299  1.2478  0.0445  0.0091
 8662SOL    HW226603   0.381   4.416   0.234 -0.3838  0.5501  0.4731
 8663SOL     OW26604   6.156   6.107   5.382  0.5378  0.0136 -0.4613
 8663SOL    HW126605   6.218   6.058   5.435 -1.0459 -0.4745  1.0372
 8663SOL    HW226606   6.070   6.084   5.418 -0.5781  0.2458 -2.7882
 8664SOL     OW26607   0.132   2.520   3.552  0.4825 -0.8361 -0.2545
 8664SOL    HW126608   0.192   2.463   3.600 -1.2130 -2.1504  0.3765
 8664SOL    HW226609   0.133   2.602   3.602  1.1248 -1.1234  0.2238
 8665SOL     OW26610   3.995   4.183   4.212  0.0267 -0.0901  0.1328
 8665SOL    HW126611   4.009   4.151   4.123 -0.5285  0.1466 -0.0423
 8665SOL    HW226612   3.946   4.114   4.256 -1.8746  0.8180 -0.4794
 8666SOL     OW26613   4.099   3.131   2.708  0.0830 -0.0999  0.0074
 8666SOL    HW126614   4.053   3.071   2.649  1.1856 -2.5834  1.4886
 8666SOL    HW226615   4.147   3.190   2.649  0.3620 -1.8343 -1.6029
 8667SOL     OW26616   5.434   4.223   2.603  0.1196 -0.2408  0.4774
 8667SOL    HW126617   5.401   4.228   2.513 -0.2199 -1.8315  0.4876
 8667SOL    HW226618   5.355   4.227   2.658  0.3120  0.5286  0.7188
 8668SOL     OW26619   0.250   2.880   5.880  0.2028 -0.1606 -0.3140
 8668SOL    HW126620   0.278   2.887   5.972  1.2635 -1.6289 -0.4998
 8668SOL    HW226621   0.296   2.952   5.836 -0.9480  1.0741  0.4027
 8669SOL     OW26622   4.685   3.405   2.148 -0.2321  0.5231  0.3944
 8669SOL    HW126623   4.740   3.412   2.070 -0.6441 -0.0870  0.0448
 8669SOL    HW226624   4.697   3.489   2.194  2.3203 -0.1957  1.2049
 8670SOL     OW26625   3.567   0.518   2.314 -0.3930 -0.3076 -0.1026
 8670SOL    HW126626   3.475   0.525   2.290 -0.7368 -2.6344  0.2962
 8670SOL    HW226627   3.566   0.481   2.402  0.9307  1.1791  0.5846
 8671SOL     OW26628   0.382   5.902   5.880 -0.0436  0.7046  0.3057
 8671SOL    HW126629   0.455   5.963   5.869  1.2073 -0.6830  0.6698
 8671SOL    HW226630   0.391   5.839   5.809 -1.6412  1.1937 -0.3912
 8672SOL     OW26631   4.233   0.534   1.528  0.0394  0.3713 -0.3227
 8672SOL    HW126632   4.142   0.559   1.515 -0.2239 -0.6375 -0.5470
 8672SOL    HW226633   4.265   0.511   1.441  0.5077  0.6977 -0.2435
 8673SOL     OW26634   5.028   5.432   0.031  0.1965  0.1991 -0.0863
 8673SOL    HW126635   4.936   5.421   0.006  0.2306 -0.2055 -0.0267
 8673SOL    HW226636   5.035   5.525   0.053 -0.4825 -0.0058  1.0831
 8674SOL     OW26637   0.460   2.410   2.204 -0.3820  0.0794 -0.5059
 8674SOL    HW126638   0.417   2.477   2.255  2.4782  0.6130  1.4526
 8674SOL    HW226639   0.406   2.332   2.216 -1.9362  1.1862 -0.0412
 8675SOL     OW26640   6.043   5.778   5.402 -0.2918  0.1964 -0.8129
 8675SOL    HW126641   6.023   5.697   5.354 -0.2712 -1.4256  1.7426
 8675SOL    HW226642   6.130   5.802   5.372  0.0401 -1.1979 -1.0417
 8676SOL     OW26643   4.943   5.338   5.796 -0.2765  0.3477  0.0206
 8676SOL    HW126644   4.904   5.412   5.843  0.4985  0.7332  0.0722
 8676SOL    HW226645   4.935   5.361   5.703 -1.4149 -0.2173 -0.0447
 8677SOL     OW26646   2.575   5.695   0.577  0.0856  0.4814  0.3985
 8677SOL    HW126647   2.515   5.621   0.569 -1.0628  1.1609  1.9260
 8677SOL    HW226648   2.544   5.758   0.512  0.7468 -0.1452 -0.5500
 8678SOL     OW26649   5.447   3.645   5.867 -0.3024  0.4941 -0.4335
 8678SOL    HW126650   5.461   3.558   5.830 -0.2140  0.1484  0.4047
 8678SOL    HW226651   5.535   3.681   5.880 -0.3052  0.2545  0.2789
 8679SOL     OW26652   0.858   4.157   2.564  0.1609  0.4579  0.0797
 8679SOL    HW126653   0.920   4.121   2.628  1.2046  0.1851 -1.0552
 8679SOL    HW226654   0.883   4.117   2.481 -0.6592  1.4216 -0.6511
 8680SOL     OW26655   2.246   3.551   5.834 -0.0219 -0.2025 -0.1526
 8680SOL    HW126656   2.265   3.465   5.873  2.2032  0.4406  0.2836
 8680SOL    HW226657   2.213   3.603   5.908  0.5446 -0.1035  0.0337
 8681SOL     OW26658   2.996   2.475   5.403  0.1253 -0.0680 -0.4651
 8681SOL    HW126659   2.998   2.563   5.440 -0.2755 -0.1440 -0.2545
 8681SOL    HW226660   2.920   2.475   5.345 -1.2756 -0.9560  1.2805
 8682SOL     OW26661   0.065   0.044   5.831 -0.2096 -0.0029 -0.2360
 8682SOL    HW126662   0.156   0.015   5.821 -0.4527 -0.1653 -2.3674
 8682SOL    HW226663   0.060   0.076   5.921  2.1046  0.5429 -0.2398
 8683SOL     OW26664   7.021   1.376   4.967 -0.3824 -0.0278 -0.1148
 8683SOL    HW126665   7.024   1.359   4.873 -0.5591 -1.7841  0.1651
 8683SOL    HW226666   6.929   1.392   4.986 -0.3083  0.6206 -0.2675
 8684SOL     OW26667   3.699   3.492   1.684 -0.2031  0.1890 -0.0601
 8684SOL    HW126668   3.635   3.433   1.643 -0.5846  2.0007 -2.2455
 8684SOL    HW226669   3.737   3.540   1.611  0.4693  2.2960  1.5973
 8685SOL     OW26670   0.569   0.814   2.277 -0.5177  0.6992  0.4113
 8685SOL    HW126671   0.509   0.834   2.348 -0.4992 -0.2680  0.7133
 8685SOL    HW226672   0.563   0.719   2.266  1.2583  0.5086  0.7387
 8686SOL     OW26673   2.613   5.873   4.224  0.1417  0.8569 -0.2370
 8686SOL    HW126674   2.575   5.809   4.284  0.0341  0.1525 -1.0277
 8686SOL    HW226675   2.548   5.943   4.219  0.3006  1.0859  0.7040
 8687SOL     OW26676   4.389   3.108   2.327 -0.6341  0.5079 -1.0715
 8687SOL    HW126677   4.305   3.145   2.354 -1.3381 -0.7573 -1.4424
 8687SOL    HW226678   4.411   3.046   2.396  0.0316  0.8620 -0.9566
 8688SOL     OW26679   6.120   2.026   0.393  0.1035  0.6250 -0.1242
 8688SOL    HW126680   6.175   2.023   0.315 -0.2026 -1.7833 -0.3307
 8688SOL    HW226681   6.109   1.934   0.418 -1.2194  1.2348  1.7583
 8689SOL     OW26682   7.111   5.614   3.925 -0.1578  0.2379 -0.4169
 8689SOL    HW126683   7.134   5.707   3.921  0.9378  0.0084 -0.0134
 8689SOL    HW226684   7.016   5.612   3.928 -0.2761  1.2692 -2.1811
 8690SOL     OW26685   0.279   3.250   1.652 -0.8665  0.0095 -0.4596
 8690SOL    HW126686   0.184   3.251   1.663 -1.1630  0.0076 -2.4681
 8690SOL    HW226687   0.294   3.182   1.585  0.5882 -0.2337  0.0711
 8691SOL     OW26688   3.069   3.949   5.913 -0.5447  0.0662  0.9032
 8691SOL    HW126689   3.151   3.975   5.870 -0.7471  1.2978  1.2311
 8691SOL    HW226690   3.091   3.945   6.006 -0.6844 -0.2965  0.9197
 8692SOL     OW26691   4.684   2.488   1.274 -0.7097 -0.3085  0.2123
 8692SOL    HW126692   4.619   2.503   1.205  0.7127  0.7127 -0.9517
 8692SOL    HW226693   4.723   2.404   1.253 -2.1319 -1.3171  1.3665
 8693SOL     OW26694   1.297   2.053   0.292  0.1961 -0.2990 -0.0329
 8693SOL    HW126695   1.336   1.983   0.240  1.9438 -0.0696  0.8964
 8693SOL    HW226696   1.357   2.065   0.365 -0.1235  2.0590 -0.0606
 8694SOL     OW26697   2.230   0.702   5.905  0.0015 -0.0658 -0.1713
 8694SOL    HW126698   2.287   0.697   5.828 -1.2666  0.0890 -1.1442
 8694SOL    HW226699   2.251   0.624   5.956  0.2252 -0.6391 -1.1249
 8695SOL     OW26700   1.214   3.467   0.684 -0.0757  0.1364  0.0294
 8695SOL    HW126701   1.165   3.545   0.658 -0.2260 -0.1103 -0.4409
 8695SOL    HW226702   1.150   3.413   0.730 -0.0996  0.0766 -0.0721
 8696SOL     OW26703   2.804   0.326   0.705 -0.1177 -0.1993  0.4380
 8696SOL    HW126704   2.758   0.410   0.705  0.1230  0.0277 -2.0822
 8696SOL    HW226705   2.765   0.277   0.632  1.2659 -1.3839  0.4308
 8697SOL     OW26706   0.682   5.318   2.819 -0.1872  0.1932 -0.1029
 8697SOL    HW126707   0.640   5.245   2.864  0.9968  0.0295  0.8000
 8697SOL    HW226708   0.776   5.297   2.823  0.0120  0.3851 -2.2891
 8698SOL     OW26709   2.744   1.297   4.621 -0.0189  0.5197 -0.1108
 8698SOL    HW126710   2.829   1.299   4.665 -1.4004 -0.6923  2.9055
 8698SOL    HW226711   2.752   1.228   4.556  1.3902  0.6706 -0.1338
 8699SOL     OW26712   5.458   5.134   2.401  0.3092  0.3479 -0.0852
 8699SOL    HW126713   5.475   5.047   2.366  0.2962  0.1418  0.4134
 8699SOL    HW226714   5.363   5.146   2.390  0.6574  1.3403 -2.4992
 8700SOL     OW26715   3.950   7.008   4.057 -0.2112  0.5280  0.1620
 8700SOL    HW126716   3.884   6.982   3.993  1.3321  3.1224 -2.7279
 8700SOL    HW226717   3.934   7.102   4.071  2.8831  1.3318 -0.8520
 8701SOL     OW26718   4.706   0.777   6.026  0.0533  0.3626 -0.1033
 8701SOL    HW126719   4.768   0.846   6.045  0.6594 -0.5792  1.5464
 8701SOL    HW226720   4.733   0.742   5.941 -0.0274  1.8464 -0.7621
 8702SOL     OW26721   5.592   5.493   3.016 -0.2021 -0.8397  0.0625
 8702SOL    HW126722   5.612   5.526   3.104 -1.0319 -0.4632  0.1239
 8702SOL    HW226723   5.496   5.491   3.013 -0.2770  1.3279 -1.5932
 8703SOL     OW26724   3.381   2.577   4.301 -0.3689  0.2911  0.2531
 8703SOL    HW126725   3.434   2.548   4.375  0.2653 -0.5524 -0.4956
 8703SOL    HW226726   3.440   2.632   4.250 -0.9427  1.2484  0.5969
 8704SOL     OW26727   3.219   3.611   4.154  0.3332 -0.7767  0.0278
 8704SOL    HW126728   3.176   3.640   4.235 -1.2340  0.3763 -1.1321
 8704SOL    HW226729   3.309   3.643   4.161 -0.3569  1.2412  0.4297
 8705SOL     OW26730   3.401   0.736   2.224 -0.6254  0.4686  0.0046
 8705SOL    HW126731   3.415   0.828   2.201 -3.3264  0.2731 -3.1857
 8705SOL    HW226732   3.456   0.687   2.162 -2.0720 -0.0069 -0.9749
 8706SOL     OW26733   6.199   7.035   4.245 -0.0082 -0.4188 -0.0010
 8706SOL    HW126734   6.200   7.126   4.215 -0.9528 -0.6179 -0.6759
 8706SOL    HW226735   6.287   7.020   4.278  0.7110  0.2110 -1.5369
 8707SOL     OW26736   6.483   1.758   3.446 -0.1977 -0.0608 -0.1972
 8707SOL    HW126737   6.450   1.668   3.441  0.8669 -0.4320 -0.8037
 8707SOL    HW226738   6.578   1.750   3.437 -0.2447  1.2913 -2.5508
 8708SOL     OW26739   1.742   4.300   6.580  0.4315  0.5120  0.3899
 8708SOL    HW126740   1.816   4.328   6.634 -0.1159  2.4236  0.2161
 8708SOL    HW226741   1.723   4.375   6.524  0.2731 -1.0282 -1.7330
 8709SOL     OW26742   2.726   0.358   1.885 -0.0476  0.6376  0.6428
 8709SOL    HW126743   2.778   0.438   1.893  0.2816  0.4425  0.5025
 8709SOL    HW226744   2.640   0.381   1.917  0.3348  0.7543  1.6147
 8710SOL     OW26745   3.485   0.268   4.637 -0.6569  0.2102 -0.5286
 8710SOL    HW126746   3.493   0.175   4.615 -0.1414  0.0093  0.4541
 8710SOL    HW226747   3.545   0.312   4.577 -0.7474 -0.1085 -0.8588
 8711SOL     OW26748   4.795   3.338   0.847 -0.8083  0.7134 -0.4635
 8711SOL    HW126749   4.793   3.333   0.942  0.2099  0.1262 -0.4499
 8711SOL    HW226750   4.792   3.246   0.818  0.8772  0.7494 -0.8987
 8712SOL     OW26751   5.230   1.535   3.624 -0.5768 -0.5280 -0.3966
 8712SOL    HW126752   5.196   1.576   3.703 -0.2501  0.2556 -0.6467
 8712SOL    HW226753   5.153   1.499   3.580 -0.8585 -0.3063 -0.0904
 8713SOL     OW26754   0.821   4.845   1.351  0.1164  0.0008 -0.3452
 8713SOL    HW126755   0.797   4.762   1.393  0.0974 -0.3840 -1.0986
 8713SOL    HW226756   0.758   4.856   1.280  0.1716  0.6239 -0.3035
 8714SOL     OW26757   6.266   5.258   1.286 -0.1014  0.0061  0.2402
 8714SOL    HW126758   6.238   5.248   1.377 -0.7185  3.5130  0.5961
 8714SOL    HW226759   6.199   5.316   1.248  0.4652 -0.9185 -2.2999
 8715SOL     OW26760   3.633   0.238   3.586 -0.2246  0.0169 -0.1281
 8715SOL    HW126761   3.692   0.270   3.654 -0.6271 -1.1913  0.8350
 8715SOL    HW226762   3.619   0.146   3.608 -0.6490 -0.3092 -1.6625
 8716SOL     OW26763   2.813   2.515   4.517  0.4449 -0.4609 -0.5915
 8716SOL    HW126764   2.757   2.453   4.564 -1.2540  1.8505  0.6986
 8716SOL    HW226765   2.752   2.570   4.468  1.9930 -0.7565 -3.0006
 8717SOL     OW26766   0.263   6.321   3.898  0.0788 -0.2085  0.3188
 8717SOL    HW126767   0.296   6.343   3.985  0.2685  0.8845 -0.0218
 8717SOL    HW226768   0.336   6.341   3.839 -0.6539  0.7742 -0.2756
 8718SOL     OW26769   5.446   0.804   3.245 -0.7158 -0.0085 -0.0384
 8718SOL    HW126770   5.381   0.796   3.316  0.4829 -0.7961  1.0142
 8718SOL    HW226771   5.476   0.895   3.250 -1.3878  0.2345 -0.2406
 8719SOL     OW26772   0.373   2.141   0.269  0.1394 -0.1979  0.8457
 8719SOL    HW126773   0.281   2.162   0.280 -0.0484  0.3714 -1.3178
 8719SOL    HW226774   0.411   2.149   0.357 -1.9966 -1.2848  1.9205
 8720SOL     OW26775   5.281   4.562   2.574  0.0200  0.2056 -0.4130
 8720SOL    HW126776   5.223   4.494   2.539  2.3308 -2.5241  0.5865
 8720SOL    HW226777   5.364   4.549   2.526  0.6695  2.0764  0.1324
 8721SOL     OW26778   0.458   5.780   4.227 -0.1393 -0.2596 -0.1190
 8721SOL    HW126779   0.431   5.868   4.254  1.0169  0.1689 -0.2873
 8721SOL    HW226780   0.502   5.793   4.143  0.3553 -0.9377  0.0229
 8722SOL     OW26781   1.040   1.627   6.882  0.5844  0.0779  0.5109
 8722SOL    HW126782   0.975   1.608   6.815  0.7822  0.6603  0.1522
 8722SOL    HW226783   1.089   1.545   6.892  1.7771  0.5058 -1.3957
 8723SOL     OW26784   4.492   6.870   1.648  0.1028  0.5038  0.1978
 8723SOL    HW126785   4.517   6.836   1.562  0.1487 -0.1036  0.4464
 8723SOL    HW226786   4.468   6.792   1.699  0.3228  0.8271  0.8151
 8724SOL     OW26787   3.506   7.245   4.658 -0.6864  0.1602 -0.0895
 8724SOL    HW126788   3.446   7.171   4.662 -1.4096  0.7737  1.9469
 8724SOL    HW226789   3.562   7.233   4.735 -0.1522  1.1763 -0.3098
 8725SOL     OW26790   1.963   6.954   1.731 -0.2275  0.0047  0.3453
 8725SOL    HW126791   1.944   7.047   1.730 -1.1423 -0.1759  0.3500
 8725SOL    HW226792   2.040   6.946   1.787 -0.8929  0.6319  1.3808
 8726SOL     OW26793   1.725   1.112   4.823 -0.0685  0.0671 -0.3549
 8726SOL    HW126794   1.639   1.091   4.860 -0.1001  0.9483  0.0954
 8726SOL    HW226795   1.777   1.141   4.898  1.0429 -1.6474 -0.3897
 8727SOL     OW26796   5.162   0.353   2.273  0.4806 -0.0214 -0.4261
 8727SOL    HW126797   5.168   0.269   2.227 -0.1538 -0.8681  0.9756
 8727SOL    HW226798   5.090   0.399   2.229  0.3329 -0.5206 -0.7185
 8728SOL     OW26799   7.170   0.465   0.602  0.0553 -0.5816 -0.1894
 8728SOL    HW126800   7.261   0.456   0.630  0.3849  1.8578 -0.2696
 8728SOL    HW226801   7.136   0.539   0.653 -0.8518  0.6755 -2.4579
 8729SOL     OW26802   0.163   5.066   4.941 -0.0366 -0.4483 -0.1514
 8729SOL    HW126803   0.153   4.988   4.995 -1.4604  0.2804  0.7066
 8729SOL    HW226804   0.074   5.089   4.915  0.3222  1.0045 -0.1918
 8730SOL     OW26805   2.334   2.884   6.487  0.1655 -0.1003  0.5438
 8730SOL    HW126806   2.383   2.941   6.547 -0.5905  2.1107 -0.8140
 8730SOL    HW226807   2.401   2.847   6.430  0.7022 -0.8185  1.6094
 8731SOL     OW26808   5.169   6.298   2.224 -0.0885 -0.0214 -0.2835
 8731SOL    HW126809   5.243   6.348   2.259  0.2257  0.2079 -1.2449
 8731SOL    HW226810   5.177   6.211   2.265 -1.2375  0.9538  2.2026
 8732SOL     OW26811   2.872   1.228   6.222  0.0498  0.7734  0.1997
 8732SOL    HW126812   2.893   1.188   6.307 -0.2435  0.1174 -0.0297
 8732SOL    HW226813   2.841   1.155   6.169 -0.6176  1.3376 -0.1926
 8733SOL     OW26814   0.323   1.844   1.809 -0.1949 -0.0465 -0.3875
 8733SOL    HW126815   0.301   1.927   1.851  1.0274  0.2937 -0.3784
 8733SOL    HW226816   0.265   1.780   1.850  0.9877  0.2597  1.9002
 8734SOL     OW26817   4.625   2.547   3.814 -0.4617  0.4609  0.3477
 8734SOL    HW126818   4.705   2.587   3.780 -0.4035  0.2211  0.1993
 8734SOL    HW226819   4.582   2.617   3.864 -0.5452  0.8213 -0.2157
 8735SOL     OW26820   5.184   0.674   2.632  0.2351 -0.1796 -0.3250
 8735SOL    HW126821   5.193   0.672   2.727  0.0576  0.4856 -0.2856
 8735SOL    HW226822   5.135   0.754   2.614  1.8189  0.6703 -1.0930
 8736SOL     OW26823   2.141   2.041   5.253  0.1460 -0.0721  0.3917
 8736SOL    HW126824   2.107   2.016   5.339 -0.2941  0.0356  0.2514
 8736SOL    HW226825   2.070   2.090   5.212  0.6220  0.5023  0.2457
 8737SOL     OW26826   4.406   4.951   6.081 -0.2694 -0.1840  0.2334
 8737SOL    HW126827   4.440   4.865   6.056 -0.9125 -0.4094  0.1276
 8737SOL    HW226828   4.485   5.003   6.096  0.2966  0.4496 -3.7321
 8738SOL     OW26829   1.570   1.407   7.256 -0.5634  0.5482 -0.3879
 8738SOL    HW126830   1.509   1.391   7.185 -0.8911  1.4529 -0.3234
 8738SOL    HW226831   1.515   1.422   7.333 -0.2653  1.1625 -0.2865
 8739SOL     OW26832   3.085   0.753   4.650  0.5630 -0.5161 -0.0006
 8739SOL    HW126833   3.087   0.753   4.554 -1.3738  1.8439 -0.1684
 8739SOL    HW226834   3.147   0.822   4.674 -1.7346  1.6699  0.1127
 8740SOL     OW26835   3.959   1.688   6.933  0.1788 -0.2485 -0.3350
 8740SOL    HW126836   3.930   1.603   6.898  0.0724 -0.0611 -0.7041
 8740SOL    HW226837   3.985   1.669   7.023 -0.5300 -0.5377 -0.1848
 8741SOL     OW26838   1.156   2.764   3.575  0.3374 -0.0945 -0.2482
 8741SOL    HW126839   1.122   2.744   3.488  0.3073 -0.3538 -0.1772
 8741SOL    HW226840   1.088   2.735   3.635 -0.5389  1.8776 -0.1916
 8742SOL     OW26841   3.183   2.346   5.563 -0.3050 -0.7737  0.0768
 8742SOL    HW126842   3.130   2.398   5.503  0.6715 -1.0698 -1.0728
 8742SOL    HW226843   3.203   2.406   5.635 -0.4078 -0.0008 -0.5239
 8743SOL     OW26844   0.221   6.778   0.325  0.1594 -0.2999  0.2736
 8743SOL    HW126845   0.158   6.800   0.393 -0.1492 -1.6633  0.4670
 8743SOL    HW226846   0.263   6.861   0.303  0.5034  0.1447  2.3575
 8744SOL     OW26847   6.322   6.351   2.429 -0.0092  0.4700 -0.1379
 8744SOL    HW126848   6.260   6.406   2.477 -0.5425 -0.2361 -0.0180
 8744SOL    HW226849   6.381   6.414   2.386 -0.3521  1.1286  0.3403
 8745SOL     OW26850   4.140   2.492   3.300 -0.3451 -0.5041  0.4153
 8745SOL    HW126851   4.222   2.542   3.305  0.3990 -1.6587  0.2795
 8745SOL    HW226852   4.169   2.402   3.283 -1.6374 -0.9838  0.6833
 8746SOL     OW26853   6.867   5.082   2.814  0.3882 -0.0128  0.2683
 8746SOL    HW126854   6.932   5.012   2.801 -0.0945 -0.3318 -0.5011
 8746SOL    HW226855   6.847   5.113   2.726 -0.7136 -0.1109  0.4721
 8747SOL     OW26856   5.264   1.119   0.229  0.1895  0.1502  0.1866
 8747SOL    HW126857   5.346   1.088   0.270 -0.2834  0.7850  1.6857
 8747SOL    HW226858   5.235   1.045   0.176  0.9743 -0.6429  0.8227
 8748SOL     OW26859   6.028   7.071   7.077  0.3482  0.1171  0.0765
 8748SOL    HW126860   6.067   7.141   7.024 -1.5344  1.7666  0.7040
 8748SOL    HW226861   5.936   7.070   7.051 -0.4291  0.2791  2.5225
 8749SOL     OW26862   4.220   1.909   6.496  0.3236  0.4521  0.9174
 8749SOL    HW126863   4.270   1.949   6.567 -0.2909 -1.1803  2.3389
 8749SOL    HW226864   4.218   1.816   6.517 -2.1399  0.2632  0.1936
 8750SOL     OW26865   2.427   1.318   5.344  0.3633  0.1766  0.0469
 8750SOL    HW126866   2.433   1.336   5.250  1.0394  1.5091  0.3249
 8750SOL    HW226867   2.376   1.391   5.378 -1.0810 -1.0137  0.5442
 8751SOL     OW26868   2.851   4.825   1.755  0.1870 -0.1736 -0.1026
 8751SOL    HW126869   2.939   4.844   1.789 -0.0900 -0.3195  0.7200
 8751SOL    HW226870   2.866   4.799   1.664  0.7958  1.8599 -0.6493
 8752SOL     OW26871   0.267   2.510   1.862  0.4384  0.0505 -0.2426
 8752SOL    HW126872   0.174   2.497   1.875  0.4185  0.5155  0.0973
 8752SOL    HW226873   0.287   2.592   1.907  1.0365 -0.1154 -0.1882
 8753SOL     OW26874   6.092   3.729   0.663 -0.4482  0.1602  0.1077
 8753SOL    HW126875   6.070   3.655   0.721  0.9277  0.5351  1.1633
 8753SOL    HW226876   6.180   3.710   0.632  0.0593  1.5038  0.6536
 8754SOL     OW26877   5.818   5.582   5.985 -0.3749  0.3573  0.5871
 8754SOL    HW126878   5.857   5.577   6.072  0.6070  1.3929  0.2339
 8754SOL    HW226879   5.809   5.676   5.967  0.6967  0.2184 -0.9421
 8755SOL     OW26880   0.178   6.278   2.302 -0.1128  0.4013  0.0311
 8755SOL    HW126881   0.092   6.250   2.334 -0.1600 -0.6080 -0.9276
 8755SOL    HW226882   0.170   6.279   2.207  1.4721 -1.6065 -0.1946
 8756SOL     OW26883   1.921   1.218   5.660  0.0375 -0.4603  0.7085
 8756SOL    HW126884   1.891   1.181   5.577  0.1910 -1.3450  1.0398
 8756SOL    HW226885   2.014   1.235   5.646  0.1018 -0.7683  0.7498
 8757SOL     OW26886   2.627   6.857   6.716  0.2712 -0.0500 -0.1649
 8757SOL    HW126887   2.706   6.908   6.735 -0.5131  1.0348  0.2512
 8757SOL    HW226888   2.556   6.922   6.714 -1.3837 -1.3952  3.8719
 8758SOL     OW26889   0.857   3.362   3.490  0.1267  0.5336  0.0962
 8758SOL    HW126890   0.799   3.401   3.425  1.0161 -0.7029 -1.5037
 8758SOL    HW226891   0.812   3.375   3.573 -3.2347 -1.6247 -1.1652
 8759SOL     OW26892   2.416   3.538   2.199  0.1503  0.3000 -0.0519
 8759SOL    HW126893   2.337   3.578   2.163 -0.6513 -0.5809  0.6868
 8759SOL    HW226894   2.407   3.445   2.178  0.2346 -0.0474  1.3755
 8760SOL     OW26895   4.946   3.904   4.899  0.0790 -0.3109 -0.4004
 8760SOL    HW126896   4.987   3.990   4.896  0.0040 -0.2976 -2.0973
 8760SOL    HW226897   5.014   3.846   4.934 -0.0010  0.4711  1.1376
 8761SOL     OW26898   2.725   3.868   1.612  0.1747  0.0180 -0.2676
 8761SOL    HW126899   2.677   3.917   1.545  1.5515 -0.8924 -2.0178
 8761SOL    HW226900   2.731   3.780   1.576  1.1367 -0.4442  0.9822
 8762SOL     OW26901   7.117   4.160   0.240  0.0134 -0.6226  0.7128
 8762SOL    HW126902   7.036   4.144   0.289 -0.1885  1.2399  1.0602
 8762SOL    HW226903   7.087   4.192   0.155  0.3430  1.3553  1.3005
 8763SOL     OW26904   4.042   2.996   4.640  0.0157 -0.3578  0.5076
 8763SOL    HW126905   4.108   2.943   4.595  1.5360  0.2326  1.9611
 8763SOL    HW226906   3.960   2.947   4.626  0.4662 -0.4987 -2.3298
 8764SOL     OW26907   1.809   6.169   6.532  0.0652 -0.3074  0.5425
 8764SOL    HW126908   1.716   6.150   6.523  0.2112 -1.3578  1.1310
 8764SOL    HW226909   1.821   6.252   6.485 -0.7559 -1.1945 -1.2938
 8765SOL     OW26910   5.666   3.513   2.258 -0.0309 -0.6076 -0.6596
 8765SOL    HW126911   5.743   3.566   2.277  0.8205 -1.0724 -2.5802
 8765SOL    HW226912   5.699   3.423   2.251 -1.5097 -1.6270  2.9660
 8766SOL     OW26913   2.837   5.164   3.264  0.3189 -0.1801 -0.1139
 8766SOL    HW126914   2.926   5.181   3.296  0.0128 -0.6848  1.0792
 8766SOL    HW226915   2.780   5.193   3.335 -0.4030 -1.2713 -0.2225
 8767SOL     OW26916   4.333   1.272   7.132  0.8764  0.2354 -0.3809
 8767SOL    HW126917   4.347   1.190   7.180  0.3175  0.7373  0.6822
 8767SOL    HW226918   4.353   1.341   7.196 -1.4233  0.9492 -0.3460
 8768SOL     OW26919   3.655   5.489   3.130 -0.1953  0.1990 -0.2482
 8768SOL    HW126920   3.724   5.479   3.065  0.0944 -1.7497  0.2887
 8768SOL    HW226921   3.677   5.425   3.198 -2.4429 -0.3688  0.0097
 8769SOL     OW26922   5.501   5.807   5.528 -0.1632  0.3047 -0.0740
 8769SOL    HW126923   5.548   5.746   5.472 -1.4331 -0.6457 -0.1630
 8769SOL    HW226924   5.469   5.875   5.468  0.2784  0.4336 -0.1623
 8770SOL     OW26925   1.480   6.017   3.840  0.6227 -0.6247 -0.0533
 8770SOL    HW126926   1.418   5.949   3.865  0.2047 -0.4668 -0.6240
 8770SOL    HW226927   1.566   5.978   3.854  0.3977 -0.8718  0.6837
 8771SOL     OW26928   3.556   1.543   7.130  0.0265 -0.4300  0.0321
 8771SOL    HW126929   3.494   1.494   7.077 -1.5673  1.5646 -0.0840
 8771SOL    HW226930   3.642   1.509   7.105 -0.7239 -0.3528 -3.0226
 8772SOL     OW26931   5.326   3.818   4.812  0.2725 -0.4929  0.6810
 8772SOL    HW126932   5.341   3.768   4.892 -0.4136 -1.3441  0.2904
 8772SOL    HW226933   5.273   3.761   4.757 -1.9822  1.2624  0.8663
 8773SOL     OW26934   0.664   0.586   5.752 -0.4963 -0.7151 -0.0526
 8773SOL    HW126935   0.658   0.667   5.802 -1.8323 -1.6100  1.3337
 8773SOL    HW226936   0.748   0.592   5.707 -1.0261  1.8944 -0.8699
 8774SOL     OW26937   4.182   0.466   4.381 -0.3078 -0.0065 -0.0381
 8774SOL    HW126938   4.093   0.467   4.416 -0.3107 -0.4587 -0.0300
 8774SOL    HW226939   4.175   0.413   4.302 -0.0186 -0.1447  0.0309
 8775SOL     OW26940   6.929   2.111   4.866 -0.4562  0.1664 -0.1907
 8775SOL    HW126941   6.881   2.071   4.939  0.1772 -0.6556 -0.2101
 8775SOL    HW226942   7.020   2.089   4.882 -0.2624  0.3184 -1.0186
 8776SOL     OW26943   6.377   6.863   3.202 -0.1033  0.6145  0.0287
 8776SOL    HW126944   6.341   6.814   3.275  1.6819  1.1541  1.3436
 8776SOL    HW226945   6.402   6.947   3.240  2.4020  0.3049 -0.7492
 8777SOL     OW26946   2.172   2.199   7.097  0.2405  0.5868 -0.1328
 8777SOL    HW126947   2.178   2.283   7.141 -0.5480  0.1627  0.8220
 8777SOL    HW226948   2.160   2.135   7.168 -0.8949 -0.1291 -0.9335
 8778SOL     OW26949   5.859   6.937   5.409 -0.4757  0.1033 -0.0343
 8778SOL    HW126950   5.940   6.888   5.397  0.0325  1.1180 -0.9620
 8778SOL    HW226951   5.863   6.969   5.499  0.6063  0.8697 -0.3284
 8779SOL     OW26952   5.963   6.856   2.544  0.0448 -0.3359  0.8625
 8779SOL    HW126953   5.907   6.855   2.622 -0.0934 -2.4269  0.7724
 8779SOL    HW226954   6.026   6.786   2.558 -0.4115 -1.2175 -1.2056
 8780SOL     OW26955   5.990   3.051   3.536 -0.1472 -0.2521  0.2785
 8780SOL    HW126956   6.001   2.987   3.606 -0.8786 -0.5778  0.1039
 8780SOL    HW226957   5.895   3.060   3.526 -0.0908  1.7600  1.1205
 8781SOL     OW26958   2.369   6.293   0.922  0.3914  0.1418  0.0133
 8781SOL    HW126959   2.280   6.310   0.892  0.5663 -1.5106 -1.6363
 8781SOL    HW226960   2.425   6.332   0.855  0.8775 -0.1737  0.2290
 8782SOL     OW26961   3.223   0.164   4.688 -0.2120 -0.1824 -0.2651
 8782SOL    HW126962   3.239   0.131   4.776  1.3980  0.7353 -0.1811
 8782SOL    HW226963   3.309   0.188   4.654 -1.1363  3.8122 -0.3332
 8783SOL     OW26964   5.864   4.304   2.887  0.6758 -0.0783 -0.2249
 8783SOL    HW126965   5.799   4.262   2.831  0.8709 -1.2271  0.3723
 8783SOL    HW226966   5.943   4.308   2.833  0.1264  1.3817 -0.9758
 8784SOL     OW26967   3.312   0.004   2.068  0.2778  0.2279 -0.3846
 8784SOL    HW126968   3.285  -0.022   2.156  0.5203  0.7405 -0.1545
 8784SOL    HW226969   3.280   0.094   2.058 -0.1976 -0.0064 -1.0177
 8785SOL     OW26970   1.952   5.658   7.156 -0.2398 -0.2394  0.2464
 8785SOL    HW126971   1.965   5.733   7.098 -1.3857 -0.3211 -0.1503
 8785SOL    HW226972   2.039   5.638   7.190  0.1536  0.9699 -0.0087
 8786SOL     OW26973   3.721   4.803   2.060 -0.1143  0.3405  0.3755
 8786SOL    HW126974   3.674   4.820   1.979 -0.3677  1.0404  0.6622
 8786SOL    HW226975   3.675   4.729   2.099 -0.9371  0.9572  0.6070
 8787SOL     OW26976   2.752   4.030   4.979  0.2072  0.5924 -0.0011
 8787SOL    HW126977   2.733   4.030   5.073  0.5868  2.2671  0.1199
 8787SOL    HW226978   2.684   4.086   4.941 -1.9974 -2.6630 -1.2815
 8788SOL     OW26979   5.391   6.460   2.752 -0.0474  0.3532 -0.2269
 8788SOL    HW126980   5.365   6.431   2.665 -0.7529  0.8599 -0.1899
 8788SOL    HW226981   5.415   6.379   2.798  1.3383  0.1707 -1.1987
 8789SOL     OW26982   6.113   2.770   5.853 -0.2151 -0.1583 -0.4089
 8789SOL    HW126983   6.096   2.855   5.893 -0.5737  0.6562 -2.1934
 8789SOL    HW226984   6.207   2.770   5.835 -0.2709 -0.0189 -0.6917
 8790SOL     OW26985   5.737   4.969   0.583 -0.3479 -0.5039  0.0783
 8790SOL    HW126986   5.773   4.978   0.495  0.9941 -3.4823  0.2107
 8790SOL    HW226987   5.805   5.003   0.641  1.8862 -4.6437  0.2255
 8791SOL     OW26988   0.294   4.867   3.766  0.4645  0.4749 -0.3560
 8791SOL    HW126989   0.244   4.826   3.696  0.5809 -1.6166  0.7203
 8791SOL    HW226990   0.318   4.953   3.731  1.3195 -0.8247 -3.2468
 8792SOL     OW26991   3.256   3.347   4.051  0.3165  0.0622  0.7567
 8792SOL    HW126992   3.183   3.315   4.104 -1.2440 -1.0586 -1.8776
 8792SOL    HW226993   3.247   3.442   4.053 -0.3118  0.0029  1.6143
 8793SOL     OW26994   6.065   2.573   1.217  0.1240  0.7400  0.0811
 8793SOL    HW126995   6.134   2.537   1.161  0.4711 -0.0048  0.9580
 8793SOL    HW226996   5.993   2.594   1.158  0.0350 -1.1165 -0.5010
 8794SOL     OW26997   4.226   4.166   0.972  0.3013  0.1197  0.0632
 8794SOL    HW126998   4.258   4.161   1.063  0.6211 -0.9213 -0.0921
 8794SOL    HW226999   4.305   4.174   0.919  0.0709  1.9897 -0.0855
 8795SOL     OW27000   1.504   6.719   0.622 -0.1541  0.3088 -0.0961
 8795SOL    HW127001   1.421   6.697   0.579 -0.0753 -1.5555  0.5896
 8795SOL    HW227002   1.565   6.732   0.549 -0.4738 -0.8624 -0.5967
 8796SOL     OW27003   3.030   4.174   6.495 -0.2379 -0.0760  0.2431
 8796SOL    HW127004   2.999   4.209   6.579  0.7654 -0.2221  0.6900
 8796SOL    HW227005   3.111   4.222   6.477  0.5610 -1.3488  0.3051
 8797SOL     OW27006   5.803   5.890   4.184  0.0944 -0.2039 -0.0638
 8797SOL    HW127007   5.869   5.864   4.249 -0.0625 -1.5652 -0.4006
 8797SOL    HW227008   5.760   5.967   4.221 -0.6491 -1.4992  1.9086
 8798SOL     OW27009   1.190   0.057   5.282  0.2481 -0.2966  0.2445
 8798SOL    HW127010   1.265   0.067   5.340  0.1183  1.4289  0.1620
 8798SOL    HW227011   1.114   0.076   5.337  0.1030  1.0543 -0.3731
 8799SOL     OW27012   2.655   6.851   0.043  0.3737  0.0579 -0.4484
 8799SOL    HW127013   2.645   6.852   0.138  0.0968 -1.6991 -0.4321
 8799SOL    HW227014   2.567   6.869   0.009  0.3641  0.1336 -0.3837
 8800SOL     OW27015   1.220   6.202   6.884  0.0391 -0.1175 -0.2883
 8800SOL    HW127016   1.147   6.166   6.934  1.3000 -1.4976  0.6550
 8800SOL    HW227017   1.213   6.162   6.798 -1.5878  1.5252 -0.9928
 8801SOL     OW27018   1.018   6.141   5.577  0.6824 -0.0322 -0.0319
 8801SOL    HW127019   1.020   6.079   5.651  1.8053 -1.4841 -1.1991
 8801SOL    HW227020   0.971   6.094   5.508  1.0447  0.6534 -0.7580
 8802SOL     OW27021   2.301   1.451   2.077  0.2327 -0.0010 -0.0396
 8802SOL    HW127022   2.394   1.439   2.058  0.5301  1.1069  0.6094
 8802SOL    HW227023   2.299   1.521   2.142 -0.8551 -2.1790  2.4681
 8803SOL     OW27024   1.662   4.697   3.960  0.0642 -0.2235  0.0209
 8803SOL    HW127025   1.723   4.687   3.887 -0.3330 -0.9914 -0.2168
 8803SOL    HW227026   1.709   4.752   4.023  0.4646  0.3282 -0.7480
 8804SOL     OW27027   2.118   5.737   2.000  0.5206 -0.2585  0.3419
 8804SOL    HW127028   2.102   5.710   2.090 -0.1839 -1.2807 -0.0681
 8804SOL    HW227029   2.096   5.660   1.947  1.2165  0.2159 -0.6855
 8805SOL     OW27030   3.286   6.768   3.217  0.2943  0.2868 -0.2397
 8805SOL    HW127031   3.363   6.806   3.173  0.4939  0.8554  0.5752
 8805SOL    HW227032   3.308   6.676   3.228  0.7601  0.3961 -0.2330
 8806SOL     OW27033   6.217   1.674   6.011 -0.3691 -0.5489 -0.3767
 8806SOL    HW127034   6.189   1.628   5.932 -0.5035 -0.0372 -0.6361
 8806SOL    HW227035   6.278   1.741   5.979  0.4592 -1.0720  0.0867
 8807SOL     OW27036   3.647   5.628   6.777  0.5370 -0.0972  0.3095
 8807SOL    HW127037   3.706   5.576   6.833 -0.1016  0.4344  1.5082
 8807SOL    HW227038   3.574   5.569   6.759  0.7350 -0.2640  0.0455
 8808SOL     OW27039   6.457   4.985   4.176 -0.2596  0.5990  0.3140
 8808SOL    HW127040   6.551   4.999   4.189 -0.2941  1.2358 -0.0607
 8808SOL    HW227041   6.420   4.991   4.264  0.1645 -0.6603  0.5880
 8809SOL     OW27042   6.187   5.990   6.309  0.4313 -0.2367 -0.0807
 8809SOL    HW127043   6.117   6.053   6.293  0.9259  0.1136 -0.8877
 8809SOL    HW227044   6.146   5.924   6.366 -0.2634  0.4758  0.2727
 8810SOL     OW27045   6.049   2.064   3.466 -0.2407 -0.7086  0.2120
 8810SOL    HW127046   6.066   2.138   3.408  0.2724  1.1418  2.5631
 8810SOL    HW227047   6.105   1.993   3.432 -0.8441 -0.1277 -2.1743
 8811SOL     OW27048   6.184   4.391   1.302  0.2029  0.9395  0.0782
 8811SOL    HW127049   6.130   4.453   1.253  0.3940  1.9141  1.0562
 8811SOL    HW227050   6.247   4.446   1.349  1.9321 -0.1516 -0.8684
 8812SOL     OW27051   3.827   3.645   2.983 -0.5518  0.0822 -0.0960
 8812SOL    HW127052   3.838   3.725   3.034 -0.0542  0.5731 -0.9394
 8812SOL    HW227053   3.894   3.586   3.017 -0.7359  0.1139  0.3373
 8813SOL     OW27054   3.580   2.354   5.656 -0.0264 -0.1935 -0.0034
 8813SOL    HW127055   3.625   2.438   5.647  1.0950 -0.7854 -0.0897
 8813SOL    HW227056   3.542   2.357   5.744 -1.1911  0.9523 -0.5207
 8814SOL     OW27057   2.770   6.036   6.054 -0.0094  0.6023  0.2793
 8814SOL    HW127058   2.814   5.969   6.107  0.3764 -0.6408 -1.5061
 8814SOL    HW227059   2.807   6.025   5.967  0.0802  3.2031 -0.0937
 8815SOL     OW27060   4.147   6.011   0.200 -0.0539 -0.3609  0.1640
 8815SOL    HW127061   4.065   6.060   0.207  0.1559 -0.0246  0.2808
 8815SOL    HW227062   4.123   5.921   0.224 -0.5673 -0.4527 -0.6494
 8816SOL     OW27063   5.535   5.666   6.068 -0.5458 -0.1108  0.4232
 8816SOL    HW127064   5.547   5.642   5.976  0.2779  0.7539  0.2802
 8816SOL    HW227065   5.535   5.582   6.115  1.2094 -0.4773 -0.1504
 8817SOL     OW27066   0.824   3.826   1.937 -0.0077 -0.1688  0.0423
 8817SOL    HW127067   0.812   3.791   2.025  2.2930 -0.1349  0.4322
 8817SOL    HW227068   0.879   3.903   1.949  0.7861 -0.4573 -1.4513
 8818SOL     OW27069   0.347   2.555   1.559 -0.3095 -0.1907  0.3285
 8818SOL    HW127070   0.346   2.557   1.655 -0.3350 -0.0433  0.3254
 8818SOL    HW227071   0.255   2.545   1.534 -0.2416 -0.8459  0.3314
 8819SOL     OW27072   6.909   1.596   6.825  0.0911 -0.2563  0.4120
 8819SOL    HW127073   6.867   1.517   6.858 -0.5558 -0.1606 -0.1688
 8819SOL    HW227074   6.977   1.565   6.766  0.4450 -0.3945  0.8820
 8820SOL     OW27075   3.835   0.731   6.722  0.0882 -0.0273 -0.1934
 8820SOL    HW127076   3.851   0.700   6.633  0.4362 -1.8816  0.4763
 8820SOL    HW227077   3.776   0.805   6.711 -1.5467 -1.4681 -1.8650
 8821SOL     OW27078   4.573   1.385   1.938 -0.5751  0.7125 -0.1432
 8821SOL    HW127079   4.602   1.468   1.977  0.2665  0.0446  0.6959
 8821SOL    HW227080   4.533   1.337   2.011 -0.0737 -0.0655 -0.3718
 8822SOL     OW27081   0.619   5.951   0.182 -0.1069 -0.0617  0.3738
 8822SOL    HW127082   0.585   6.017   0.242 -0.9739 -0.1810  0.0260
 8822SOL    HW227083   0.645   5.878   0.239  0.7790  0.5323  0.7504
 8823SOL     OW27084   2.368   6.653   4.757  0.1348 -0.0086  0.0287
 8823SOL    HW127085   2.325   6.616   4.680  1.2757 -0.7725 -0.2676
 8823SOL    HW227086   2.373   6.580   4.819  0.8047  0.1169  0.1309
 8824SOL     OW27087   6.577   4.217   6.517 -0.0893 -0.5906 -0.6190
 8824SOL    HW127088   6.628   4.272   6.457  0.3776 -0.6855 -0.3153
 8824SOL    HW227089   6.486   4.236   6.495  0.0736 -0.5909 -1.3242
 8825SOL     OW27090   0.219   6.994   0.748  0.8395 -0.5111  0.3094
 8825SOL    HW127091   0.174   7.023   0.668 -0.0420 -1.3780  0.4655
 8825SOL    HW227092   0.217   7.070   0.806 -0.1398 -0.4118  0.1746
 8826SOL     OW27093   0.202   5.924   2.511 -0.1411 -0.0822  0.0233
 8826SOL    HW127094   0.250   6.006   2.519 -0.8846  0.7346 -2.7319
 8826SOL    HW227095   0.110   5.951   2.500 -0.6088 -1.3698  0.5210
 8827SOL     OW27096   2.607   1.838   1.081 -0.2556 -0.0788 -0.3425
 8827SOL    HW127097   2.537   1.843   1.145 -0.7177 -1.1297 -0.7518
 8827SOL    HW227098   2.603   1.749   1.047  2.4262 -0.7908  0.9175
 8828SOL     OW27099   4.552   5.127   2.135 -0.3595  0.5165  0.4688
 8828SOL    HW127100   4.514   5.049   2.094  0.3246  0.8169 -0.7919
 8828SOL    HW227101   4.478   5.172   2.175 -1.0033  0.0133 -0.1388
 8829SOL     OW27102   3.350   0.855   5.726  0.0290 -0.6213  0.8969
 8829SOL    HW127103   3.356   0.925   5.792 -1.2046 -1.5686  2.0708
 8829SOL    HW227104   3.360   0.774   5.776  0.9107 -1.3285 -0.3724
 8830SOL     OW27105   7.214   3.246   3.164 -0.1535  0.5017 -0.3886
 8830SOL    HW127106   7.196   3.300   3.087  1.6756 -1.1600 -2.1072
 8830SOL    HW227107   7.300   3.274   3.194 -1.0382  1.4621  1.4543
 8831SOL     OW27108   5.273   2.615   1.039 -0.2532 -0.1585 -0.4954
 8831SOL    HW127109   5.328   2.537   1.037 -1.2182 -0.9335  1.1219
 8831SOL    HW227110   5.256   2.635   0.946  1.9394 -0.4225 -1.0034
 8832SOL     OW27111   6.222   2.764   4.230  0.0212 -0.2157 -0.3834
 8832SOL    HW127112   6.239   2.672   4.250 -2.2482 -0.8070 -0.8630
 8832SOL    HW227113   6.309   2.804   4.222  1.0513 -2.0885  0.7578
 8833SOL     OW27114   4.883   6.703   3.816 -0.5266 -0.0294 -0.3356
 8833SOL    HW127115   4.854   6.794   3.822 -0.3526  0.0178 -0.1899
 8833SOL    HW227116   4.959   6.706   3.757 -0.0460  0.0355  0.2793
 8834SOL     OW27117   0.367   4.545   1.318  0.3198 -0.6492  0.3475
 8834SOL    HW127118   0.369   4.500   1.402 -0.4305 -0.9634  0.1984
 8834SOL    HW227119   0.386   4.477   1.253 -2.1808 -1.0876 -0.0036
 8835SOL     OW27120   2.963   3.892   2.348  0.2597 -1.0281  0.4429
 8835SOL    HW127121   2.970   3.935   2.433  3.9025  0.8451 -0.6087
 8835SOL    HW227122   2.887   3.933   2.306  0.9300  1.1405  1.2333
 8836SOL     OW27123   0.306   6.691   2.628  0.0328 -0.0838 -0.1396
 8836SOL    HW127124   0.393   6.720   2.654 -0.1291 -0.0227  0.3463
 8836SOL    HW227125   0.253   6.770   2.627 -0.2009 -0.2292  0.3320
 8837SOL     OW27126   5.298   5.968   1.633  0.2231 -0.0121 -0.0307
 8837SOL    HW127127   5.239   5.944   1.705 -0.1107  0.5431 -0.1118
 8837SOL    HW227128   5.251   6.037   1.586  0.3323 -0.5277 -0.9208
 8838SOL     OW27129   3.036   4.488   0.587  0.3376 -0.3375  0.8963
 8838SOL    HW127130   3.036   4.565   0.529  2.0398  0.2633  1.6108
 8838SOL    HW227131   2.995   4.519   0.667 -2.0519 -1.1803  0.0948
 8839SOL     OW27132   0.725   3.544   3.313  0.1021  0.6620 -0.1937
 8839SOL    HW127133   0.798   3.518   3.257  0.6301  1.7716 -0.0413
 8839SOL    HW227134   0.650   3.547   3.254  0.5968  1.5547 -0.8081
 8840SOL     OW27135   3.468   3.056   4.813 -0.0262  0.2224  0.1803
 8840SOL    HW127136   3.530   2.999   4.858 -1.0818 -0.5542  0.6960
 8840SOL    HW227137   3.471   3.028   4.722 -2.0658 -2.2157  0.7316
 8841SOL     OW27138   5.973   5.074   0.666 -0.4670  0.1656 -0.1241
 8841SOL    HW127139   6.029   5.151   0.658 -0.2547 -0.0308 -0.5857
 8841SOL    HW227140   5.974   5.053   0.759  0.8616 -0.3000 -0.2151
 8842SOL     OW27141   1.562   1.511   1.231  0.1039 -0.3199 -0.4387
 8842SOL    HW127142   1.543   1.530   1.139 -0.2553  0.6594 -0.1745
 8842SOL    HW227143   1.621   1.582   1.258 -2.9556  1.8500  1.1794
 8843SOL     OW27144   2.214   5.043   7.055  0.0833 -0.2507  0.4042
 8843SOL    HW127145   2.211   5.082   6.967 -2.2513  1.7720  1.2683
 8843SOL    HW227146   2.138   5.080   7.100  0.2186 -2.5725  2.7627
 8844SOL     OW27147   3.784   3.412   7.198  0.3751 -0.4063 -0.1977
 8844SOL    HW127148   3.818   3.360   7.271 -1.5079 -0.6002  0.5990
 8844SOL    HW227149   3.751   3.492   7.238  0.6236  0.1247 -1.0321
 8845SOL     OW27150   5.112   3.800   4.403 -0.5514 -0.9183 -0.6437
 8845SOL    HW127151   5.044   3.745   4.365 -1.8117 -0.6812  1.1688
 8845SOL    HW227152   5.167   3.739   4.454 -0.6312 -0.8224 -0.4411
 8846SOL     OW27153   6.134   1.438   3.237 -0.7362 -0.0370  0.6661
 8846SOL    HW127154   6.217   1.391   3.246 -1.0428 -1.0764 -1.2425
 8846SOL    HW227155   6.140   1.510   3.299  1.3709 -0.3962  0.9546
 8847SOL     OW27156   6.353   0.949   1.417 -0.3662  0.2025 -0.1720
 8847SOL    HW127157   6.342   1.042   1.395 -0.4359  0.6752  1.7160
 8847SOL    HW227158   6.264   0.916   1.426 -0.3392 -0.0067 -0.6526
 8848SOL     OW27159   1.431   1.839   4.378 -0.4355  0.5331  0.3121
 8848SOL    HW127160   1.367   1.794   4.433  0.2074 -1.4412 -0.4639
 8848SOL    HW227161   1.494   1.876   4.440  0.6596 -2.2162  1.0285
 8849SOL     OW27162   5.482   5.650   3.803 -0.2727 -0.1674  0.2080
 8849SOL    HW127163   5.516   5.738   3.820  0.5423 -0.8827  2.7270
 8849SOL    HW227164   5.465   5.614   3.889 -2.7163 -1.7301 -0.8300
 8850SOL     OW27165   6.786   2.408   6.692 -0.2548  0.5060 -0.0856
 8850SOL    HW127166   6.710   2.351   6.684  0.1698  0.0866 -1.3295
 8850SOL    HW227167   6.820   2.392   6.780  0.3871 -1.8552 -0.7014
 8851SOL     OW27168   3.633   6.134   2.630  0.5606  0.4390 -0.3911
 8851SOL    HW127169   3.629   6.218   2.675 -1.8522  0.5241 -0.6281
 8851SOL    HW227170   3.682   6.153   2.549  0.3008  1.5546 -0.3068
 8852SOL     OW27171   0.871   3.668   4.178 -0.3437 -0.4101 -0.0504
 8852SOL    HW127172   0.887   3.740   4.118 -3.3265 -0.3102 -0.8862
 8852SOL    HW227173   0.906   3.591   4.133  1.8876  0.2667  0.3792
 8853SOL     OW27174   1.542   5.729   5.249 -0.0714  0.1091  0.2050
 8853SOL    HW127175   1.588   5.774   5.319 -1.3505 -0.8674  1.7658
 8853SOL    HW227176   1.450   5.728   5.277 -0.4123 -1.5349 -0.8041
 8854SOL     OW27177   5.695   5.921   3.755  0.3381 -0.4637  0.3178
 8854SOL    HW127178   5.712   5.911   3.662  0.1938  1.0760  0.1023
 8854SOL    HW227179   5.617   5.977   3.760  0.0215 -0.9637  1.3571
 8855SOL     OW27180   5.913   2.497   0.355 -0.5687  0.2131  0.0397
 8855SOL    HW127181   5.892   2.476   0.446 -1.8519 -0.2249 -0.3355
 8855SOL    HW227182   5.998   2.454   0.340 -1.4650 -1.8144  0.3429
 8856SOL     OW27183   4.497   3.219   5.809  0.0622  0.0141 -0.1867
 8856SOL    HW127184   4.440   3.145   5.788  0.6883 -0.4685 -0.2040
 8856SOL    HW227185   4.440   3.296   5.802 -0.9082 -0.5553  1.0275
 8857SOL     OW27186   1.444   1.010   2.011  0.3639  0.1936  0.6730
 8857SOL    HW127187   1.466   1.103   2.015 -0.7848  0.5884 -0.9885
 8857SOL    HW227188   1.525   0.965   2.035  1.8765  1.5915 -1.4470
 8858SOL     OW27189   3.047   0.560   3.035  0.1402 -0.2247 -0.5295
 8858SOL    HW127190   3.107   0.487   3.020  0.7551  0.1463  0.0346
 8858SOL    HW227191   2.999   0.536   3.114 -0.1639 -0.3326 -0.7446
 8859SOL     OW27192   1.515   0.020   5.107 -0.0154 -0.1705  0.3204
 8859SOL    HW127193   1.581  -0.047   5.093  1.0222  0.3904  2.1809
 8859SOL    HW227194   1.488   0.047   5.019  0.4193 -2.1368 -0.4611
 8860SOL     OW27195   1.983   3.788   2.561  0.5685  0.2906 -0.1773
 8860SOL    HW127196   2.011   3.867   2.515  1.2154  1.1169  1.5689
 8860SOL    HW227197   1.908   3.816   2.613 -0.0084 -0.5819 -0.5063
 8861SOL     OW27198   2.970   4.101   1.832  0.0635  0.0571 -0.2896
 8861SOL    HW127199   2.937   4.013   1.847  0.7639 -0.3590 -1.1009
 8861SOL    HW227200   2.909   4.158   1.879 -0.7198 -0.8098 -0.2255
 8862SOL     OW27201   1.011   6.482   0.069 -0.6721  0.2142 -0.4049
 8862SOL    HW127202   0.945   6.415   0.091 -2.2067  2.0587  0.8958
 8862SOL    HW227203   1.069   6.484   0.145 -1.0686  0.8358 -0.1085
 8863SOL     OW27204   4.109   4.592   0.172 -0.0938  0.6059  0.6404
 8863SOL    HW127205   4.022   4.621   0.197 -0.7222 -1.1443  0.6154
 8863SOL    HW227206   4.100   4.562   0.082  0.0198 -1.4228  1.2492
 8864SOL     OW27207   2.486   5.938   1.016 -0.1210 -0.5300 -0.6892
 8864SOL    HW127208   2.545   5.870   0.984  1.2532  1.1621 -1.9530
 8864SOL    HW227209   2.423   5.891   1.071  1.5403 -2.6212 -0.4171
 8865SOL     OW27210   4.409   6.712   6.841 -0.2787  0.0586  0.0429
 8865SOL    HW127211   4.503   6.718   6.823 -0.1381  2.5044  1.1820
 8865SOL    HW227212   4.404   6.676   6.930 -0.6194 -2.9026 -1.0566
 8866SOL     OW27213   2.850   1.186   1.606  0.5375  0.0435  0.2437
 8866SOL    HW127214   2.922   1.191   1.542  1.0237 -0.9577  0.6842
 8866SOL    HW227215   2.827   1.093   1.608  1.9191 -0.3268  2.9866
 8867SOL     OW27216   7.191   3.463   2.988  0.3173 -0.6626  0.0117
 8867SOL    HW127217   7.192   3.488   2.896  0.3276  2.4908  0.7657
 8867SOL    HW227218   7.165   3.543   3.035  1.4594 -1.8119  2.8404
 8868SOL     OW27219   6.633   4.711   2.646 -0.1083 -0.5701 -0.0037
 8868SOL    HW127220   6.656   4.769   2.574 -2.5572  1.2987  0.5893
 8868SOL    HW227221   6.706   4.719   2.708  0.2179  0.8437 -0.5425
 8869SOL     OW27222   6.193   1.102   1.068 -0.3168 -0.3686  0.1207
 8869SOL    HW127223   6.234   1.181   1.105  1.1129 -0.4992 -1.1277
 8869SOL    HW227224   6.205   1.110   0.974 -0.4797 -1.9121 -0.0561
 8870SOL     OW27225   7.077   3.606   1.890 -0.5575 -0.3812  0.1428
 8870SOL    HW127226   7.017   3.636   1.957 -1.3274 -1.1491 -0.1778
 8870SOL    HW227227   7.137   3.546   1.936 -1.8068 -1.8365 -0.0245
 8871SOL     OW27228   5.107   3.789   4.053  0.1455  0.1471 -0.5546
 8871SOL    HW127229   5.087   3.881   4.068  0.8626  0.1328  0.6247
 8871SOL    HW227230   5.059   3.743   4.122  0.1209 -0.3265 -0.8826
 8872SOL     OW27231   3.750   4.283   6.770 -0.8195  0.0761  0.2123
 8872SOL    HW127232   3.662   4.268   6.737 -0.2208 -0.2623 -1.3298
 8872SOL    HW227233   3.766   4.376   6.753 -1.4645  0.5514  2.0354
 8873SOL     OW27234   6.720   1.350   0.333  0.4132  0.2281 -0.1309
 8873SOL    HW127235   6.767   1.401   0.267 -0.3231  0.0302 -0.8215
 8873SOL    HW227236   6.713   1.408   0.408 -0.0236  0.9920 -0.7488
 8874SOL     OW27237   5.586   6.221   5.734 -0.2459  0.1061  0.2272
 8874SOL    HW127238   5.582   6.227   5.830 -0.5474  0.9767  0.1708
 8874SOL    HW227239   5.587   6.312   5.705  0.6762 -0.1451 -0.5723
 8875SOL     OW27240   3.267   2.755   1.988  0.2982  0.1833  0.5283
 8875SOL    HW127241   3.341   2.739   2.047  1.2667 -0.3555 -0.7922
 8875SOL    HW227242   3.276   2.847   1.963  0.5184  0.1237  0.3843
 8876SOL     OW27243   3.134   5.109   1.500  1.0178 -0.0249 -0.5582
 8876SOL    HW127244   3.210   5.066   1.462  0.4409 -1.0230 -0.6188
 8876SOL    HW227245   3.126   5.191   1.451  1.9610  0.0302 -0.6400
 8877SOL     OW27246   5.737   5.473   0.516  0.2408  0.6433 -0.0484
 8877SOL    HW127247   5.747   5.520   0.433  0.3402  0.9035  0.1129
 8877SOL    HW227248   5.663   5.415   0.501  0.4645  0.4471 -0.4359
 8878SOL     OW27249   1.420   4.447   1.917  0.7480 -0.7868  0.7818
 8878SOL    HW127250   1.429   4.542   1.915 -1.1591 -0.5871  0.3207
 8878SOL    HW227251   1.413   4.426   2.010  0.4562 -0.4013  0.8474
 8879SOL     OW27252   3.099   3.193   4.214  0.3243  0.5499 -0.6261
 8879SOL    HW127253   3.116   3.107   4.254  0.7334  1.6457  1.7291
 8879SOL    HW227254   3.007   3.210   4.233  0.3281  0.7661 -0.8089
 8880SOL     OW27255   4.713   6.242   3.363  0.4534  0.0214  0.2205
 8880SOL    HW127256   4.720   6.288   3.447 -0.3900 -1.0031  0.8827
 8880SOL    HW227257   4.779   6.173   3.368  1.9148  1.2775 -0.8877
 8881SOL     OW27258   0.546   0.855   0.819  0.3316  0.1894  0.2849
 8881SOL    HW127259   0.565   0.806   0.739  2.3194 -0.5489  1.1490
 8881SOL    HW227260   0.610   0.925   0.821  0.2535  0.2515  1.1836
 8882SOL     OW27261   4.514   5.656   6.747  0.1392  0.5112 -0.7109
 8882SOL    HW127262   4.451   5.592   6.714 -1.1603  1.8344 -0.8948
 8882SOL    HW227263   4.526   5.633   6.839  1.6116 -1.4749 -1.3387
 8883SOL     OW27264   0.158   4.378   1.875 -0.2154  0.1665 -0.0108
 8883SOL    HW127265   0.112   4.431   1.810 -0.5567  0.9099  0.8112
 8883SOL    HW227266   0.250   4.403   1.866 -0.2089 -0.0059 -0.4483
 8884SOL     OW27267   2.677   1.884   6.301  0.3719 -0.0530  0.3422
 8884SOL    HW127268   2.740   1.887   6.372 -0.0065  0.7705  0.6474
 8884SOL    HW227269   2.638   1.971   6.298 -1.4755 -0.8084  0.8281
 8885SOL     OW27270   3.097   6.401   6.322 -0.5104 -0.2528 -0.3818
 8885SOL    HW127271   3.186   6.417   6.292 -0.1505 -1.5557 -0.0819
 8885SOL    HW227272   3.107   6.350   6.403 -1.5086  0.8292  0.4704
 8886SOL     OW27273   6.758   0.631   1.064  0.2882  0.1454  0.1476
 8886SOL    HW127274   6.704   0.552   1.065  0.6031 -0.0780 -0.2218
 8886SOL    HW227275   6.829   0.611   1.003  0.0811  0.9045 -0.3651
 8887SOL     OW27276   6.825   3.697   6.935 -0.3068 -0.3532  0.0638
 8887SOL    HW127277   6.817   3.626   6.871 -1.0623 -0.6660  0.4835
 8887SOL    HW227278   6.824   3.777   6.882  2.3627 -0.6654 -0.5621
 8888SOL     OW27279   4.215   6.009   5.041 -0.1853  0.5291 -0.1584
 8888SOL    HW127280   4.236   5.918   5.022 -0.9472  0.3727 -0.3010
 8888SOL    HW227281   4.244   6.058   4.964 -1.7793  0.1097 -1.0822
 8889SOL     OW27282   3.101   5.642   3.561  0.2094 -0.6914  0.5415
 8889SOL    HW127283   3.139   5.709   3.505 -0.5988 -1.4651 -0.9857
 8889SOL    HW227284   3.172   5.581   3.577 -0.4262 -2.6613 -3.1045
 8890SOL     OW27285   0.159   4.825   1.984 -0.5272  0.1846  0.2892
 8890SOL    HW127286   0.154   4.910   1.941  3.6840 -0.2462 -1.6331
 8890SOL    HW227287   0.216   4.840   2.060  0.8097 -0.9123 -0.4419
 8891SOL     OW27288   6.660   7.026   4.875  0.1498 -0.0287 -0.3917
 8891SOL    HW127289   6.631   7.107   4.834 -0.5124  0.3166  0.6996
 8891SOL    HW227290   6.748   7.045   4.907  0.0263  0.2429 -0.2063
 8892SOL     OW27291   4.990   6.502   4.086 -0.1253 -0.3209  0.1285
 8892SOL    HW127292   4.973   6.557   4.009  1.2246 -0.2719 -0.1625
 8892SOL    HW227293   5.010   6.565   4.156 -1.3280 -0.3659  0.5369
 8893SOL     OW27294   5.362   6.643   5.419 -0.1461  0.3793  0.1136
 8893SOL    HW127295   5.282   6.692   5.399 -0.1083  0.1780 -0.5589
 8893SOL    HW227296   5.362   6.570   5.357  0.8476  0.7003 -0.2970
 8894SOL     OW27297   3.099   0.468   3.759 -0.2525 -0.1585  0.0448
 8894SOL    HW127298   3.115   0.508   3.844 -1.5702  0.8917 -0.1864
 8894SOL    HW227299   3.078   0.377   3.779 -1.6556  0.3458  0.9447
 8895SOL     OW27300   1.067   6.250   6.428 -0.0369  0.3084  0.1631
 8895SOL    HW127301   1.138   6.262   6.364 -0.6898  0.6780 -0.5064
 8895SOL    HW227302   1.010   6.326   6.415  0.6714  1.3102  2.3262
 8896SOL     OW27303   0.208   6.231   6.711 -0.2113  0.0370  0.0148
 8896SOL    HW127304   0.301   6.249   6.705 -0.1166 -0.2117  0.6564
 8896SOL    HW227305   0.173   6.300   6.767 -0.1413 -0.7427  1.0488
 8897SOL     OW27306   4.627   0.653   2.844 -0.0251  0.2513  1.0012
 8897SOL    HW127307   4.717   0.681   2.860  0.5837 -1.3006  0.4472
 8897SOL    HW227308   4.574   0.729   2.869  1.4463  1.3557  0.9306
 8898SOL     OW27309   6.149   5.731   4.116  0.0732 -0.0080 -0.0906
 8898SOL    HW127310   6.153   5.783   4.196  2.5651  1.8870 -1.3135
 8898SOL    HW227311   6.208   5.657   4.132  2.5259  1.6580 -0.8993
 8899SOL     OW27312   4.136   2.824   5.012 -0.7070 -0.8016  0.1410
 8899SOL    HW127313   4.172   2.757   4.953  1.1240  0.2882 -0.0655
 8899SOL    HW227314   4.132   2.904   4.959  0.0408 -0.0322  1.1990
 8900SOL     OW27315   2.864   3.468   1.967  0.0512 -0.4600 -0.7040
 8900SOL    HW127316   2.914   3.547   1.949 -1.3576  0.0059 -2.8930
 8900SOL    HW227317   2.798   3.495   2.031 -1.1776  0.5007 -2.3174
 8901SOL     OW27318   5.759   0.884   1.273 -0.0238  0.1600  0.2625
 8901SOL    HW127319   5.849   0.857   1.287  0.1500  0.7082  0.2161
 8901SOL    HW227320   5.723   0.817   1.215  0.5919  0.3713 -0.3791
 8902SOL     OW27321   4.329   4.416   2.904 -0.1736 -0.5961 -0.0160
 8902SOL    HW127322   4.286   4.470   2.838  0.3729  0.8932  0.7974
 8902SOL    HW227323   4.292   4.446   2.987 -1.5176 -3.0372  0.3782
 8903SOL     OW27324   6.420   1.847   0.567 -0.1016 -0.0713  0.2428
 8903SOL    HW127325   6.492   1.899   0.532 -0.5221  0.3260 -0.0410
 8903SOL    HW227326   6.384   1.899   0.639 -0.2610 -0.1531  0.2235
 8904SOL     OW27327   1.832   4.711   3.739  0.2038 -0.1693  0.3978
 8904SOL    HW127328   1.826   4.656   3.661  0.7765 -0.0013  0.2345
 8904SOL    HW227329   1.755   4.767   3.734  0.6597  0.3946 -0.4760
 8905SOL     OW27330   5.499   4.992   0.780 -0.0698  0.3509 -0.0157
 8905SOL    HW127331   5.466   4.968   0.694  0.0042  0.7902 -0.1676
 8905SOL    HW227332   5.590   4.961   0.781  0.0101  0.5767 -0.1934
 8906SOL     OW27333   1.138   4.254   2.994 -0.3671 -0.0414  0.5033
 8906SOL    HW127334   1.200   4.311   3.039 -0.2520  0.0957  0.1706
 8906SOL    HW227335   1.128   4.179   3.053 -0.6658  0.4043  1.0330
 8907SOL     OW27336   1.035   0.270   2.422 -0.3694 -0.6167 -0.3663
 8907SOL    HW127337   1.083   0.350   2.441  0.3793 -1.4486  1.4789
 8907SOL    HW227338   0.965   0.267   2.488 -0.9050 -1.0733 -0.9383
 8908SOL     OW27339   0.341   3.670   4.464  0.1575  0.1195  0.1476
 8908SOL    HW127340   0.429   3.671   4.501  0.3830  0.1521 -0.3793
 8908SOL    HW227341   0.325   3.760   4.436  1.3360 -0.4862 -2.8993
 8909SOL     OW27342   5.777   3.114   1.653 -0.1382  0.0973  0.6840
 8909SOL    HW127343   5.788   3.031   1.606 -1.1234  0.8128 -0.8948
 8909SOL    HW227344   5.861   3.158   1.642  0.0040 -0.2060  0.5307
 8910SOL     OW27345   2.621   4.705   3.460  0.1821  0.7552  0.2808
 8910SOL    HW127346   2.558   4.772   3.433 -0.4817  0.2617  0.5947
 8910SOL    HW227347   2.595   4.626   3.412 -0.0129  0.3030  1.1183
 8911SOL     OW27348   3.183   2.502   2.452  0.9929  0.3977 -0.0991
 8911SOL    HW127349   3.124   2.578   2.448  1.1807  0.5069 -1.2249
 8911SOL    HW227350   3.251   2.522   2.387  2.0411  0.0766  0.8717
 8912SOL     OW27351   3.577   2.285   4.455 -0.6771 -0.1106  0.1167
 8912SOL    HW127352   3.486   2.265   4.436 -0.9189  1.7349 -0.9018
 8912SOL    HW227353   3.575   2.374   4.491  0.8043  0.3841 -0.9228
 8913SOL     OW27354   1.512   5.378   3.072 -0.1174  0.4877  0.2166
 8913SOL    HW127355   1.585   5.409   3.019 -0.1801 -2.1013 -1.5456
 8913SOL    HW227356   1.547   5.376   3.162  1.1863  1.4476 -0.2294
 8914SOL     OW27357   3.545   4.573   5.524 -0.5739  0.3880 -0.3270
 8914SOL    HW127358   3.532   4.589   5.617 -0.5262  1.0941 -0.4361
 8914SOL    HW227359   3.534   4.479   5.514 -0.6897  0.3230  0.3736
 8915SOL     OW27360   2.048   5.172   1.538 -0.0071 -0.1890  0.2478
 8915SOL    HW127361   2.085   5.146   1.454  0.5784 -0.6342  0.6310
 8915SOL    HW227362   2.100   5.124   1.603 -1.2349 -0.8065  0.8179
 8916SOL     OW27363   1.023   3.783   6.929 -0.6215 -0.4410  0.1441
 8916SOL    HW127364   1.106   3.818   6.895 -0.4535 -0.4808  0.5051
 8916SOL    HW227365   0.986   3.734   6.856  0.2214 -1.3776  0.3176
 8917SOL     OW27366   1.599   5.688   1.219  0.1514 -0.2514  0.8185
 8917SOL    HW127367   1.652   5.731   1.285 -2.0534 -1.0378  3.2591
 8917SOL    HW227368   1.629   5.597   1.219  0.0582 -0.2835  0.8720
 8918SOL     OW27369   5.718   5.224   5.068 -0.1326  0.0308  0.2612
 8918SOL    HW127370   5.770   5.253   5.143 -0.0069  0.1165  0.1393
 8918SOL    HW227371   5.683   5.139   5.096  1.5559 -0.9210 -0.3433
 8919SOL     OW27372   5.395   4.352   1.450  0.1402 -0.3445 -0.2797
 8919SOL    HW127373   5.314   4.402   1.445  1.9601  2.8760 -0.9043
 8919SOL    HW227374   5.392   4.309   1.536 -2.4696 -0.9190 -0.5927
 8920SOL     OW27375   0.983   3.242   2.423 -0.0844 -0.0598 -0.1079
 8920SOL    HW127376   0.996   3.178   2.493 -1.2561  0.1753  0.3542
 8920SOL    HW227377   1.071   3.262   2.392  0.5822  0.6208  2.0240
 8921SOL     OW27378   0.971   0.998   4.360 -0.0907 -0.3418 -0.5033
 8921SOL    HW127379   0.982   1.088   4.390 -1.4430  0.3069 -1.8473
 8921SOL    HW227380   0.877   0.980   4.368  0.2958 -2.0784  0.8803
 8922SOL     OW27381   0.955   2.318   0.171 -0.3300 -0.2881 -0.6021
 8922SOL    HW127382   0.932   2.370   0.094  1.8150 -0.4561 -1.4094
 8922SOL    HW227383   0.988   2.235   0.135  2.8940  0.4702  0.3004
 8923SOL     OW27384   4.514   3.247   5.155  0.2336 -0.0234  0.0731
 8923SOL    HW127385   4.593   3.300   5.158 -0.5353  1.1002  1.8614
 8923SOL    HW227386   4.537   3.167   5.203 -0.2030  1.1086  2.3121
 8924SOL     OW27387   0.922   0.796   0.003  0.1215  1.2128 -0.3867
 8924SOL    HW127388   0.910   0.872   0.060  1.3134  0.4212  0.9851
 8924SOL    HW227389   1.008   0.762   0.027  0.0291 -0.0055 -1.6724
 8925SOL     OW27390   3.436   6.979   3.319  0.3201 -0.1438  0.5836
 8925SOL    HW127391   3.428   6.900   3.372 -1.2966  0.5085  1.3791
 8925SOL    HW227392   3.348   6.994   3.284  0.8461  0.7049 -0.4514
 8926SOL     OW27393   2.198   7.173   6.936  0.3238 -0.0582 -0.1083
 8926SOL    HW127394   2.273   7.151   6.880  1.1412  1.9469  0.1187
 8926SOL    HW227395   2.123   7.134   6.892  1.3822 -1.4779 -0.7438
 8927SOL     OW27396   6.031   4.567   0.307  0.2219  0.5270 -0.1271
 8927SOL    HW127397   5.990   4.649   0.280  1.0659  0.4478 -1.8278
 8927SOL    HW227398   6.016   4.508   0.233  0.2262 -0.6480  0.7771
 8928SOL     OW27399   6.792   3.685   4.198  0.5297  0.4501  0.4273
 8928SOL    HW127400   6.786   3.662   4.105  0.8635 -0.5902  0.6418
 8928SOL    HW227401   6.826   3.774   4.199  1.5769  0.0931 -0.4547
 8929SOL     OW27402   2.192   0.963   0.573 -0.4691 -0.4970  0.0596
 8929SOL    HW127403   2.219   0.913   0.496 -1.4677  0.0365 -0.6716
 8929SOL    HW227404   2.101   0.935   0.588 -0.7082  0.3671  0.2403
 8930SOL     OW27405   6.405   3.162   4.795  0.5196  0.2981 -0.2659
 8930SOL    HW127406   6.414   3.226   4.724  2.5797  0.6097  0.2310
 8930SOL    HW227407   6.457   3.197   4.866  0.8937 -1.4610  0.3679
 8931SOL     OW27408   5.856   5.950   2.027 -0.0303  0.5555 -0.0185
 8931SOL    HW127409   5.818   6.001   1.955 -1.8250  0.2881  0.6988
 8931SOL    HW227410   5.900   5.877   1.984 -1.8437 -0.0994 -0.8633
 8932SOL     OW27411   0.544   1.856   6.244 -0.0415 -0.0224  0.7878
 8932SOL    HW127412   0.539   1.828   6.152 -0.2665  1.4253  0.3414
 8932SOL    HW227413   0.546   1.774   6.293  0.2852 -0.8286 -0.5151
 8933SOL     OW27414   5.374   4.759   5.974 -0.0080 -0.2274  0.1371
 8933SOL    HW127415   5.463   4.760   5.938  0.4314  0.7151  1.2032
 8933SOL    HW227416   5.349   4.666   5.974  1.3296 -0.6075  0.6554
 8934SOL     OW27417   4.499   1.277   2.396 -0.0440  0.3778  0.0428
 8934SOL    HW127418   4.539   1.349   2.347 -0.6679 -0.7545 -2.3293
 8934SOL    HW227419   4.416   1.261   2.351 -0.3697 -1.1844  1.1107
 8935SOL     OW27420   0.876   3.595   2.818  1.2058 -0.4299  0.5362
 8935SOL    HW127421   0.948   3.567   2.762  0.6631 -0.1354 -0.3303
 8935SOL    HW227422   0.797   3.570   2.770  0.6878  1.9661 -0.0205
 8936SOL     OW27423   4.556   6.521   4.072 -0.0199  0.1820  0.0408
 8936SOL    HW127424   4.500   6.559   4.004 -0.1672 -2.0307 -1.1634
 8936SOL    HW227425   4.495   6.477   4.132  0.3130 -2.6369 -1.5272
 8937SOL     OW27426   4.463   4.270   3.196 -0.1105 -0.0438  1.0670
 8937SOL    HW127427   4.520   4.208   3.241 -0.0731  0.7386  2.1285
 8937SOL    HW227428   4.507   4.286   3.112 -0.4064 -1.8461  0.5209
 8938SOL     OW27429   3.672   4.067   0.609  0.7328 -0.1661 -0.3333
 8938SOL    HW127430   3.768   4.059   0.607  0.7411 -0.3370 -3.0656
 8938SOL    HW227431   3.642   4.003   0.545 -1.1684  0.5430 -0.2003
 8939SOL     OW27432   5.710   1.340   2.963  0.5899 -0.4255 -0.4232
 8939SOL    HW127433   5.762   1.336   2.883 -0.4390 -0.0194 -1.1429
 8939SOL    HW227434   5.651   1.414   2.949  0.7424 -0.0133  0.9456
 8940SOL     OW27435   3.181   7.061   3.362 -0.1397 -0.0720  0.0561
 8940SOL    HW127436   3.106   7.065   3.422  0.4845 -0.3246  0.8802
 8940SOL    HW227437   3.240   7.129   3.394  0.1212 -0.0935 -0.3804
 8941SOL     OW27438   7.243   6.578   4.091 -0.3682 -0.1594 -0.1630
 8941SOL    HW127439   7.192   6.658   4.093  0.7699  0.6023 -0.3161
 8941SOL    HW227440   7.303   6.590   4.018  0.2129 -0.8955  0.1777
 8942SOL     OW27441   5.150   1.946   6.521  0.5113 -0.0203 -0.5999
 8942SOL    HW127442   5.223   1.967   6.580  0.4587 -0.9226 -0.2045
 8942SOL    HW227443   5.180   1.870   6.473  0.1264  0.0740 -0.9875
 8943SOL     OW27444   3.838   1.283   4.355  0.3777  0.1189  0.8646
 8943SOL    HW127445   3.922   1.239   4.371 -0.9364 -2.5090  1.1254
 8943SOL    HW227446   3.833   1.291   4.259  0.5012 -0.6499  0.7884
 8944SOL     OW27447   1.729   2.459   3.568 -0.7005 -0.3078  0.1853
 8944SOL    HW127448   1.803   2.399   3.576  0.1904  0.7724  0.1417
 8944SOL    HW227449   1.694   2.441   3.480 -0.1883 -0.4689  0.0107
 8945SOL     OW27450   5.665   2.091   7.173 -0.3500  0.0541  0.5141
 8945SOL    HW127451   5.656   2.183   7.146  2.9569 -0.0353 -1.4310
 8945SOL    HW227452   5.740   2.092   7.234  0.7045 -1.4827 -0.6961
 8946SOL     OW27453   1.796   5.729   1.441 -0.3924 -0.2061 -0.4924
 8946SOL    HW127454   1.867   5.678   1.479 -0.5557  1.0267  1.6328
 8946SOL    HW227455   1.716   5.687   1.472 -0.5321  0.6784  0.3946
 8947SOL     OW27456   1.240   1.490   1.275 -0.1043 -0.3056  0.4454
 8947SOL    HW127457   1.275   1.572   1.239 -1.8156  1.4153  2.3773
 8947SOL    HW227458   1.297   1.470   1.349 -0.3809 -0.1774  0.6953
 8948SOL     OW27459   4.277   5.200   4.817 -0.1867 -0.1739 -0.3626
 8948SOL    HW127460   4.369   5.210   4.839 -0.5538  1.1384  0.7331
 8948SOL    HW227461   4.266   5.248   4.735 -0.3660  1.9995  0.8550
 8949SOL     OW27462   6.690   6.887   4.650 -0.0894 -0.5128 -0.0335
 8949SOL    HW127463   6.696   6.971   4.606 -1.6154 -0.6486 -0.5887
 8949SOL    HW227464   6.635   6.903   4.726 -1.0372 -1.1307 -0.5598
 8950SOL     OW27465   1.238   2.892   4.874  0.4022 -0.3870  0.2311
 8950SOL    HW127466   1.245   2.987   4.888  0.6517 -0.0517 -1.8758
 8950SOL    HW227467   1.157   2.881   4.825 -0.2358 -1.4317  1.4583
 8951SOL     OW27468   4.953   4.368   6.152 -0.2786  0.5698 -0.2526
 8951SOL    HW127469   4.949   4.460   6.179 -2.4985  0.9084 -1.5021
 8951SOL    HW227470   4.900   4.321   6.216 -1.4359  0.6095 -1.1635
 8952SOL     OW27471   5.200   5.437   6.186  0.0732  0.0375 -0.3908
 8952SOL    HW127472   5.192   5.355   6.137 -0.6938 -0.1152 -0.0193
 8952SOL    HW227473   5.278   5.425   6.239  0.0552 -0.3928 -0.4552
 8953SOL     OW27474   1.600   2.132   2.283  0.2709  0.2369  0.1410
 8953SOL    HW127475   1.521   2.139   2.336  0.7839  2.9019  0.7275
 8953SOL    HW227476   1.570   2.145   2.193 -0.0467  0.7581  0.3131
 8954SOL     OW27477   0.017   6.947   1.763  0.2179  0.2618  0.0520
 8954SOL    HW127478  -0.052   6.919   1.822 -1.1949  1.7962 -0.7919
 8954SOL    HW227479   0.076   6.998   1.818 -0.0567  0.1053  0.5015
 8955SOL     OW27480   5.688   2.263   6.636  0.2751 -0.4111 -0.7530
 8955SOL    HW127481   5.624   2.233   6.571 -1.3918 -0.1218  0.6650
 8955SOL    HW227482   5.679   2.202   6.709  2.7218 -1.2383 -1.0776
 8956SOL     OW27483   4.739   4.544   4.605 -0.1310  0.1573 -0.2204
 8956SOL    HW127484   4.822   4.520   4.566  1.5256 -1.1772  3.6211
 8956SOL    HW227485   4.760   4.611   4.670 -2.1466  0.2800  0.4031
 8957SOL     OW27486   1.757   4.451   0.906 -0.1012 -0.1879  0.1222
 8957SOL    HW127487   1.787   4.479   0.819 -2.9114  1.0047 -0.5734
 8957SOL    HW227488   1.766   4.530   0.960 -0.0925 -0.3946  0.4232
 8958SOL     OW27489   1.405   0.624   5.586 -0.0594  0.3543  0.4152
 8958SOL    HW127490   1.385   0.672   5.506 -1.4734 -0.2708  0.3620
 8958SOL    HW227491   1.353   0.544   5.580 -2.4037  1.5026  3.1913
 8959SOL     OW27492   0.263   0.205   5.549  0.1912 -0.0913 -0.2839
 8959SOL    HW127493   0.193   0.270   5.550  0.8567  0.6512 -0.3334
 8959SOL    HW227494   0.335   0.247   5.596  0.6835 -0.7444 -0.4320
 8960SOL     OW27495   5.362   5.080   1.005 -0.2945 -0.9859  0.3349
 8960SOL    HW127496   5.284   5.027   0.998 -0.0478 -1.2779 -0.2095
 8960SOL    HW227497   5.419   5.050   0.934  0.6292 -1.3167  1.1855
 8961SOL     OW27498   3.439   5.941   4.596 -0.0540  0.2852 -0.5788
 8961SOL    HW127499   3.381   6.016   4.615  1.9594  2.9148 -3.6930
 8961SOL    HW227500   3.503   5.942   4.667 -0.2346  1.4140 -0.4022
 8962SOL     OW27501   1.046   6.830   6.747  0.4090  0.0856 -0.1654
 8962SOL    HW127502   1.047   6.743   6.705 -1.0970 -0.9742  1.7969
 8962SOL    HW227503   0.999   6.885   6.685  1.6941 -0.3624 -1.6152
 8963SOL     OW27504   3.270   2.314   2.924 -0.5059  0.4473 -0.6312
 8963SOL    HW127505   3.233   2.236   2.965 -1.5979  1.3215  0.1249
 8963SOL    HW227506   3.302   2.367   2.998 -0.3292  0.9738 -1.0752
 8964SOL     OW27507   4.454   4.375   5.257  0.1113  0.4200  0.4439
 8964SOL    HW127508   4.392   4.417   5.317  0.1747  1.2506 -0.0454
 8964SOL    HW227509   4.453   4.431   5.179  1.4119  0.3946  0.3877
 8965SOL     OW27510   4.641   1.873   4.065 -0.2167 -0.1230 -0.0959
 8965SOL    HW127511   4.680   1.804   4.011  1.1029 -0.5766  1.3638
 8965SOL    HW227512   4.636   1.836   4.153 -0.2401  1.3478  0.5663
 8966SOL     OW27513   5.471   2.819   1.707 -0.1670  0.3176  0.0952
 8966SOL    HW127514   5.470   2.828   1.802  0.7731  1.4266  0.0257
 8966SOL    HW227515   5.552   2.863   1.680 -0.6404  0.4057 -1.2518
 8967SOL     OW27516   0.171   1.178   1.670 -0.3148  0.8219 -0.3129
 8967SOL    HW127517   0.108   1.228   1.721  0.2550  1.1368  0.0913
 8967SOL    HW227518   0.235   1.147   1.735  0.3132  1.0670 -0.8084
 8968SOL     OW27519   5.388   0.600   3.516  0.3439 -0.3036 -0.1162
 8968SOL    HW127520   5.332   0.527   3.491  1.3160 -0.8301 -0.8288
 8968SOL    HW227521   5.472   0.581   3.474  0.8558  0.8054  0.3706
 8969SOL     OW27522   1.185   4.253   2.720  0.1523 -0.3294  0.0709
 8969SOL    HW127523   1.154   4.167   2.694  0.6090 -0.5046  0.0988
 8969SOL    HW227524   1.197   4.246   2.815 -2.8311  0.7121  0.6454
 8970SOL     OW27525   2.433   6.156   5.704 -0.6005  0.2763 -0.4110
 8970SOL    HW127526   2.520   6.159   5.664 -0.7127  1.4054 -0.6018
 8970SOL    HW227527   2.393   6.240   5.681 -1.2275  0.3403  0.8328
 8971SOL     OW27528   0.344   6.945   3.424 -0.6444  0.2727 -0.1292
 8971SOL    HW127529   0.374   7.000   3.496  1.0555 -0.6501 -0.0806
 8971SOL    HW227530   0.379   6.986   3.345 -1.4166  0.5710 -0.3265
 8972SOL     OW27531   7.143   1.994   1.723 -0.1849  0.2347  0.3520
 8972SOL    HW127532   7.083   1.986   1.649  1.4977 -0.8803 -0.9612
 8972SOL    HW227533   7.145   2.088   1.741 -2.0849  0.3341  0.2945
 8973SOL     OW27534   1.787   4.407   1.784 -0.5958 -0.2704  0.6383
 8973SOL    HW127535   1.795   4.474   1.853  0.1231  1.5877 -1.1329
 8973SOL    HW227536   1.877   4.387   1.760 -0.8206  0.3596 -0.8529
 8974SOL     OW27537   3.902   0.796   1.496  0.3201  0.0846 -0.2971
 8974SOL    HW127538   3.943   0.711   1.478  0.3419  0.0527 -0.1038
 8974SOL    HW227539   3.898   0.840   1.411 -1.2489 -0.7862 -0.7027
 8975SOL     OW27540   7.076   0.478   3.824 -0.0175 -0.6527  0.6445
 8975SOL    HW127541   6.993   0.524   3.814  0.6246  0.0259 -2.5045
 8975SOL    HW227542   7.052   0.385   3.829 -0.9739 -0.5719 -1.5625
 8976SOL     OW27543   4.381   1.656   5.502 -0.3346 -0.1939 -0.1985
 8976SOL    HW127544   4.413   1.593   5.566 -0.5527  1.2014  1.3667
 8976SOL    HW227545   4.457   1.711   5.482 -0.9850  1.4496  1.4857
 8977SOL     OW27546   1.656   2.802   3.774  0.1389 -0.0592 -0.6134
 8977SOL    HW127547   1.689   2.712   3.769  0.6867 -0.0513  1.7947
 8977SOL    HW227548   1.585   2.804   3.711  0.1562 -2.1735 -0.7922
 8978SOL     OW27549   1.659   2.997   6.064 -0.1072 -0.0006  0.5557
 8978SOL    HW127550   1.684   2.907   6.086 -0.6770  0.0402  1.4182
 8978SOL    HW227551   1.586   2.987   6.003  0.3145 -0.1126  0.0574
 8979SOL     OW27552   6.642   1.111   0.425 -0.0280  0.0151 -0.2250
 8979SOL    HW127553   6.667   1.139   0.513  1.8623 -0.8383 -0.4448
 8979SOL    HW227554   6.649   1.191   0.372 -2.1224  0.7602  0.5142
 8980SOL     OW27555   6.650   2.759   0.096 -0.8320 -0.7066 -0.3936
 8980SOL    HW127556   6.742   2.768   0.121 -1.3613  1.2501  1.1067
 8980SOL    HW227557   6.612   2.705   0.165 -1.1251 -0.1577 -0.1204
 8981SOL     OW27558   4.538   0.269   0.228  0.0497 -0.4894 -0.4524
 8981SOL    HW127559   4.502   0.274   0.140  0.7805 -1.1981 -0.8012
 8981SOL    HW227560   4.467   0.300   0.285 -1.0550 -1.6762 -1.1319
 8982SOL     OW27561   4.313   5.526   5.562  0.5364  0.4008  0.1266
 8982SOL    HW127562   4.383   5.590   5.562  0.8092  0.1193  1.5477
 8982SOL    HW227563   4.240   5.568   5.608  0.1623  0.2643 -0.3222
 8983SOL     OW27564   1.227   5.042   6.605  0.1762 -0.3476  0.1720
 8983SOL    HW127565   1.318   5.013   6.596  1.7152  3.1155  2.6820
 8983SOL    HW227566   1.188   4.980   6.667  1.1495 -1.1675 -0.0086
 8984SOL     OW27567   3.334   2.428   3.605  0.0638  0.0869  0.3377
 8984SOL    HW127568   3.296   2.370   3.539  0.9493 -1.9748  1.5339
 8984SOL    HW227569   3.414   2.461   3.565 -1.1918  1.7769 -0.9239
 8985SOL     OW27570   6.549   6.683   5.191  0.1716  0.0677  0.6564
 8985SOL    HW127571   6.578   6.593   5.182 -0.8778 -0.2916  0.7322
 8985SOL    HW227572   6.624   6.736   5.163  0.3094 -0.8472 -0.8117
 8986SOL     OW27573   4.822   5.307   2.816  0.3714  0.1105 -0.5887
 8986SOL    HW127574   4.856   5.394   2.838  0.5337  0.1466 -0.9757
 8986SOL    HW227575   4.773   5.321   2.734 -0.5348  0.0505 -0.0676
 8987SOL     OW27576   0.485   1.006   4.723  0.1991  0.0076 -0.3720
 8987SOL    HW127577   0.394   1.033   4.709  1.2341  2.7771 -3.0370
 8987SOL    HW227578   0.495   0.927   4.670 -0.1695  0.9930 -2.0031
 8988SOL     OW27579   1.731   0.257   1.244  0.3318  0.1986  0.0082
 8988SOL    HW127580   1.652   0.256   1.191  1.1257 -0.0553 -1.2099
 8988SOL    HW227581   1.776   0.337   1.218  0.0566  0.8217  1.3645
 8989SOL     OW27582   4.155   1.904   3.651 -0.1420  0.5058 -0.4292
 8989SOL    HW127583   4.238   1.951   3.660 -1.3527  2.8341 -0.8775
 8989SOL    HW227584   4.122   1.930   3.565 -0.9035 -1.2061 -0.7055
 8990SOL     OW27585   5.365   6.032   1.995  0.4765 -0.2460 -0.4443
 8990SOL    HW127586   5.284   6.070   1.961  0.2028  0.0779  0.5498
 8990SOL    HW227587   5.341   5.945   2.026  0.8399 -0.7589 -1.5326
 8991SOL     OW27588   5.959   2.637   2.428 -0.4182  0.1240 -0.3079
 8991SOL    HW127589   6.035   2.694   2.424 -0.8424  0.6778 -0.5939
 8991SOL    HW227590   5.901   2.669   2.359 -0.1370 -1.4347 -1.3044
 8992SOL     OW27591   3.625   5.828   4.228  0.2402 -0.0177  0.0526
 8992SOL    HW127592   3.555   5.853   4.169 -1.3548 -0.7581  1.5524
 8992SOL    HW227593   3.704   5.864   4.188 -1.0960  1.6667 -1.2036
 8993SOL     OW27594   3.121   0.940   2.355 -0.2480  0.2380 -0.1298
 8993SOL    HW127595   3.113   0.904   2.443  0.0939 -0.3206 -0.3253
 8993SOL    HW227596   3.208   0.979   2.352 -0.5286  0.8919  0.0063
 8994SOL     OW27597   1.661   3.632   3.532  0.3419 -0.2860  0.3449
 8994SOL    HW127598   1.591   3.597   3.586 -0.0324 -0.2464 -0.1122
 8994SOL    HW227599   1.688   3.712   3.577 -0.9309  0.5091 -0.2705
 8995SOL     OW27600   4.122   7.228   3.376 -0.2228  0.1388 -0.3271
 8995SOL    HW127601   4.104   7.176   3.454 -3.0290 -1.1734 -1.6875
 8995SOL    HW227602   4.158   7.310   3.409  2.2348 -1.7080  2.0514
 8996SOL     OW27603   1.589   2.805   1.595  0.3852 -0.0999 -0.3760
 8996SOL    HW127604   1.540   2.854   1.529 -1.5961 -1.1021  0.2754
 8996SOL    HW227605   1.572   2.852   1.677 -1.1833 -1.5777  0.1854
 8997SOL     OW27606   5.575   2.613   1.215  0.3778 -0.4073 -0.0844
 8997SOL    HW127607   5.527   2.622   1.297 -0.9507  2.7296 -1.0463
 8997SOL    HW227608   5.541   2.532   1.176 -1.6728 -0.0375  0.8160
 8998SOL     OW27609   1.843   6.316   7.190 -0.0619 -0.7779  0.1258
 8998SOL    HW127610   1.782   6.383   7.158 -0.3346 -0.5470  1.0960
 8998SOL    HW227611   1.919   6.365   7.221  0.1897 -0.9967 -0.1392
 8999SOL     OW27612   0.235   0.452   5.315 -0.0263 -0.1767  0.2696
 8999SOL    HW127613   0.247   0.537   5.358  1.5785  0.9047 -2.1092
 8999SOL    HW227614   0.142   0.452   5.289 -0.1578  0.6290  0.6999
 9000SOL     OW27615   2.584   6.513   5.364  0.6182  0.3721 -0.3339
 9000SOL    HW127616   2.635   6.443   5.324 -0.1929  0.3505 -1.3981
 9000SOL    HW227617   2.494   6.481   5.361  0.4813  0.5444  1.1937
 9001SOL     OW27618   3.128   5.793   2.315 -0.8845  0.1766 -0.1379
 9001SOL    HW127619   3.192   5.860   2.336  0.3239  0.2118 -3.4308
 9001SOL    HW227620   3.062   5.801   2.384  0.2189  3.3503  0.7152
 9002SOL     OW27621   7.189   5.384   2.472 -0.4417  0.2187 -0.2822
 9002SOL    HW127622   7.154   5.407   2.386  0.7090  2.0009 -0.3084
 9002SOL    HW227623   7.159   5.454   2.530 -0.3966 -0.4587  0.5859
 9003SOL     OW27624   4.410   2.257   0.934  0.2521  0.0105  0.2148
 9003SOL    HW127625   4.357   2.313   0.878  1.3774  2.2198  1.2233
 9003SOL    HW227626   4.363   2.174   0.936 -0.8317  0.4560 -2.3773
 9004SOL     OW27627   6.745   0.019   1.645  0.5714 -0.7230  0.4392
 9004SOL    HW127628   6.749   0.110   1.673 -4.1658 -0.2007  0.2682
 9004SOL    HW227629   6.701  -0.026   1.717  1.3824 -2.5703 -0.1556
 9005SOL     OW27630   6.193   7.149   2.891 -0.1105  0.6236 -0.6922
 9005SOL    HW127631   6.275   7.103   2.905 -1.4846 -2.1865 -1.2160
 9005SOL    HW227632   6.191   7.217   2.959  1.2399 -1.2442  1.3315
 9006SOL     OW27633   4.359   4.179   5.607  0.0757 -0.2980 -0.6642
 9006SOL    HW127634   4.396   4.117   5.544 -1.8947 -1.6183 -0.6179
 9006SOL    HW227635   4.265   4.178   5.589 -0.2523  1.0697  0.7839
 9007SOL     OW27636   6.638   5.637   0.945 -0.0428 -0.2741  0.0964
 9007SOL    HW127637   6.663   5.674   1.030 -0.6117 -0.4242  0.3318
 9007SOL    HW227638   6.705   5.572   0.927  0.1747 -0.1258  0.3515
 9008SOL     OW27639   3.111   6.855   6.238 -0.6514  0.0301  0.1103
 9008SOL    HW127640   3.139   6.909   6.164 -0.3892 -0.7965 -0.3977
 9008SOL    HW227641   3.190   6.842   6.290 -0.4837 -0.7513 -0.3357
 9009SOL     OW27642   0.674   7.229   7.231 -0.2638  0.0495 -0.5752
 9009SOL    HW127643   0.768   7.249   7.224  0.2769 -1.6345  1.0085
 9009SOL    HW227644   0.631   7.314   7.225  1.3231  0.8450 -1.5812
 9010SOL     OW27645   5.717   2.937   5.070 -0.0622 -0.9078 -0.3341
 9010SOL    HW127646   5.652   2.971   5.008 -1.2485 -1.8417  0.3537
 9010SOL    HW227647   5.764   2.870   5.021 -0.4752 -1.1110 -0.4539
 9011SOL     OW27648   2.211   2.139   0.975 -0.0303  0.2913  0.6804
 9011SOL    HW127649   2.285   2.174   0.926 -1.7868  1.3300 -1.4550
 9011SOL    HW227650   2.150   2.110   0.907 -2.2810  1.0071  2.2824
 9012SOL     OW27651   3.135   0.136   0.456  0.2908  0.3129 -0.2789
 9012SOL    HW127652   3.224   0.112   0.432  0.3963  0.8403 -0.4497
 9012SOL    HW227653   3.142   0.228   0.483 -0.0893  0.1603  0.3451
 9013SOL     OW27654   3.600   6.621   2.235 -0.2415 -0.4007 -0.2866
 9013SOL    HW127655   3.563   6.704   2.204  0.0689 -0.3052 -0.3960
 9013SOL    HW227656   3.562   6.609   2.322  2.2784  1.5412  1.2169
 9014SOL     OW27657   0.309   4.198   7.166  0.8994  0.6002  0.5154
 9014SOL    HW127658   0.338   4.134   7.231 -0.0287  0.1988  0.5584
 9014SOL    HW227659   0.340   4.282   7.199  0.0695  0.4630  1.7276
 9015SOL     OW27660   0.477   3.429   6.895 -0.0327 -0.2965  0.0634
 9015SOL    HW127661   0.403   3.392   6.944  1.4391 -0.2937  2.4714
 9015SOL    HW227662   0.499   3.363   6.830 -0.2174 -1.7065  1.3907
 9016SOL     OW27663   0.713   1.923   4.250 -0.5171  0.4267  0.4641
 9016SOL    HW127664   0.659   1.846   4.230 -0.1239 -0.0260  1.0695
 9016SOL    HW227665   0.803   1.893   4.234 -0.3872  0.8840  0.3370
 9017SOL     OW27666   1.815   4.106   3.745  0.2622 -0.0891 -0.3864
 9017SOL    HW127667   1.829   4.196   3.773 -0.6508 -0.3554  1.0557
 9017SOL    HW227668   1.725   4.105   3.712 -0.3096 -0.7851  1.1047
 9018SOL     OW27669   4.213   1.386   4.284 -0.4227  0.2335  0.1489
 9018SOL    HW127670   4.173   1.360   4.367 -1.3700 -0.8767 -0.6268
 9018SOL    HW227671   4.294   1.335   4.279 -0.4883  0.1166  0.2701
 9019SOL     OW27672   2.296   6.499   0.165  0.0194  0.3482  0.3969
 9019SOL    HW127673   2.369   6.501   0.103  0.9330  2.4587  1.4429
 9019SOL    HW227674   2.304   6.415   0.209  0.3752 -0.4527 -1.1250
 9020SOL     OW27675   4.892   1.323   3.089  0.3259  0.1566  0.1860
 9020SOL    HW127676   4.828   1.335   3.018 -0.8143  1.2896  1.3438
 9020SOL    HW227677   4.871   1.393   3.151  2.0144 -0.1296  1.1221
 9021SOL     OW27678   6.237   4.722   3.570 -0.3304  0.0092  0.1970
 9021SOL    HW127679   6.244   4.775   3.649 -0.4223  1.4168 -0.6921
 9021SOL    HW227680   6.314   4.665   3.572  0.4141  0.9940  0.6386
 9022SOL     OW27681   0.724   5.369   4.336  0.2046  0.5257  0.8133
 9022SOL    HW127682   0.740   5.326   4.420  1.2228  1.2516  1.0115
 9022SOL    HW227683   0.652   5.319   4.297  2.7994 -2.9651 -0.0703
 9023SOL     OW27684   1.796   7.187   4.127 -0.2597  0.1541 -0.0871
 9023SOL    HW127685   1.728   7.119   4.125 -0.8702  0.7310  0.3723
 9023SOL    HW227686   1.806   7.207   4.220  0.0921  0.5155 -0.2040
 9024SOL     OW27687   1.927   5.386   4.907 -0.2385  0.2406 -0.3896
 9024SOL    HW127688   1.996   5.431   4.857 -1.2385 -0.0029 -2.0904
 9024SOL    HW227689   1.846   5.427   4.877 -0.8749  0.4076  1.4516
 9025SOL     OW27690   6.676   5.871   4.509  0.0532 -0.2118 -0.0775
 9025SOL    HW127691   6.582   5.888   4.516 -0.0456 -1.3010  2.9001
 9025SOL    HW227692   6.713   5.951   4.472 -1.6177  1.9831  2.5814
 9026SOL     OW27693   7.056   3.208   1.291 -0.3118 -0.1524 -0.0222
 9026SOL    HW127694   7.076   3.239   1.203  0.2122 -0.3870  0.0143
 9026SOL    HW227695   7.134   3.227   1.342 -0.7090  0.2195  0.4612
 9027SOL     OW27696   5.191   4.989   3.347 -0.3018  0.1105  0.4063
 9027SOL    HW127697   5.103   5.013   3.378 -0.9680  0.8024 -1.8437
 9027SOL    HW227698   5.189   4.894   3.340 -0.5437  0.0479  1.2678
 9028SOL     OW27699   1.182   6.783   0.240 -0.2085  0.2429 -0.0999
 9028SOL    HW127700   1.249   6.722   0.208  0.2158 -0.0117  1.2198
 9028SOL    HW227701   1.129   6.802   0.163  0.2535 -1.0162 -0.7625
 9029SOL     OW27702   4.807   2.506   6.595  0.0932 -0.0184  0.3689
 9029SOL    HW127703   4.799   2.444   6.667  2.8308 -0.1786  0.6198
 9029SOL    HW227704   4.853   2.458   6.526 -0.4639  0.8299 -0.6402
 9030SOL     OW27705   5.645   5.521   3.289  0.1100  0.0637  0.2209
 9030SOL    HW127706   5.552   5.510   3.308  0.1171  0.1738  0.3148
 9030SOL    HW227707   5.683   5.435   3.307 -0.1113 -0.2292 -0.6315
 9031SOL     OW27708   6.278   4.148   6.224  0.2824 -0.2146  0.0203
 9031SOL    HW127709   6.296   4.178   6.314  0.8580 -0.3372 -0.0541
 9031SOL    HW227710   6.186   4.120   6.227  0.0663  0.4778  0.3828
 9032SOL     OW27711   4.041   4.984   2.740  0.5048  0.0584  0.0931
 9032SOL    HW127712   3.973   5.043   2.708  0.0562  0.4766  1.7496
 9032SOL    HW227713   4.118   5.040   2.750  1.7694 -0.7398 -3.5166
 9033SOL     OW27714   1.673   2.324   6.897  0.0621  0.4801 -0.4329
 9033SOL    HW127715   1.614   2.308   6.970 -2.0387  1.4139 -1.8282
 9033SOL    HW227716   1.758   2.293   6.928 -0.8919  0.1105  2.0814
 9034SOL     OW27717   1.065   0.861   6.304  0.1643 -0.2621 -0.4012
 9034SOL    HW127718   0.993   0.921   6.326  0.5076  0.2131 -0.5422
 9034SOL    HW227719   1.022   0.783   6.271 -0.2844  0.1321 -0.7640
 9035SOL     OW27720   3.226   2.404   2.122 -0.4568 -0.1089  0.6917
 9035SOL    HW127721   3.284   2.455   2.178  0.6264 -1.3408  0.7457
 9035SOL    HW227722   3.217   2.320   2.166 -1.2048 -0.4054  0.0040
 9036SOL     OW27723   4.303   2.312   4.253  0.3044 -0.5395 -0.3869
 9036SOL    HW127724   4.222   2.333   4.207  0.2986 -1.6811 -0.9456
 9036SOL    HW227725   4.369   2.305   4.183  0.7560 -0.2007  0.0019
 9037SOL     OW27726   7.071   4.714   4.654 -0.1376  0.4324  0.2139
 9037SOL    HW127727   6.995   4.662   4.680 -0.2415  1.0560  1.1962
 9037SOL    HW227728   7.145   4.653   4.660 -0.4336  0.0674  0.1444
 9038SOL     OW27729   5.997   5.105   5.983  0.1793  0.5427  0.5355
 9038SOL    HW127730   6.019   5.166   5.912 -0.6054  0.2493  0.0250
 9038SOL    HW227731   5.949   5.158   6.047 -1.2382  0.3135 -0.2962
 9039SOL     OW27732   5.209   5.770   2.088 -0.1982  0.0981  0.1355
 9039SOL    HW127733   5.163   5.689   2.066 -1.2155  0.1304  1.8715
 9039SOL    HW227734   5.302   5.749   2.078 -0.3829 -1.6206  1.4745
 9040SOL     OW27735   5.096   2.159   5.176  0.0214 -0.0107 -0.3362
 9040SOL    HW127736   5.143   2.240   5.153  1.7629 -0.9421 -0.2192
 9040SOL    HW227737   5.105   2.152   5.271 -1.4441  0.3979 -0.1341
 9041SOL     OW27738   1.562   0.222   2.450 -0.0432 -0.6016 -0.5950
 9041SOL    HW127739   1.593   0.163   2.519 -2.7528  0.3230  1.5916
 9041SOL    HW227740   1.539   0.164   2.377 -1.3510 -2.1532  0.9690
 9042SOL     OW27741   2.950   2.545   6.946  0.8565 -0.1975 -0.0778
 9042SOL    HW127742   2.942   2.451   6.962  2.0685 -0.5148 -1.1706
 9042SOL    HW227743   2.942   2.553   6.851  0.0613  0.9001  0.0643
 9043SOL     OW27744   3.334   2.884   0.531 -0.7564  0.1673 -0.1390
 9043SOL    HW127745   3.404   2.819   0.538 -0.8583  0.2140  1.7675
 9043SOL    HW227746   3.379   2.968   0.537 -0.8265  0.2413 -0.5974
 9044SOL     OW27747   4.072   4.234   2.223  0.0352  0.2824 -0.2330
 9044SOL    HW127748   4.032   4.279   2.297  0.6473  0.5744 -0.0827
 9044SOL    HW227749   4.007   4.167   2.199 -0.6190  0.8458 -0.0916
 9045SOL     OW27750   3.269   3.171   4.903  0.3563 -0.0069  0.2278
 9045SOL    HW127751   3.241   3.218   4.824  0.3874  0.9045  0.7346
 9045SOL    HW227752   3.345   3.120   4.875 -0.4129 -0.7284 -0.6264
 9046SOL     OW27753   2.292   3.075   4.364  0.5369  0.7490  0.5673
 9046SOL    HW127754   2.365   3.063   4.303 -1.6565  1.0987 -2.3316
 9046SOL    HW227755   2.291   2.995   4.416  0.3198 -1.4171 -2.4823
 9047SOL     OW27756   3.325   7.246   3.484 -0.8867  0.8109 -0.3791
 9047SOL    HW127757   3.418   7.224   3.483 -1.1158 -0.1469 -1.0067
 9047SOL    HW227758   3.316   7.306   3.559 -0.0777 -0.4899  0.8185
 9048SOL     OW27759   5.825   2.555   3.908  0.6998 -0.0911  0.3663
 9048SOL    HW127760   5.803   2.463   3.921 -0.9726  0.4453  1.6026
 9048SOL    HW227761   5.884   2.555   3.832 -0.3474 -2.0364 -0.5132
 9049SOL     OW27762   4.323   6.434   2.666 -0.0669  0.5301  0.0764
 9049SOL    HW127763   4.313   6.518   2.621  0.3814  1.1623  1.1286
 9049SOL    HW227764   4.405   6.398   2.633  0.0729  0.8130  0.1192
 9050SOL     OW27765   5.147   0.906   4.006  0.5051 -0.5212 -1.4039
 9050SOL    HW127766   5.172   0.946   3.922  0.8746  0.5934 -0.7765
 9050SOL    HW227767   5.096   0.829   3.981 -1.2342  0.9670 -2.6534
 9051SOL     OW27768   2.568   1.629   5.262 -0.3762  0.0270  0.2105
 9051SOL    HW127769   2.627   1.571   5.310  0.6600  1.4977  0.7947
 9051SOL    HW227770   2.522   1.571   5.200  2.2069 -1.0873 -0.8160
 9052SOL     OW27771   1.972   5.167   3.471 -0.8687  0.4435  0.2245
 9052SOL    HW127772   2.018   5.197   3.393 -0.6468  0.8939  0.5207
 9052SOL    HW227773   1.880   5.191   3.456 -1.1816 -1.2164 -0.7396
 9053SOL     OW27774   0.852   2.755   6.954  0.0346  0.2926 -0.9059
 9053SOL    HW127775   0.879   2.761   7.046 -2.3238  3.0943 -0.2252
 9053SOL    HW227776   0.820   2.666   6.944  1.4923 -0.4602  0.5960
 9054SOL     OW27777   0.500   3.307   6.436 -0.5367 -0.0260  0.7083
 9054SOL    HW127778   0.415   3.291   6.476 -0.7127 -1.1985 -0.0853
 9054SOL    HW227779   0.481   3.355   6.356 -0.6803 -1.9105 -0.4542
 9055SOL     OW27780   1.062   7.179   7.145 -0.0432 -0.0276 -0.2605
 9055SOL    HW127781   1.156   7.192   7.134  0.0855  0.2012  1.0129
 9055SOL    HW227782   1.028   7.263   7.175 -0.4315 -0.4783  0.6056
 9056SOL     OW27783   4.866   6.186   4.920 -0.2138 -0.3356 -0.7453
 9056SOL    HW127784   4.927   6.258   4.902 -1.0407 -0.2650 -3.8388
 9056SOL    HW227785   4.916   6.107   4.899  0.5191 -0.7612  2.1483
 9057SOL     OW27786   0.850   2.809   1.231 -0.1902 -0.2134  0.3223
 9057SOL    HW127787   0.798   2.846   1.159  0.4976  0.7845  0.3093
 9057SOL    HW227788   0.844   2.714   1.219 -1.5377 -0.1040  0.0017
 9058SOL     OW27789   5.367   4.078   0.570  0.1067  0.3297 -0.1274
 9058SOL    HW127790   5.402   4.085   0.481  3.4406  1.1726  1.1049
 9058SOL    HW227791   5.442   4.093   0.627 -2.0655  0.7830  2.8798
 9059SOL     OW27792   3.071   3.979   6.663  0.2763  0.2755  0.3251
 9059SOL    HW127793   3.084   4.028   6.582  0.5437  0.1835  0.3110
 9059SOL    HW227794   3.036   4.044   6.725  1.6484  0.7525  0.6221
 9060SOL     OW27795   5.643   3.268   0.147 -0.1952  0.1432 -0.0211
 9060SOL    HW127796   5.630   3.174   0.134  0.7279  0.0585 -0.3703
 9060SOL    HW227797   5.714   3.291   0.087  1.2332  0.5902  1.7540
 9061SOL     OW27798   2.961   5.694   2.549 -0.1004  0.2451  0.1542
 9061SOL    HW127799   3.020   5.748   2.601 -1.0009 -1.0623  2.7575
 9061SOL    HW227800   2.985   5.604   2.572 -1.9325 -0.3376 -0.0570
 9062SOL     OW27801   0.759   3.931   0.034 -0.4168  0.0367  0.5287
 9062SOL    HW127802   0.777   3.863  -0.031  0.2046  0.4148  0.2971
 9062SOL    HW227803   0.680   3.901   0.078 -0.1563 -0.8369  0.4252
 9063SOL     OW27804   0.767   7.111   1.897  0.7834  0.0403 -0.2674
 9063SOL    HW127805   0.755   7.041   1.833  0.8497  0.0017 -0.2372
 9063SOL    HW227806   0.844   7.085   1.947  1.7502  0.9091 -1.2755
 9064SOL     OW27807   1.009   5.349   5.238 -0.2052  0.0546 -1.0782
 9064SOL    HW127808   0.945   5.350   5.167 -0.6838  3.6813 -0.8007
 9064SOL    HW227809   0.965   5.302   5.309 -2.5459  2.0834 -1.0351
 9065SOL     OW27810   6.788   3.606   4.801  0.2544 -0.6180  0.9034
 9065SOL    HW127811   6.716   3.658   4.836 -0.1437 -0.9095  0.5273
 9065SOL    HW227812   6.808   3.646   4.716 -0.0993 -1.1094  0.5821
 9066SOL     OW27813   1.936   1.589   6.570  0.1925 -0.4735 -0.5464
 9066SOL    HW127814   1.854   1.635   6.587 -0.0970 -1.4173  0.7233
 9066SOL    HW227815   1.999   1.659   6.552 -0.4334  0.3866  0.4760
 9067SOL     OW27816   7.200   4.831   5.555  0.1424 -0.0509  0.5083
 9067SOL    HW127817   7.273   4.840   5.494  0.7670 -1.5575  0.9842
 9067SOL    HW227818   7.144   4.763   5.516 -0.0926 -0.1457  0.9990
 9068SOL     OW27819   1.398   0.101   3.376 -0.0309  0.0056  0.4775
 9068SOL    HW127820   1.465   0.033   3.369  1.6713  1.5991  0.4877
 9068SOL    HW227821   1.325   0.067   3.324  1.3826 -1.1123 -0.9007
 9069SOL     OW27822   2.524   5.367   0.895 -0.4858  0.7937  0.3625
 9069SOL    HW127823   2.470   5.443   0.873 -1.0177  0.9167  1.9803
 9069SOL    HW227824   2.576   5.351   0.816 -2.8207  0.6949 -1.2691
 9070SOL     OW27825   0.680   2.504   6.835  0.4728 -0.5066 -0.1630
 9070SOL    HW127826   0.633   2.423   6.816 -1.6574  0.9361 -1.3648
 9070SOL    HW227827   0.761   2.475   6.877  0.2532 -3.2991 -1.4593
 9071SOL     OW27828   5.191   4.258   2.027  0.1470  0.3202  0.2195
 9071SOL    HW127829   5.146   4.194   1.972  0.0633  0.4243  0.1656
 9071SOL    HW227830   5.275   4.218   2.047  0.3814  0.4939 -0.4022
 9072SOL     OW27831   2.984   2.769   5.071 -0.1917 -0.3546 -0.7024
 9072SOL    HW127832   3.028   2.689   5.101  1.2368  1.0133  1.0264
 9072SOL    HW227833   3.050   2.815   5.020 -0.5491  0.3968 -0.4926
 9073SOL     OW27834   5.322   0.206   6.664 -0.3688 -0.0416 -0.5351
 9073SOL    HW127835   5.272   0.185   6.743  0.5417 -0.1207  0.0364
 9073SOL    HW227836   5.256   0.232   6.600 -1.0434  1.5875  0.7328
 9074SOL     OW27837   0.577   4.911   3.990 -0.0374 -0.2510 -0.7287
 9074SOL    HW127838   0.536   4.825   3.977 -0.1867 -0.0999 -1.2947
 9074SOL    HW227839   0.668   4.891   4.009 -0.0603 -0.5372 -0.9048
 9075SOL     OW27840   2.230   3.177   7.054  0.5395  0.3347 -0.2007
 9075SOL    HW127841   2.318   3.214   7.055  0.2188  1.1020  0.3055
 9075SOL    HW227842   2.180   3.231   7.115 -0.0706 -0.6297  0.1834
 9076SOL     OW27843   6.047   3.880   1.844  0.0952  0.0093 -0.2685
 9076SOL    HW127844   6.006   3.796   1.866 -0.0917 -0.4496 -2.2048
 9076SOL    HW227845   5.975   3.943   1.848 -0.1353 -0.2337 -0.5571
 9077SOL     OW27846   0.706   4.800   5.883  0.6051 -0.3030  0.1722
 9077SOL    HW127847   0.712   4.862   5.956 -0.9370  0.2991 -0.1718
 9077SOL    HW227848   0.797   4.774   5.867  0.9599 -0.8398  2.5992
 9078SOL     OW27849   6.834   4.427   2.327  0.6099  0.2163  0.3396
 9078SOL    HW127850   6.821   4.336   2.300  1.5913  0.3590 -0.7091
 9078SOL    HW227851   6.787   4.479   2.260 -0.5395  0.4788  1.3196
 9079SOL     OW27852   0.599   3.968   3.937 -0.1467  0.0986  0.4537
 9079SOL    HW127853   0.540   3.973   3.862  1.5267  2.7110 -0.8521
 9079SOL    HW227854   0.654   3.891   3.919  0.4209  0.8454 -1.2339
 9080SOL     OW27855   6.840   5.681   5.323  0.1904  0.3289 -0.2767
 9080SOL    HW127856   6.768   5.703   5.263 -0.5312 -1.7810 -0.2713
 9080SOL    HW227857   6.797   5.662   5.406  0.3919 -3.0772 -0.8107
 9081SOL     OW27858   3.046   4.763   2.100  0.0749  0.4411  0.2674
 9081SOL    HW127859   3.045   4.811   2.017 -0.3981  0.8735  0.5113
 9081SOL    HW227860   3.012   4.826   2.164  0.4210  0.1071  0.7856
 9082SOL     OW27861   1.877   4.398   0.618 -0.0035 -0.4434  0.0615
 9082SOL    HW127862   1.905   4.324   0.671  0.8683  1.4858  2.4544
 9082SOL    HW227863   1.954   4.454   0.613 -0.9212  0.7911 -0.8298
 9083SOL     OW27864   0.286   3.863   1.913 -0.0227 -0.4383 -0.2914
 9083SOL    HW127865   0.226   3.869   1.988 -0.2366 -0.3163 -0.4716
 9083SOL    HW227866   0.370   3.837   1.952  0.2440  1.0258  0.1792
 9084SOL     OW27867   5.834   2.435   0.071  0.0683  0.1068  0.3553
 9084SOL    HW127868   5.911   2.379   0.068 -0.2754 -0.3549  0.1172
 9084SOL    HW227869   5.807   2.435   0.163 -2.4080 -3.5513 -0.1637
 9085SOL     OW27870   0.090   3.644   6.228 -0.0563  0.2197 -0.3491
 9085SOL    HW127871   0.127   3.680   6.147  0.8551 -1.3595 -0.6782
 9085SOL    HW227872   0.116   3.706   6.296  2.1572 -0.1594 -0.7792
 9086SOL     OW27873   1.601   1.934   4.580 -0.1418  0.1076  0.8722
 9086SOL    HW127874   1.608   2.029   4.573 -0.5747  0.1356  0.8137
 9086SOL    HW227875   1.535   1.919   4.648 -0.3715 -0.1501  0.5926
 9087SOL     OW27876   2.719   6.459   4.228  0.0216 -0.0391 -0.1233
 9087SOL    HW127877   2.808   6.423   4.229  0.3179  0.5507 -1.8524
 9087SOL    HW227878   2.708   6.492   4.139 -0.8372  2.6177  0.8613
 9088SOL     OW27879   2.247   1.114   5.207  0.2026 -0.8150  0.1682
 9088SOL    HW127880   2.154   1.133   5.192  0.2775 -0.2778  0.3688
 9088SOL    HW227881   2.292   1.196   5.188  0.6671 -1.1524 -0.1986
 9089SOL     OW27882   0.820   2.800   3.277  0.4062  0.2832  0.5149
 9089SOL    HW127883   0.730   2.779   3.251  1.2955 -0.8429 -2.0302
 9089SOL    HW227884   0.851   2.860   3.209  1.7682  0.1186  0.9560
 9090SOL     OW27885   4.219   2.764   4.046  0.3601  0.2053 -0.2961
 9090SOL    HW127886   4.188   2.722   4.126 -2.1768  0.0966 -1.2264
 9090SOL    HW227887   4.156   2.835   4.031  0.4116 -0.1419 -2.4628
 9091SOL     OW27888   2.984   2.475   3.198  0.6925 -0.3171 -0.0686
 9091SOL    HW127889   2.976   2.571   3.206 -0.0241 -0.4947  2.3051
 9091SOL    HW227890   2.893   2.444   3.204  1.0242 -1.1880  0.5687
 9092SOL     OW27891   0.516   1.412   1.343  0.8408 -0.4809  0.0260
 9092SOL    HW127892   0.467   1.362   1.279 -0.3493 -0.0396  0.5694
 9092SOL    HW227893   0.519   1.356   1.421  0.0436  0.0016  0.4263
 9093SOL     OW27894   4.103   1.624   1.003 -0.1756 -0.5222  0.0075
 9093SOL    HW127895   4.008   1.609   1.005 -0.0465 -2.0254 -2.2078
 9093SOL    HW227896   4.133   1.577   0.925  2.0560  1.9625 -0.7524
 9094SOL     OW27897   5.077   0.230   3.576  0.2000  0.2065 -0.0020
 9094SOL    HW127898   5.058   0.139   3.553 -1.3738  0.2617  1.0084
 9094SOL    HW227899   5.116   0.225   3.663 -0.7965  0.5551  0.4755
 9095SOL     OW27900   0.047   0.010   6.446 -0.6411 -0.0542  0.4467
 9095SOL    HW127901   0.094   0.072   6.501  1.6017 -1.2056 -0.0767
 9095SOL    HW227902  -0.014   0.064   6.395  0.6021  1.5989  0.6449
 9096SOL     OW27903   0.461   5.061   1.869 -0.3155 -0.0644  0.2163
 9096SOL    HW127904   0.506   4.994   1.817  0.6720  0.4468  0.3745
 9096SOL    HW227905   0.502   5.055   1.956  0.6740  1.5244 -0.0906
 9097SOL     OW27906   2.507   0.844   4.172  0.2080 -0.0776 -0.1083
 9097SOL    HW127907   2.471   0.759   4.147  2.4053 -0.9366 -0.5530
 9097SOL    HW227908   2.538   0.883   4.090  0.1347  0.7183  0.2265
 9098SOL     OW27909   0.680   6.196   3.459 -0.0794  0.4019 -0.5100
 9098SOL    HW127910   0.756   6.250   3.437  0.0960  1.4169  2.2179
 9098SOL    HW227911   0.696   6.113   3.414  0.9057  1.7035 -2.7548
 9099SOL     OW27912   5.951   0.974   1.024 -0.0811  0.8381 -0.0145
 9099SOL    HW127913   6.037   1.008   1.052  0.5229  0.4112 -1.2902
 9099SOL    HW227914   5.919   1.040   0.963 -0.1247  0.4213 -0.4401
 9100SOL     OW27915   2.543   4.297   2.073 -0.4859 -0.2040 -0.3039
 9100SOL    HW127916   2.505   4.212   2.095 -0.4963  0.1506  1.1008
 9100SOL    HW227917   2.484   4.333   2.006 -1.3920 -0.5941  0.2761
 9101SOL     OW27918   6.399   1.002   2.194  0.4428 -0.1061  0.3875
 9101SOL    HW127919   6.467   1.018   2.128  0.0775 -0.2660 -0.0399
 9101SOL    HW227920   6.318   1.025   2.149  0.0721 -1.3785  0.3614
 9102SOL     OW27921   6.091   5.052   2.288  0.1899  0.2251  0.2552
 9102SOL    HW127922   6.157   5.102   2.336  1.2343  0.6718 -1.5573
 9102SOL    HW227923   6.136   5.024   2.208 -0.9480 -1.9938  0.3151
 9103SOL     OW27924   0.587   2.788   4.884  0.6870  0.3118  0.2504
 9103SOL    HW127925   0.569   2.718   4.821 -0.9494  0.8837  0.0287
 9103SOL    HW227926   0.572   2.869   4.834  0.0221  0.7801  1.1893
 9104SOL     OW27927   5.321   3.886   1.619  0.2059 -0.4777  0.0903
 9104SOL    HW127928   5.404   3.854   1.583  0.1895 -0.3238 -0.0869
 9104SOL    HW227929   5.295   3.820   1.683 -0.9040 -1.9680 -1.7668
 9105SOL     OW27930   5.204   5.668   0.704 -0.4485 -0.0902 -0.0862
 9105SOL    HW127931   5.162   5.701   0.625 -0.1120  0.4373 -0.0512
 9105SOL    HW227932   5.143   5.687   0.774  0.1762  1.4092  0.0813
 9106SOL     OW27933   0.349   0.635   0.866  0.5838 -0.3018  0.0015
 9106SOL    HW127934   0.430   0.684   0.852  1.0672 -1.5204 -1.7084
 9106SOL    HW227935   0.377   0.552   0.905  0.0860 -0.4926 -0.0357
 9107SOL     OW27936   6.510   5.200   1.171  0.0795 -0.0522 -0.8486
 9107SOL    HW127937   6.526   5.277   1.117 -1.6622  1.0621  0.1421
 9107SOL    HW227938   6.441   5.226   1.231  2.4475 -0.9129  2.5541
 9108SOL     OW27939   7.087   5.566   6.332  0.2691 -0.0314 -0.4235
 9108SOL    HW127940   7.046   5.550   6.246 -0.9781  1.9635 -0.2512
 9108SOL    HW227941   7.176   5.533   6.322  0.6345  1.4439 -3.0062
 9109SOL     OW27942   4.270   5.400   5.317  0.0957 -0.8894  0.4233
 9109SOL    HW127943   4.256   5.307   5.338 -2.4195 -0.5185  0.6789
 9109SOL    HW227944   4.265   5.445   5.402  1.2026 -0.4733  0.2884
 9110SOL     OW27945   3.836   0.172   6.035 -0.1646  0.2993 -0.5752
 9110SOL    HW127946   3.807   0.196   6.123 -1.6295 -0.2096 -0.8847
 9110SOL    HW227947   3.878   0.087   6.046  1.3447  1.0741 -0.1061
 9111SOL     OW27948   7.160   2.614   3.843  0.7316  0.2729  0.0435
 9111SOL    HW127949   7.073   2.583   3.817  0.2789  0.6941  0.9907
 9111SOL    HW227950   7.169   2.586   3.934  1.3596  0.6993  0.1204
 9112SOL     OW27951   3.117   0.574   4.027 -0.2426 -0.0672  0.1089
 9112SOL    HW127952   3.113   0.488   4.068 -0.4707 -0.5860 -0.9760
 9112SOL    HW227953   3.181   0.623   4.080 -1.3462 -0.3231  1.7458
 9113SOL     OW27954   6.639   3.811   1.872  0.5751  0.2490 -0.7491
 9113SOL    HW127955   6.665   3.903   1.879  0.3702  0.2527  0.1298
 9113SOL    HW227956   6.602   3.803   1.784 -2.6492  1.8949  0.2792
 9114SOL     OW27957   5.032   2.828   0.894 -0.5486 -0.4244 -0.8549
 9114SOL    HW127958   5.018   2.793   0.982 -0.6941 -1.6002 -1.3348
 9114SOL    HW227959   4.972   2.903   0.889 -0.9978 -0.7248 -0.1819
 9115SOL     OW27960   6.143   2.964   4.069  0.8135 -0.2042 -0.5253
 9115SOL    HW127961   6.184   2.890   4.114 -1.1057 -1.2353 -0.3886
 9115SOL    HW227962   6.217   3.021   4.045  2.1289 -0.8966  1.5880
 9116SOL     OW27963   5.967   4.221   4.067 -0.4888  0.5259  0.0986
 9116SOL    HW127964   6.062   4.231   4.063  0.2397 -4.0306  0.6084
 9116SOL    HW227965   5.949   4.202   4.159 -1.3192 -1.9819 -0.5179
 9117SOL     OW27966   0.755   4.891   2.218  0.0009  0.2988  0.2049
 9117SOL    HW127967   0.738   4.844   2.299  1.0723 -0.4056  0.0438
 9117SOL    HW227968   0.702   4.847   2.153  0.8610 -0.6074  0.0927
 9118SOL     OW27969   3.384   2.673   5.458 -0.0832  0.2233 -0.0960
 9118SOL    HW127970   3.345   2.704   5.376 -0.5376 -2.9056 -1.1886
 9118SOL    HW227971   3.313   2.676   5.522 -0.3922  0.3526 -0.4436
 9119SOL     OW27972   2.782   5.286   3.724 -0.4684  0.2488  0.0359
 9119SOL    HW127973   2.869   5.258   3.751 -0.0845  0.0986 -1.2820
 9119SOL    HW227974   2.731   5.288   3.805  0.5386 -0.4515  0.7078
 9120SOL     OW27975   5.091   4.534   4.683 -0.2054 -0.5756 -0.0663
 9120SOL    HW127976   5.118   4.625   4.692 -2.4217  0.1986 -0.6049
 9120SOL    HW227977   5.137   4.488   4.753  3.8033  0.1940 -1.9333
 9121SOL     OW27978   4.641   4.053   0.318  0.0350  0.3243  0.2732
 9121SOL    HW127979   4.649   3.973   0.267  0.0459  0.4694  0.0421
 9121SOL    HW227980   4.600   4.026   0.400  0.7115 -0.0391  0.5029
 9122SOL     OW27981   0.372   0.075   7.032  0.3102  0.6647  0.4241
 9122SOL    HW127982   0.297   0.129   7.058 -0.2560 -1.0980  2.8384
 9122SOL    HW227983   0.447   0.116   7.076 -0.2385 -0.8035  2.9165
 9123SOL     OW27984   6.865   3.077   1.117 -0.2968  0.2425  0.6544
 9123SOL    HW127985   6.934   3.104   1.177  1.0456  0.6839 -1.0041
 9123SOL    HW227986   6.890   3.115   1.033 -2.1254 -0.3108 -0.1958
 9124SOL     OW27987   3.892   4.361   1.283 -0.3712  0.7675  0.0420
 9124SOL    HW127988   3.803   4.356   1.248 -0.7793 -1.8802  1.1981
 9124SOL    HW227989   3.893   4.440   1.336 -1.7898  1.2326 -0.5743
 9125SOL     OW27990   0.978   0.347   6.746  0.1777 -0.2933 -0.4131
 9125SOL    HW127991   1.044   0.283   6.720 -0.5771 -1.1726 -0.2127
 9125SOL    HW227992   0.907   0.336   6.683 -1.3533 -1.9252  1.4662
 9126SOL     OW27993   3.797   7.112   3.231  0.8194  0.0394  0.0096
 9126SOL    HW127994   3.890   7.134   3.224  1.0877 -1.2997 -0.9435
 9126SOL    HW227995   3.762   7.127   3.144  0.0810  0.7239  0.4130
 9127SOL     OW27996   3.560   7.088   5.703  0.1513  0.0006 -0.2632
 9127SOL    HW127997   3.654   7.071   5.698 -0.0141 -0.8335 -0.5801
 9127SOL    HW227998   3.523   7.009   5.741 -0.2949  0.7812  0.9924
 9128SOL     OW27999   4.088   1.608   6.244 -0.3501  1.1042 -0.7459
 9128SOL    HW128000   4.059   1.696   6.222 -1.2627  1.7008  2.3236
 9128SOL    HW228001   4.145   1.619   6.320 -0.3543 -0.9269 -0.3855
 9129SOL     OW28002   3.545   1.410   0.326  0.0263 -0.9444 -0.0792
 9129SOL    HW128003   3.497   1.460   0.392 -2.0632  0.1487 -2.2545
 9129SOL    HW228004   3.603   1.353   0.376 -0.1773  1.0258  2.6060
 9130SOL     OW28005   6.519   5.310   3.295 -0.5330 -0.6939  0.4264
 9130SOL    HW128006   6.523   5.382   3.358 -2.0278 -1.1751  1.1237
 9130SOL    HW228007   6.543   5.232   3.346  0.4918 -0.7991 -0.1788
 9131SOL     OW28008   1.827   2.683   1.632 -0.2343  0.2375  0.1403
 9131SOL    HW128009   1.832   2.636   1.549  1.3606  0.2009  0.2155
 9131SOL    HW228010   1.741   2.724   1.632 -0.2242  0.3181 -1.5769
 9132SOL     OW28011   2.904   2.818   2.957  0.6507 -0.1903  0.3865
 9132SOL    HW128012   2.992   2.801   2.922  0.3777  0.7087 -0.8198
 9132SOL    HW228013   2.862   2.871   2.890 -1.0876 -1.2201  0.5949
 9133SOL     OW28014   0.197   2.619   2.519  0.1178  0.3325  0.5674
 9133SOL    HW128015   0.256   2.599   2.592  1.9549  0.0668 -0.8910
 9133SOL    HW228016   0.129   2.552   2.525  0.9264 -0.4633  1.3187
 9134SOL     OW28017   4.410   4.264   7.151 -0.1697  0.0916  0.0693
 9134SOL    HW128018   4.423   4.356   7.127 -0.2765  0.1532  0.2414
 9134SOL    HW228019   4.473   4.249   7.222 -0.0130 -0.0240 -0.0952
 9135SOL     OW28020   4.588   3.561   5.997  0.2720 -0.3378  0.3387
 9135SOL    HW128021   4.624   3.635   5.949  0.3989  0.0786  1.0674
 9135SOL    HW228022   4.596   3.585   6.089  1.2820 -1.6958  0.6357
 9136SOL     OW28023   1.423   0.770   3.515  0.4433  0.1417  0.6887
 9136SOL    HW128024   1.371   0.846   3.541  0.5720  0.0861  1.1090
 9136SOL    HW228025   1.359   0.703   3.493  0.3160  0.5966 -0.3764
 9137SOL     OW28026   6.606   1.268   1.270 -0.7499  0.2187 -0.1559
 9137SOL    HW128027   6.673   1.261   1.338  0.2180 -0.4310 -1.1605
 9137SOL    HW228028   6.524   1.247   1.316 -0.0375 -0.8222  0.6865
 9138SOL     OW28029   6.991   5.108   0.347 -0.3449 -1.4044 -0.4892
 9138SOL    HW128030   7.038   5.058   0.414 -0.8199 -0.2773  0.7195
 9138SOL    HW228031   6.917   5.147   0.394  0.1274  0.5933 -1.3290
 9139SOL     OW28032   0.412   5.855   1.705  0.0378 -0.3852  0.3513
 9139SOL    HW128033   0.431   5.764   1.730  0.7548  0.2011  2.0677
 9139SOL    HW228034   0.421   5.904   1.786  1.2122  1.4700 -0.8447
 9140SOL     OW28035   0.516   1.857   0.581  0.1909  0.3170  0.1616
 9140SOL    HW128036   0.492   1.810   0.501 -0.7125 -0.0346  0.6281
 9140SOL    HW228037   0.483   1.802   0.652 -1.7044  2.0450  0.7242
 9141SOL     OW28038   5.055   5.023   3.712 -0.7693 -0.5471 -0.1828
 9141SOL    HW128039   5.051   4.929   3.727  0.1179 -0.4483  0.8201
 9141SOL    HW228040   5.148   5.045   3.722 -1.0206  0.4874 -0.0246
 9142SOL     OW28041   4.653   4.507   6.549  0.0907  0.0396 -0.1267
 9142SOL    HW128042   4.611   4.439   6.600  0.0377  0.9373  1.0622
 9142SOL    HW228043   4.614   4.589   6.580  0.3628  0.6500 -1.3086
 9143SOL     OW28044   2.876   4.156   0.688 -0.7206  0.5308 -0.8065
 9143SOL    HW128045   2.893   4.136   0.596  0.8962  1.4228 -0.7463
 9143SOL    HW228046   2.919   4.086   0.737 -1.9794 -0.2033 -0.7049
 9144SOL     OW28047   5.891   6.672   3.759  0.3416 -0.0630  0.1881
 9144SOL    HW128048   5.827   6.719   3.705  1.7575  1.9088  0.1198
 9144SOL    HW228049   5.963   6.653   3.700  0.8666 -0.0750  0.8257
 9145SOL     OW28050   0.858   4.454   1.527  0.5318 -0.4894 -0.3441
 9145SOL    HW128051   0.798   4.490   1.593 -1.1949 -1.6066 -1.2494
 9145SOL    HW228052   0.822   4.484   1.444  2.3411  0.3891 -0.8518
 9146SOL     OW28053   5.809   0.515   2.814 -0.2463 -0.0355 -0.0077
 9146SOL    HW128054   5.740   0.462   2.854  0.0385 -1.4838 -1.3388
 9146SOL    HW228055   5.790   0.605   2.843 -2.3313 -0.4723  0.1486
 9147SOL     OW28056   7.185   3.584   1.228  0.2625  0.2198 -0.7790
 9147SOL    HW128057   7.139   3.660   1.262 -1.4828 -1.1316  0.0676
 9147SOL    HW228058   7.200   3.528   1.304  0.3400 -0.8479 -1.5457
 9148SOL     OW28059   3.003   2.746   5.843  0.0547 -0.2735  0.3419
 9148SOL    HW128060   2.929   2.806   5.838  0.4675  0.2442  0.3639
 9148SOL    HW228061   2.968   2.667   5.885 -0.7891 -0.5321 -0.8211
 9149SOL     OW28062   6.844   1.422   5.855 -0.3611  0.3176 -0.4295
 9149SOL    HW128063   6.797   1.498   5.821  1.0044  1.1788 -0.5036
 9149SOL    HW228064   6.932   1.456   5.875  0.6483 -1.4787 -1.5624
 9150SOL     OW28065   4.037   3.481   7.075  0.1461 -0.4307  0.2843
 9150SOL    HW128066   3.996   3.543   7.014 -0.4594 -1.0770  0.0194
 9150SOL    HW228067   3.978   3.478   7.150  0.8114  0.2446  0.8467
 9151SOL     OW28068   6.312   3.333   3.223  0.5952 -0.0430  0.1116
 9151SOL    HW128069   6.261   3.293   3.293  0.7477 -3.0892 -1.3330
 9151SOL    HW228070   6.372   3.263   3.195  1.8049  1.6596 -1.8109
 9152SOL     OW28071   2.522   1.949   2.698 -0.2700 -0.2596 -0.4815
 9152SOL    HW128072   2.595   1.910   2.650  0.9822 -0.7917  1.7091
 9152SOL    HW228073   2.505   1.887   2.769 -1.0398  1.1567  0.6179
 9153SOL     OW28074   2.218   3.502   5.491 -0.5125  0.3185 -0.4392
 9153SOL    HW128075   2.296   3.551   5.463 -0.9565  0.9049 -0.6728
 9153SOL    HW228076   2.163   3.498   5.412  0.9976 -3.6387 -1.5472
 9154SOL     OW28077   5.889   7.242   6.368  0.1856 -0.3501  0.3154
 9154SOL    HW128078   5.861   7.325   6.328 -0.5330 -0.7743 -0.0729
 9154SOL    HW228079   5.885   7.259   6.462  0.5274  0.2084  0.2384
 9155SOL     OW28080   2.258   1.522   0.362 -0.4919 -0.6356 -0.2340
 9155SOL    HW128081   2.224   1.493   0.447  1.3196 -0.1620  0.7054
 9155SOL    HW228082   2.348   1.491   0.360 -0.4183 -0.3917 -1.8831
 9156SOL     OW28083   0.859   4.876   0.015 -0.2319  0.0116  0.7229
 9156SOL    HW128084   0.858   4.856  -0.079  2.4986 -0.9170  0.8109
 9156SOL    HW228085   0.801   4.810   0.054 -0.6239 -0.2101 -0.2053
 9157SOL     OW28086   5.769   2.055   1.189  0.4984  0.4994  0.0037
 9157SOL    HW128087   5.725   2.140   1.196  0.9449  0.8985 -1.6246
 9157SOL    HW228088   5.816   2.046   1.272 -0.0740  1.5314  0.4656
 9158SOL     OW28089   0.334   6.046   0.636  0.4656  0.2376 -0.8047
 9158SOL    HW128090   0.407   5.985   0.635 -0.1519 -0.5109 -1.8935
 9158SOL    HW228091   0.272   6.011   0.572 -0.8174  0.8850  0.0288
 9159SOL     OW28092   0.728   3.108   2.258  0.1086 -0.4789 -0.0372
 9159SOL    HW128093   0.741   3.038   2.195  2.1697 -0.4194  0.2478
 9159SOL    HW228094   0.798   3.095   2.322  0.4108  1.6798  0.1351
 9160SOL     OW28095   0.349   4.918   4.363 -0.2767 -0.6508 -0.6100
 9160SOL    HW128096   0.321   4.981   4.429  0.7509  1.6624 -2.2445
 9160SOL    HW228097   0.291   4.843   4.374  1.2916 -1.4725  4.4160
 9161SOL     OW28098   7.123   4.000   3.761  0.4288 -0.5404  0.1769
 9161SOL    HW128099   7.143   3.981   3.669 -0.0323 -3.3326  0.5622
 9161SOL    HW228100   7.137   3.917   3.806 -0.8505  0.3621  2.3758
 9162SOL     OW28101   2.792   5.875   0.644  0.2536  0.0343 -0.0603
 9162SOL    HW128102   2.741   5.810   0.595 -0.0422  0.5314 -0.4094
 9162SOL    HW228103   2.757   5.870   0.734 -1.1029  1.0595 -0.4988
 9163SOL     OW28104   4.326   6.247   5.167  0.5584  0.3023 -0.0089
 9163SOL    HW128105   4.365   6.249   5.080 -0.2274 -0.1572 -0.3816
 9163SOL    HW228106   4.305   6.155   5.182 -0.7263  0.5775  0.0108
 9164SOL     OW28107   3.345   5.060   0.050  0.0781  0.2495 -0.6692
 9164SOL    HW128108   3.314   5.006  -0.023 -1.0877  0.5570 -0.4082
 9164SOL    HW228109   3.283   5.133   0.054  0.0947  0.1993  0.6752
 9165SOL     OW28110   2.071   3.198   1.841 -0.3681 -0.1632 -0.1925
 9165SOL    HW128111   1.977   3.208   1.832 -0.5641 -0.4622  1.3289
 9165SOL    HW228112   2.092   3.120   1.788 -1.0492 -0.3901 -0.1402
 9166SOL     OW28113   6.376   3.850   6.934 -0.1452  0.3141 -0.4734
 9166SOL    HW128114   6.451   3.823   6.987 -1.0906 -0.5897  0.4311
 9166SOL    HW228115   6.414   3.906   6.866  1.6349 -1.6571 -1.2020
 9167SOL     OW28116   3.280   5.345   3.451  0.5372  0.2856  0.2495
 9167SOL    HW128117   3.263   5.366   3.543 -1.0433  2.1679 -0.3967
 9167SOL    HW228118   3.354   5.400   3.426  1.5442 -0.8835  0.6020
 9168SOL     OW28119   6.415   2.050   3.458  0.2594 -0.5515  0.3917
 9168SOL    HW128120   6.342   2.075   3.402  0.5096  0.0295  0.3144
 9168SOL    HW228121   6.426   1.956   3.444  1.0504 -0.2319 -1.4100
 9169SOL     OW28122   6.267   6.231   7.139 -0.0482 -0.1633 -0.2250
 9169SOL    HW128123   6.257   6.168   7.210 -1.0970  1.6865  1.3953
 9169SOL    HW228124   6.362   6.237   7.125  0.1166 -1.2941  0.3319
 9170SOL     OW28125   3.067   7.076   5.788  0.2250 -0.7904 -0.1342
 9170SOL    HW128126   3.088   7.153   5.735 -0.1715 -0.4135  0.2545
 9170SOL    HW228127   3.133   7.011   5.762 -1.0307 -1.2753 -2.4811
 9171SOL     OW28128   6.964   5.516   6.112  0.1738  0.1777  0.3195
 9171SOL    HW128129   6.909   5.442   6.083 -0.1090  0.3307  0.4579
 9171SOL    HW228130   6.989   5.560   6.031  0.6596 -0.2900  0.2097
 9172SOL     OW28131   0.789   0.270   3.332  0.4906 -0.1125  0.2143
 9172SOL    HW128132   0.771   0.194   3.387 -0.5885  0.2864  0.4345
 9172SOL    HW228133   0.709   0.322   3.336  0.8366  0.5238 -0.7655
 9173SOL     OW28134   4.131   0.770   4.926  0.1338 -0.3585  0.7054
 9173SOL    HW128135   4.052   0.798   4.881  0.8194 -1.0532 -1.0339
 9173SOL    HW228136   4.141   0.678   4.901  2.2396  0.0846 -0.3072
 9174SOL     OW28137   4.146   0.845   5.417 -0.1389 -0.0264 -0.4405
 9174SOL    HW128138   4.200   0.782   5.465  0.3349  1.1073  0.5449
 9174SOL    HW228139   4.065   0.797   5.400  0.7602 -1.4030 -1.0329
 9175SOL     OW28140   0.999   3.596   3.690  0.3851 -0.3478  0.0405
 9175SOL    HW128141   0.954   3.594   3.606 -0.5166 -1.0802  0.5166
 9175SOL    HW228142   1.046   3.679   3.690  0.1479 -0.1984 -1.0520
 9176SOL     OW28143   2.681   7.097   4.909 -0.3623  0.6552  0.4695
 9176SOL    HW128144   2.751   7.162   4.911 -0.4904  0.8344 -0.4352
 9176SOL    HW228145   2.683   7.057   4.996  2.2465 -0.8130 -0.1509
 9177SOL     OW28146   5.231   6.090   1.372 -0.0415 -0.7222  0.0453
 9177SOL    HW128147   5.325   6.110   1.375  0.2097 -0.7077 -3.5161
 9177SOL    HW228148   5.188   6.175   1.374  0.3419 -0.3960 -2.5380
 9178SOL     OW28149   4.006   2.231   2.228  0.4674 -0.3460  0.4139
 9178SOL    HW128150   4.094   2.264   2.213 -0.2351  1.9094  0.9262
 9178SOL    HW228151   4.018   2.158   2.290  2.0484 -0.9606 -0.5541
 9179SOL     OW28152   7.100   2.404   0.374  0.1822  0.2258  0.7204
 9179SOL    HW128153   7.116   2.397   0.468  0.7703 -0.8009  0.5520
 9179SOL    HW228154   7.178   2.446   0.340 -0.2610  1.1007  0.7465
 9180SOL     OW28155   3.792   5.007   5.662  0.0125 -0.4120  0.1958
 9180SOL    HW128156   3.810   4.953   5.739 -1.8726 -0.4730  0.6529
 9180SOL    HW228157   3.700   4.988   5.641  0.4828 -0.4252 -2.0973
 9181SOL     OW28158   6.351   2.728   4.742 -0.0772 -0.0911 -0.5652
 9181SOL    HW128159   6.388   2.715   4.655  1.3845  0.4812 -0.0687
 9181SOL    HW228160   6.270   2.777   4.728  0.4930  0.5953 -1.5566
 9182SOL     OW28161   3.880   5.378   2.563  0.0316  0.2389 -0.1150
 9182SOL    HW128162   3.950   5.316   2.543 -0.1329 -0.0111  0.0836
 9182SOL    HW228163   3.850   5.408   2.477 -0.4116 -0.5381 -0.2413
 9183SOL     OW28164   5.512   7.204   6.586 -0.3329 -0.7826 -0.1656
 9183SOL    HW128165   5.508   7.295   6.613 -0.5175 -0.7538 -0.2865
 9183SOL    HW228166   5.430   7.166   6.619  0.3217 -1.2220  1.0328
 9184SOL     OW28167   2.709   1.581   4.194  0.1650 -0.2394  0.4134
 9184SOL    HW128168   2.625   1.542   4.220 -0.1241 -1.2121 -1.7142
 9184SOL    HW228169   2.764   1.506   4.172  0.0569  0.4059 -2.4769
 9185SOL     OW28170   6.909   1.005   5.453  0.0782 -0.6080 -0.0955
 9185SOL    HW128171   6.825   0.983   5.494  0.4171 -0.9814  0.4049
 9185SOL    HW228172   6.889   1.080   5.397 -1.0338 -1.9172 -1.5469
 9186SOL     OW28173   6.091   0.245   1.032  0.5696 -0.5148  0.7118
 9186SOL    HW128174   6.003   0.276   1.055  0.7567 -0.4215  1.3174
 9186SOL    HW228175   6.141   0.254   1.113  1.4580  0.5437  0.0661
 9187SOL     OW28176   1.395   4.909   5.504 -0.3746  0.3920  0.3880
 9187SOL    HW128177   1.448   4.848   5.452 -0.5379 -0.4151  1.1531
 9187SOL    HW228178   1.305   4.880   5.491 -0.3778 -0.1132  1.4954
 9188SOL     OW28179   6.882   2.670   5.349 -0.0466  0.6071  0.0133
 9188SOL    HW128180   6.888   2.603   5.281 -0.4960  0.6845 -0.1082
 9188SOL    HW228181   6.972   2.702   5.359  0.1054  0.2509 -0.1937
 9189SOL     OW28182   4.940   1.271   4.626 -0.4035 -0.1671 -0.6143
 9189SOL    HW128183   4.881   1.224   4.686 -0.6440  1.1202  0.2081
 9189SOL    HW228184   4.955   1.355   4.669  0.4927  0.2811 -1.7553
 9190SOL     OW28185   1.893   3.141   5.087  0.0996  0.0850  0.7089
 9190SOL    HW128186   1.807   3.110   5.116 -0.1000  0.1452  0.1933
 9190SOL    HW228187   1.930   3.067   5.039 -0.4063  0.6418 -0.5888
 9191SOL     OW28188   6.748   2.304   5.809  0.5757 -0.4715 -0.6025
 9191SOL    HW128189   6.714   2.394   5.813 -0.6069 -0.9428  1.0975
 9191SOL    HW228190   6.716   2.270   5.725 -1.1566 -0.0847 -0.1476
 9192SOL     OW28191   1.445   5.306   0.534 -0.2163  0.2901 -0.2674
 9192SOL    HW128192   1.497   5.250   0.591 -0.5554  1.1541  0.9204
 9192SOL    HW228193   1.499   5.384   0.521 -1.1883  1.2113  1.0105
 9193SOL     OW28194   0.818   2.376   1.584  0.3107  0.1926  0.4610
 9193SOL    HW128195   0.739   2.392   1.532 -0.7982 -0.7829  1.7755
 9193SOL    HW228196   0.875   2.324   1.527  0.2859  1.4068 -0.7113
 9194SOL     OW28197   6.259   4.604   3.911 -0.1882  0.5094  0.3816
 9194SOL    HW128198   6.183   4.550   3.934 -1.1960  1.5598 -0.3986
 9194SOL    HW228199   6.224   4.692   3.900  1.5044  1.4809  2.1231
 9195SOL     OW28200   1.743   0.073   5.728  0.3983  0.0003 -0.5883
 9195SOL    HW128201   1.673   0.093   5.666  0.0837  0.2753 -0.1538
 9195SOL    HW228202   1.705   0.095   5.814  0.5410 -1.1397 -0.2256
 9196SOL     OW28203   2.609   2.273   5.495 -0.6958 -0.2591  0.0456
 9196SOL    HW128204   2.590   2.341   5.431  0.3364  0.6214  0.6371
 9196SOL    HW228205   2.697   2.243   5.472 -0.4118 -0.1010  0.8882
 9197SOL     OW28206   1.346   2.692   1.716  0.4244 -0.4927  0.1457
 9197SOL    HW128207   1.379   2.701   1.806  1.6327 -2.1196 -0.0818
 9197SOL    HW228208   1.303   2.607   1.715 -0.0751 -0.2399 -0.6835
 9198SOL     OW28209   3.004   1.661   3.764 -0.2081  0.0778 -0.2417
 9198SOL    HW128210   3.028   1.645   3.855 -0.8682  0.0006 -0.0760
 9198SOL    HW228211   3.027   1.753   3.749 -0.0023  0.0617 -0.0321
 9199SOL     OW28212   0.881   3.030   5.818 -0.1160 -0.0350 -0.2444
 9199SOL    HW128213   0.786   3.017   5.823 -0.5455  0.7583 -3.7031
 9199SOL    HW228214   0.892   3.125   5.819  0.6035 -0.1128 -0.4040
 9200SOL     OW28215   2.591   2.188   1.167  0.1012 -0.0032 -0.5293
 9200SOL    HW128216   2.519   2.251   1.162  0.5040  0.5574  0.3463
 9200SOL    HW228217   2.668   2.239   1.144  0.5341  0.0378  0.9104
 9201SOL     OW28218   3.086   1.618   5.577 -0.1842 -0.4311  0.1374
 9201SOL    HW128219   3.118   1.528   5.569  3.8280  0.9310 -1.9878
 9201SOL    HW228220   3.124   1.649   5.659  0.9698  0.1044 -0.5716
 9202SOL     OW28221   4.978   0.857   2.710 -0.2150  0.2465 -0.0923
 9202SOL    HW128222   4.902   0.828   2.660 -0.6259  1.3229 -0.1287
 9202SOL    HW228223   4.971   0.811   2.794 -0.6753  0.0187 -0.2538
 9203SOL     OW28224   6.504   4.750   5.990  0.0727 -0.0864 -0.3901
 9203SOL    HW128225   6.459   4.669   5.966  1.4139 -1.3128  1.0576
 9203SOL    HW228226   6.522   4.793   5.906 -1.9048 -0.5439 -1.1171
 9204SOL     OW28227   6.027   6.777   1.027  0.1131  0.4848 -0.4765
 9204SOL    HW128228   6.115   6.743   1.044 -0.6278 -1.0785  0.5046
 9204SOL    HW228229   5.971   6.729   1.089 -1.3265  1.9753 -0.5689
 9205SOL     OW28230   2.004   2.088   1.910  0.0366 -0.5905 -0.0691
 9205SOL    HW128231   2.046   2.093   1.996  3.6735  1.2504 -1.7172
 9205SOL    HW228232   1.984   2.179   1.888 -0.9699 -1.0490 -1.1159
 9206SOL     OW28233   1.762   1.074   6.280 -0.2211 -0.0628 -0.1297
 9206SOL    HW128234   1.814   1.068   6.360 -0.1774  1.6884 -0.0044
 9206SOL    HW228235   1.696   1.141   6.298 -1.5639 -1.1229 -0.8416
 9207SOL     OW28236   2.492   6.053   6.764 -0.0536  0.2683  0.1104
 9207SOL    HW128237   2.546   6.115   6.811 -1.7303  0.6087  1.7137
 9207SOL    HW228238   2.405   6.093   6.761 -1.3288 -2.1148  1.6077
 9208SOL     OW28239   4.942   2.939   5.404  0.3017  0.2718  0.2192
 9208SOL    HW128240   4.934   2.844   5.402 -0.9381  0.1917  3.2868
 9208SOL    HW228241   5.036   2.956   5.412  0.4165 -0.8316  1.4726
 9209SOL     OW28242   6.738   2.664   4.161  0.2309 -0.1738  0.2700
 9209SOL    HW128243   6.789   2.584   4.151  0.5571 -0.1588  1.6790
 9209SOL    HW228244   6.658   2.648   4.112  0.6016 -1.0742 -0.0586
 9210SOL     OW28245   5.825   2.737   2.215 -0.4767 -0.1523  0.5708
 9210SOL    HW128246   5.758   2.690   2.165  0.5078  0.1343 -1.1059
 9210SOL    HW228247   5.779   2.812   2.253 -0.8838  0.8287 -1.7167
 9211SOL     OW28248   7.019   4.641   0.629  0.1606  0.2984 -0.2135
 9211SOL    HW128249   6.959   4.627   0.555  0.1672  1.0031 -0.3616
 9211SOL    HW228250   7.020   4.557   0.676 -1.5864  0.5287  0.2730
 9212SOL     OW28251   4.132   1.465   1.483 -0.1494 -0.1762 -0.3256
 9212SOL    HW128252   4.115   1.555   1.509  0.0442 -0.3550  0.4551
 9212SOL    HW228253   4.047   1.422   1.490  0.2641 -0.7306  2.1794
 9213SOL     OW28254   6.394   1.564   7.162  0.3203  0.1062  0.2964
 9213SOL    HW128255   6.484   1.536   7.182  0.7938  0.6838 -0.9433
 9213SOL    HW228256   6.339   1.511   7.220  1.4733 -0.1010  1.2250
 9214SOL     OW28257   0.484   3.321   0.983  1.0229 -0.6278  0.9039
 9214SOL    HW128258   0.571   3.357   0.964  0.1380  0.8832 -0.4567
 9214SOL    HW228259   0.468   3.257   0.913  0.0304  0.9583 -0.3881
 9215SOL     OW28260   2.700   2.540   0.663 -0.1071  0.6232  0.2538
 9215SOL    HW128261   2.611   2.576   0.659 -0.2798  0.4738  1.9624
 9215SOL    HW228262   2.691   2.451   0.628 -0.6172  0.6321  0.3523
 9216SOL     OW28263   4.016   3.282   4.213 -0.3763  0.1354 -0.3140
 9216SOL    HW128264   4.050   3.372   4.211 -1.8612  0.7147 -0.5188
 9216SOL    HW228265   4.009   3.257   4.121  0.9980 -0.5976 -0.2459
 9217SOL     OW28266   6.177   0.706   5.360 -0.2065  0.4911 -0.4791
 9217SOL    HW128267   6.124   0.627   5.356 -0.6864  0.8380 -1.1043
 9217SOL    HW228268   6.208   0.719   5.270 -0.5544  1.2881 -0.4957
 9218SOL     OW28269   4.127   5.665   3.704 -0.0869 -0.4781  0.1640
 9218SOL    HW128270   4.123   5.737   3.640 -1.6061 -0.9075 -0.2528
 9218SOL    HW228271   4.044   5.670   3.750  0.6669 -0.6786  1.5900
 9219SOL     OW28272   5.938   1.687   0.880 -0.2008 -0.3307  0.5020
 9219SOL    HW128273   5.998   1.720   0.813 -0.3597  0.2472  0.6337
 9219SOL    HW228274   5.923   1.762   0.937 -1.4031 -0.3265  0.2166
 9220SOL     OW28275   4.683   7.006   6.292 -0.5639 -0.3226  0.2803
 9220SOL    HW128276   4.675   6.918   6.329 -3.4745  0.6117  2.3125
 9220SOL    HW228277   4.597   7.023   6.254  0.2087  1.3442 -0.8040
 9221SOL     OW28278   0.614   6.562   6.629  0.1861 -0.0427  0.3835
 9221SOL    HW128279   0.647   6.503   6.561  1.1857  1.8526 -0.8739
 9221SOL    HW228280   0.655   6.531   6.710  1.5784 -0.4454 -0.4282
 9222SOL     OW28281   7.052   0.187   2.240 -0.2719  0.6839 -0.6764
 9222SOL    HW128282   7.103   0.208   2.318 -0.4606 -0.9332 -0.0754
 9222SOL    HW228283   7.113   0.197   2.167  0.5073  0.1518 -0.1052
 9223SOL     OW28284   4.845   4.496   2.588 -0.2749 -0.3781  0.0012
 9223SOL    HW128285   4.844   4.401   2.595 -0.8112 -0.3971 -0.2798
 9223SOL    HW228286   4.753   4.522   2.592 -0.4475 -0.1403 -3.0665
 9224SOL     OW28287   5.408   0.784   2.333 -0.6241 -0.0263  0.2509
 9224SOL    HW128288   5.338   0.842   2.304  0.2954  0.7874 -0.4600
 9224SOL    HW228289   5.472   0.843   2.375  0.1288 -0.5711 -0.0967
 9225SOL     OW28290   2.447   1.088   0.263 -0.0456  0.2073 -0.0014
 9225SOL    HW128291   2.441   1.150   0.191  0.3802 -0.3508 -0.5333
 9225SOL    HW228292   2.391   1.015   0.238  1.5384 -0.8401 -0.6784
 9226SOL     OW28293   1.228   3.162   4.859 -0.3581  0.8323  0.3369
 9226SOL    HW128294   1.265   3.170   4.771 -1.5694  0.5384 -0.2143
 9226SOL    HW228295   1.293   3.204   4.916  0.7726  0.4187 -0.5963
 9227SOL     OW28296   5.907   4.924   5.759  0.6510  0.0731 -0.7173
 9227SOL    HW128297   5.970   4.966   5.818 -0.5549  0.5863  0.2474
 9227SOL    HW228298   5.824   4.929   5.805 -0.1905 -0.2125 -2.1380
 9228SOL     OW28299   3.008   4.984   4.633 -0.2909 -0.2193 -0.3525
 9228SOL    HW128300   3.064   4.908   4.650  1.5856  1.2027  0.0895
 9228SOL    HW228301   3.065   5.060   4.648 -2.4496  1.3251  0.5504
 9229SOL     OW28302   1.991   5.979   6.380  0.8235  0.0822  0.6012
 9229SOL    HW128303   1.970   6.020   6.464  1.8857  0.8821  0.4921
 9229SOL    HW228304   1.978   6.048   6.315  0.8136 -0.2974  0.1935
 9230SOL     OW28305   6.992   5.252   4.750  0.0989  0.1511  0.0429
 9230SOL    HW128306   7.070   5.292   4.715  0.3943  0.1937  0.7295
 9230SOL    HW228307   6.932   5.245   4.676  0.8326 -0.0896 -0.5363
 9231SOL     OW28308   3.372   5.987   5.032 -0.0999 -0.3452  0.0859
 9231SOL    HW128309   3.446   5.963   5.088  1.1584  0.9245 -0.9525
 9231SOL    HW228310   3.406   6.057   4.976 -1.6045 -0.8477 -1.5580
 9232SOL     OW28311   5.467   2.644   1.472  0.2546 -0.6673  0.2214
 9232SOL    HW128312   5.410   2.581   1.518  0.5792  0.3296  2.1059
 9232SOL    HW228313   5.465   2.722   1.528 -0.3729  1.1537 -2.1889
 9233SOL     OW28314   5.995   0.978   3.821 -0.2587  0.2849 -0.7666
 9233SOL    HW128315   5.955   0.952   3.738  2.8765 -1.2085 -1.9827
 9233SOL    HW228316   6.037   1.062   3.803 -0.8611  0.7149 -0.2075
 9234SOL     OW28317   1.419   1.728   6.663 -0.7806  0.9396  0.9986
 9234SOL    HW128318   1.479   1.707   6.592 -0.5044  4.5558 -0.0377
 9234SOL    HW228319   1.413   1.647   6.714  1.3202 -0.9220 -1.4293
 9235SOL     OW28320   4.016   6.894   5.874 -0.1989  0.4143 -0.3592
 9235SOL    HW128321   4.080   6.875   5.943 -0.9857 -0.4807  0.1414
 9235SOL    HW228322   4.051   6.850   5.796 -0.7247 -1.0084  0.1761
 9236SOL     OW28323   4.391   0.359   4.534  0.7590 -0.4045 -0.0113
 9236SOL    HW128324   4.308   0.389   4.499 -0.0049 -2.0921  0.2622
 9236SOL    HW228325   4.405   0.274   4.494  1.2420 -1.1326  1.6231
 9237SOL     OW28326   1.736   3.585   3.941 -0.0880 -0.3923  0.4863
 9237SOL    HW128327   1.715   3.653   4.006  0.3302  0.0187  0.1925
 9237SOL    HW228328   1.713   3.624   3.857 -1.4296 -1.2305  0.4260
 9238SOL     OW28329   6.155   4.455   2.106  0.1299  1.0192 -0.2882
 9238SOL    HW128330   6.240   4.496   2.090 -0.1283  1.6699 -0.0325
 9238SOL    HW228331   6.162   4.368   2.065  1.0247  0.9377  0.0110
 9239SOL     OW28332   0.995   6.274   1.913  0.0201 -0.0440 -0.0086
 9239SOL    HW128333   1.082   6.293   1.877 -0.1797  0.9382  0.0038
 9239SOL    HW228334   0.947   6.356   1.904 -0.5050 -0.2062  1.1559
 9240SOL     OW28335   6.563   4.572   6.344  0.2353  0.3762 -0.4304
 9240SOL    HW128336   6.477   4.600   6.315 -0.5714  1.6498  2.7433
 9240SOL    HW228337   6.571   4.482   6.313 -2.9238 -0.3341  0.4392
 9241SOL     OW28338   2.189   4.266   3.516  0.2655 -0.3792 -0.1698
 9241SOL    HW128339   2.213   4.354   3.546  1.5661 -0.7029 -0.1890
 9241SOL    HW228340   2.215   4.209   3.588  0.3376 -0.8408 -0.5604
 9242SOL     OW28341   6.460   5.444   6.393  0.1993 -0.8460  0.2110
 9242SOL    HW128342   6.420   5.365   6.355  0.7290 -0.6255 -0.8380
 9242SOL    HW228343   6.470   5.423   6.486 -0.5416 -1.6451  0.1285
 9243SOL     OW28344   5.892   1.072   5.998  0.0136 -0.3823  0.4598
 9243SOL    HW128345   5.923   1.034   5.916  1.8731 -1.1591  1.4780
 9243SOL    HW228346   5.929   1.160   6.000 -2.0709  0.6022 -0.6250
 9244SOL     OW28347   5.384   1.369   5.171  0.1296  0.5434 -0.1003
 9244SOL    HW128348   5.469   1.403   5.146  0.0512  1.3633  0.7008
 9244SOL    HW228349   5.391   1.274   5.160  0.8229  0.6886 -0.9668
 9245SOL     OW28350   3.980   1.681   4.710 -0.0856 -0.6193 -0.2275
 9245SOL    HW128351   3.902   1.734   4.721 -1.0081 -1.4319 -2.2679
 9245SOL    HW228352   3.957   1.595   4.745  0.2221 -0.6173 -0.0109
 9246SOL     OW28353   4.194   3.335   1.447 -0.1525 -0.3264 -0.6723
 9246SOL    HW128354   4.276   3.306   1.407  0.4490 -1.6000  1.3342
 9246SOL    HW228355   4.129   3.272   1.416  0.4275 -1.6759  0.6993
 9247SOL     OW28356   0.046   2.470   4.305 -0.4115 -0.0784 -0.2694
 9247SOL    HW128357   0.004   2.555   4.294  0.0228  0.0708 -0.8235
 9247SOL    HW228358   0.023   2.421   4.226  1.7623  0.5797 -1.4055
 9248SOL     OW28359   0.838   0.970   0.190  0.2765 -0.3955  0.0667
 9248SOL    HW128360   0.754   1.014   0.175 -0.0716 -0.5488  1.4262
 9248SOL    HW228361   0.820   0.909   0.261  0.9019 -2.2925 -1.3129
 9249SOL     OW28362   2.170   5.307   3.837  0.1969  0.1030 -0.6343
 9249SOL    HW128363   2.212   5.394   3.834  0.7258 -0.1513 -0.7351
 9249SOL    HW228364   2.114   5.310   3.914 -0.8013  0.9892 -1.3446
 9250SOL     OW28365   5.752   3.273   3.934  0.4475  0.4525 -0.1861
 9250SOL    HW128366   5.797   3.202   3.888 -1.6836 -0.9103 -0.3223
 9250SOL    HW228367   5.760   3.250   4.027 -0.5412 -0.2018 -0.2473
 9251SOL     OW28368   0.534   5.918   1.462  0.1090 -0.7437  0.1568
 9251SOL    HW128369   0.503   5.842   1.412 -0.1742 -0.9637  0.6578
 9251SOL    HW228370   0.502   5.902   1.551  0.1543 -0.0938  0.2901
 9252SOL     OW28371   6.203   4.872   0.807 -0.6251 -0.3167  0.1244
 9252SOL    HW128372   6.257   4.797   0.831 -2.3938 -1.3946  0.9732
 9252SOL    HW228373   6.156   4.894   0.887 -1.0899  0.9029 -0.4525
 9253SOL     OW28374   3.532   4.364   6.344 -0.4310 -0.0604 -0.0302
 9253SOL    HW128375   3.496   4.420   6.276 -1.4859  0.3204  0.8086
 9253SOL    HW228376   3.627   4.376   6.339 -0.5159  0.1766 -1.2202
 9254SOL     OW28377   6.218   5.684   5.146  0.0424  0.1373 -0.3274
 9254SOL    HW128378   6.217   5.655   5.055  1.1938  0.4097 -0.4426
 9254SOL    HW228379   6.205   5.603   5.197  2.3707 -0.5250 -0.6716
 9255SOL     OW28380   5.677   0.040   3.546  0.1841  0.4945 -0.6760
 9255SOL    HW128381   5.688  -0.053   3.569  0.8304  1.0276  1.4060
 9255SOL    HW228382   5.762   0.066   3.512 -0.5531 -0.1014 -3.1627
 9256SOL     OW28383   6.580   3.448   0.565  0.8639 -0.1749 -1.1543
 9256SOL    HW128384   6.598   3.398   0.485 -0.7287  2.1580 -3.1159
 9256SOL    HW228385   6.645   3.518   0.565  0.2036  0.4505 -0.9728
 9257SOL     OW28386   1.401   6.855   2.893 -0.2529  0.3740  0.0429
 9257SOL    HW128387   1.420   6.795   2.965  0.8667 -0.1660 -0.6592
 9257SOL    HW228388   1.362   6.799   2.825 -1.7623  0.9647  0.3854
 9258SOL     OW28389   2.782   0.412   5.482 -0.2977  0.3597 -0.6685
 9258SOL    HW128390   2.724   0.473   5.438  1.6140  2.9671  0.1673
 9258SOL    HW228391   2.740   0.395   5.566 -0.5445  1.0882 -0.6398
 9259SOL     OW28392   0.060   3.809   2.095  0.5066 -0.0114  0.3835
 9259SOL    HW128393  -0.010   3.775   2.151 -0.7607  0.9087 -0.5929
 9259SOL    HW228394   0.043   3.903   2.090  2.5849  0.4686  1.1539
 9260SOL     OW28395   0.056   5.647   2.375 -0.2519 -0.9248 -0.9724
 9260SOL    HW128396   0.018   5.561   2.392  0.5636 -1.7927 -3.1933
 9260SOL    HW228397  -0.013   5.697   2.331 -0.9035 -0.1931  0.7784
 9261SOL     OW28398   3.150   1.714   5.317 -0.1579  0.0130 -0.4045
 9261SOL    HW128399   3.109   1.684   5.398 -1.0610  0.7761 -0.5627
 9261SOL    HW228400   3.157   1.635   5.263 -1.2738 -0.1692 -0.3051
 9262SOL     OW28401   6.367   2.283   3.147 -0.5528 -0.9564  0.2335
 9262SOL    HW128402   6.374   2.210   3.086 -0.6895 -2.1522  1.5927
 9262SOL    HW228403   6.454   2.293   3.183 -0.2778  0.2742 -0.6877
 9263SOL     OW28404   1.279   4.590   0.763  0.3503 -0.5011  0.1188
 9263SOL    HW128405   1.346   4.657   0.750 -0.1973 -0.1368 -0.9135
 9263SOL    HW228406   1.196   4.636   0.752 -0.0413 -1.2876 -0.3154
 9264SOL     OW28407   4.803   7.023   3.008 -0.3768  0.0665 -0.6805
 9264SOL    HW128408   4.759   6.956   3.060  0.4094 -0.4053 -0.6064
 9264SOL    HW228409   4.840   6.975   2.933  2.0602 -0.0235  0.4678
 9265SOL     OW28410   5.529   1.937   0.084  0.0012 -0.0759  0.0652
 9265SOL    HW128411   5.594   1.983   0.031  0.4602 -0.4644  0.2858
 9265SOL    HW228412   5.461   2.002   0.102  0.2121  0.2646 -0.3677
 9266SOL     OW28413   5.629   1.154   2.513 -0.2746 -0.1144 -0.2775
 9266SOL    HW128414   5.642   1.059   2.507  1.7183 -0.1058  2.3064
 9266SOL    HW228415   5.558   1.164   2.576  1.3566  0.0630  1.6190
 9267SOL     OW28416   0.265   7.011   4.398 -0.1447 -0.3869  0.4263
 9267SOL    HW128417   0.274   6.953   4.474  1.5805 -1.6736 -0.6897
 9267SOL    HW228418   0.231   6.954   4.329  0.2906  0.2468 -0.3269
 9268SOL     OW28419   4.556   1.559   1.520  0.3140  0.2052  0.5571
 9268SOL    HW128420   4.514   1.566   1.435  0.8980  1.3213  0.3499
 9268SOL    HW228421   4.545   1.467   1.544  1.2373 -0.4212 -1.2771
 9269SOL     OW28422   5.576   3.705   3.619  0.2359 -0.2321 -0.1588
 9269SOL    HW128423   5.550   3.766   3.550 -1.0766 -0.1773  0.3469
 9269SOL    HW228424   5.588   3.760   3.697 -1.0250 -0.5920  0.3174
 9270SOL     OW28425   5.887   6.213   4.196 -0.0779 -0.2348  0.2605
 9270SOL    HW128426   5.892   6.299   4.155 -0.1404  1.4516  3.4619
 9270SOL    HW228427   5.978   6.183   4.199 -0.1903 -1.0532 -2.1284
 9271SOL     OW28428   2.829   3.849   0.926 -0.2557  0.1857  0.0329
 9271SOL    HW128429   2.891   3.897   0.871  0.2355 -0.6257 -0.1272
 9271SOL    HW228430   2.744   3.863   0.883  0.0031  0.2570 -0.4603
 9272SOL     OW28431   5.989   5.772   4.949 -0.5768 -0.1303 -0.1409
 9272SOL    HW128432   6.015   5.721   5.026  0.3180 -0.3845 -0.5974
 9272SOL    HW228433   5.951   5.708   4.889  1.4294 -0.4950 -1.1202
 9273SOL     OW28434   3.120   6.447   0.746 -0.1604  0.0405  0.5133
 9273SOL    HW128435   3.140   6.540   0.751 -1.1161  0.4179 -1.6327
 9273SOL    HW228436   3.205   6.404   0.738  0.2039  1.0776 -2.0811
 9274SOL     OW28437   2.612   5.780   3.298 -0.6616 -0.1033 -0.0603
 9274SOL    HW128438   2.601   5.686   3.283 -1.9497  0.0070  0.0918
 9274SOL    HW228439   2.672   5.786   3.372  0.8839 -0.7557 -1.1922
 9275SOL     OW28440   5.509   0.067   5.291  0.1013  0.8082  0.2810
 9275SOL    HW128441   5.432   0.032   5.246  0.4366  1.9866 -1.2794
 9275SOL    HW228442   5.473   0.124   5.358 -0.3933 -0.5866  1.2633
 9276SOL     OW28443   1.022   5.829   6.163 -0.2616 -0.3862  0.0596
 9276SOL    HW128444   1.027   5.756   6.101  2.4169 -0.8089  0.6400
 9276SOL    HW228445   1.107   5.873   6.155 -1.3059  1.8665  0.7064
 9277SOL     OW28446   1.648   3.050   2.592 -0.2164  0.4532  0.2202
 9277SOL    HW128447   1.669   3.118   2.656  0.0278  1.4177 -0.8490
 9277SOL    HW228448   1.558   3.025   2.611 -0.0649  0.5370  1.0926
 9278SOL     OW28449   4.333   0.779   0.769  0.1623 -0.2224 -0.2607
 9278SOL    HW128450   4.266   0.847   0.765 -0.7387 -1.1008 -0.6205
 9278SOL    HW228451   4.397   0.812   0.832 -0.8126  0.4712  0.3965
 9279SOL     OW28452   1.521   3.297   6.913  0.4877 -0.2222  0.0643
 9279SOL    HW128453   1.478   3.369   6.959  1.2020  0.2454  0.0125
 9279SOL    HW228454   1.558   3.243   6.983  0.4261 -0.2409  0.0828
 9280SOL     OW28455   3.636   0.262   0.007  0.1531  0.2849 -0.4318
 9280SOL    HW128456   3.646   0.357   0.019  0.9971  0.0386  1.1680
 9280SOL    HW228457   3.541   0.248   0.007 -0.0840  0.7721  3.3853
 9281SOL     OW28458   0.005   0.306   3.003  0.9683  0.1833 -0.0882
 9281SOL    HW128459  -0.058   0.363   2.960 -1.8501 -0.5926  2.6626
 9281SOL    HW228460   0.065   0.366   3.048 -0.5127  1.0320  0.8276
 9282SOL     OW28461   3.790   6.843   6.545  0.2952 -0.0352 -0.5337
 9282SOL    HW128462   3.837   6.907   6.492  0.1831  1.0097  0.5886
 9282SOL    HW228463   3.856   6.776   6.566  0.7230  0.3113 -0.7540
 9283SOL     OW28464   6.938   3.354   2.909 -0.4998  0.2795 -0.3693
 9283SOL    HW128465   7.030   3.379   2.920 -0.8857  0.4041  5.2696
 9283SOL    HW228466   6.892   3.437   2.898 -0.2053  0.6158  0.7600
 9284SOL     OW28467   6.074   5.484   5.879 -0.1508 -0.1837  0.3129
 9284SOL    HW128468   5.984   5.514   5.875 -0.4217 -1.1091 -2.4988
 9284SOL    HW228469   6.102   5.504   5.968 -2.9863  0.4603  1.1505
 9285SOL     OW28470   3.720   5.105   0.469 -0.0227  0.3347 -0.0694
 9285SOL    HW128471   3.783   5.127   0.537  1.4220 -0.7364 -0.9817
 9285SOL    HW228472   3.686   5.189   0.439  1.6539  1.0287 -0.1422
 9286SOL     OW28473   6.316   4.421   2.820  0.9639  0.0182 -0.2278
 9286SOL    HW128474   6.359   4.474   2.753  0.7354  1.3863  0.6587
 9286SOL    HW228475   6.369   4.436   2.899  0.5838 -0.6760  0.1672
 9287SOL     OW28476   4.646   5.779   1.025  0.2085 -0.5463 -0.2198
 9287SOL    HW128477   4.569   5.772   0.968  1.1752 -1.8805 -1.4132
 9287SOL    HW228478   4.609   5.790   1.113 -1.3247 -0.1345 -0.8702
 9288SOL     OW28479   3.773   6.401   5.251  0.4582 -0.2085  0.3218
 9288SOL    HW128480   3.868   6.394   5.247  0.5726  0.1035  1.8812
 9288SOL    HW228481   3.754   6.411   5.344 -1.0057  1.1392 -0.0939
 9289SOL     OW28482   3.004   3.605   0.062 -0.2870 -0.1331  0.7113
 9289SOL    HW128483   3.034   3.562  -0.018 -1.0155  1.0059 -0.2037
 9289SOL    HW228484   2.935   3.547   0.096 -1.9814  0.7419 -1.0690
 9290SOL     OW28485   4.230   0.396   1.055  0.3703 -0.0401  0.1043
 9290SOL    HW128486   4.138   0.382   1.077  0.5162  0.1951  0.9094
 9290SOL    HW228487   4.253   0.321   1.001 -0.2496 -0.1897  0.0403
 9291SOL     OW28488   3.210   1.239   3.192 -0.6591 -0.1691  0.0082
 9291SOL    HW128489   3.268   1.270   3.262  0.0241 -1.0851 -0.1400
 9291SOL    HW228490   3.240   1.287   3.114  0.4676 -1.2319 -0.2426
 9292SOL     OW28491   7.040   3.724   5.377 -0.0670 -0.0221  0.2894
 9292SOL    HW128492   6.952   3.717   5.340  0.2608  0.4716 -0.6190
 9292SOL    HW228493   7.092   3.762   5.307  1.2651 -1.8862  0.2047
 9293SOL     OW28494   0.040   3.627   4.305 -0.1250  0.1494 -0.3617
 9293SOL    HW128495   0.130   3.597   4.293 -0.0682  0.3893 -0.5217
 9293SOL    HW228496   0.013   3.588   4.389 -0.9437 -2.5375 -1.7692
 9294SOL     OW28497   3.984   2.567   5.072  0.0865 -0.4394 -0.0128
 9294SOL    HW128498   4.036   2.646   5.057  0.1113 -0.0049  2.0529
 9294SOL    HW228499   3.897   2.599   5.093 -0.8044 -1.1335 -2.3287
 9295SOL     OW28500   6.920   0.394   2.736  0.3208 -0.5655 -0.1349
 9295SOL    HW128501   6.952   0.359   2.654  2.2337 -0.0827  0.3518
 9295SOL    HW228502   6.932   0.489   2.728 -0.8382 -0.3674  0.1728
 9296SOL     OW28503   3.635   1.062   2.098 -0.6008 -0.2488  0.2792
 9296SOL    HW128504   3.722   1.091   2.070 -0.3637 -1.5493 -0.4180
 9296SOL    HW228505   3.606   1.003   2.028 -1.3043 -1.1646  1.3118
 9297SOL     OW28506   2.193   4.930   0.749 -0.6385 -0.4660 -0.0366
 9297SOL    HW128507   2.278   4.936   0.792 -0.9519 -0.9023  0.6709
 9297SOL    HW228508   2.213   4.913   0.657  0.0740  1.6228 -0.3109
 9298SOL     OW28509   0.875   1.172   5.609 -0.8453  0.1072  0.3175
 9298SOL    HW128510   0.945   1.187   5.672  0.1748  0.8483 -0.9292
 9298SOL    HW228511   0.815   1.111   5.653  2.3249 -3.4721  0.2478
 9299SOL     OW28512   0.278   0.712   4.047  0.0802  0.4244 -0.5473
 9299SOL    HW128513   0.236   0.781   3.996  1.1044  1.0236 -0.6043
 9299SOL    HW228514   0.372   0.728   4.036  0.3209 -0.3668  0.2695
 9300SOL     OW28515   5.658   6.725   1.223  0.7942  0.0849 -0.0163
 9300SOL    HW128516   5.624   6.729   1.312  0.5915 -2.0667  0.0458
 9300SOL    HW228517   5.593   6.773   1.171 -0.5082 -0.9439  0.6197
 9301SOL     OW28518   0.692   0.436   0.787 -0.8416 -0.1609  0.0261
 9301SOL    HW128519   0.771   0.382   0.799 -0.5375  0.5747  1.4940
 9301SOL    HW228520   0.715   0.521   0.824 -2.1409  0.2390 -0.0433
 9302SOL     OW28521   5.900   6.144   6.445  0.8218  0.4402 -0.1905
 9302SOL    HW128522   5.843   6.205   6.397 -1.0523 -0.5725  0.6632
 9302SOL    HW228523   5.974   6.199   6.474 -0.2909  2.0820 -0.3199
 9303SOL     OW28524   0.449   6.160   5.687  0.5823 -0.5728 -0.4469
 9303SOL    HW128525   0.477   6.215   5.613 -0.1170  0.0418 -0.2595
 9303SOL    HW228526   0.354   6.155   5.679  0.7052 -2.6117 -1.0435
 9304SOL     OW28527   6.366   6.881   2.231  0.1033  0.1444 -0.0373
 9304SOL    HW128528   6.372   6.960   2.178 -0.9605  0.5222  0.3841
 9304SOL    HW228529   6.403   6.812   2.176  2.2845  1.1291  0.0831
 9305SOL     OW28530   6.213   1.865   3.379  0.4116  0.3838 -0.2479
 9305SOL    HW128531   6.230   1.885   3.287  0.7582 -0.1262 -0.2974
 9305SOL    HW228532   6.284   1.807   3.404  0.7815  1.1851  0.5802
 9306SOL     OW28533   4.131   5.903   6.483 -0.0105 -0.5883  0.2191
 9306SOL    HW128534   4.085   5.822   6.505 -0.2346  0.0086  2.1500
 9306SOL    HW228535   4.224   5.882   6.496  0.0689 -0.9992 -0.9428
 9307SOL     OW28536   1.846   1.402   5.862  0.2301 -0.1334 -0.0318
 9307SOL    HW128537   1.878   1.341   5.796  0.6652  0.3175 -0.2440
 9307SOL    HW228538   1.850   1.353   5.944  0.1757 -0.5263 -0.2642
 9308SOL     OW28539   3.216   1.560   6.859 -0.4103  0.2763  0.1910
 9308SOL    HW128540   3.189   1.502   6.788 -0.8063 -0.7316  1.1297
 9308SOL    HW228541   3.135   1.580   6.906 -0.3126  1.7789 -0.2261
 9309SOL     OW28542   3.637   5.339   0.343 -0.0041  0.1405  0.4040
 9309SOL    HW128543   3.574   5.402   0.306  0.6225  0.8162  0.4688
 9309SOL    HW228544   3.673   5.294   0.267  1.2966  1.5407  0.1438
 9310SOL     OW28545   0.793   3.939   6.375  0.4217  0.1942  0.0429
 9310SOL    HW128546   0.736   3.971   6.305  0.5405  0.7137  0.1811
 9310SOL    HW228547   0.744   3.867   6.415  0.2665  0.0260 -0.4359
 9311SOL     OW28548   5.479   6.016   0.855  0.1768  0.1497  0.2789
 9311SOL    HW128549   5.479   5.943   0.917  2.7238  0.7761  1.1703
 9311SOL    HW228550   5.443   6.090   0.904 -0.4713 -0.0104  0.0524
 9312SOL     OW28551   2.373   6.097   3.676 -0.1838  0.5322  0.3992
 9312SOL    HW128552   2.390   6.150   3.598  0.7024  0.2312  0.3761
 9312SOL    HW228553   2.299   6.140   3.719  0.6829  1.9416  0.5258
 9313SOL     OW28554   2.405   5.205   4.119 -0.1863  0.3725  0.0122
 9313SOL    HW128555   2.496   5.176   4.115  0.2022  0.9714  2.5075
 9313SOL    HW228556   2.355   5.126   4.141  0.2325  0.5965  1.9750
 9314SOL     OW28557   4.537   5.978   4.563 -0.6241  0.1327 -0.3940
 9314SOL    HW128558   4.564   5.890   4.591 -0.6011 -0.2122 -1.4721
 9314SOL    HW228559   4.449   5.966   4.528 -0.0413  0.2302 -1.9808
 9315SOL     OW28560   6.714   5.423   3.686  0.5607  0.1829  0.0286
 9315SOL    HW128561   6.655   5.432   3.610 -0.4707  0.1976  0.8036
 9315SOL    HW228562   6.657   5.392   3.756  2.0016 -2.4283  0.1454
 9316SOL     OW28563   5.142   7.238   3.754 -0.5382 -0.6422 -0.3792
 9316SOL    HW128564   5.151   7.186   3.674  1.1381  1.0303 -1.3388
 9316SOL    HW228565   5.223   7.221   3.803 -0.3948  0.3259 -0.2698
 9317SOL     OW28566   5.601   6.945   2.981 -0.0808 -0.3257 -0.1146
 9317SOL    HW128567   5.688   6.985   2.979 -0.5915  0.8956  1.0066
 9317SOL    HW228568   5.619   6.852   2.994  1.0640 -0.0013  0.8938
 9318SOL     OW28569   6.118   5.594   1.004 -0.7519  0.1763  0.8501
 9318SOL    HW128570   6.168   5.612   0.925  0.4171 -0.1309  1.5034
 9318SOL    HW228571   6.081   5.507   0.990 -2.7797  1.1552 -0.4490
 9319SOL     OW28572   1.107   6.961   4.914  0.2342 -0.0397  0.0617
 9319SOL    HW128573   1.107   6.982   4.821 -0.2544  2.3552  0.5562
 9319SOL    HW228574   1.172   7.020   4.952 -1.0099  0.4548  1.5037
 9320SOL     OW28575   5.699   2.990   6.722  0.1899  0.0576 -0.0863
 9320SOL    HW128576   5.771   3.050   6.741  0.5597 -0.5259  0.3685
 9320SOL    HW228577   5.694   2.988   6.626  0.5290  0.3883 -0.1112
 9321SOL     OW28578   6.510   7.063   5.800 -0.4056 -0.2494  0.0160
 9321SOL    HW128579   6.579   7.027   5.745 -0.9869 -0.7864 -0.3806
 9321SOL    HW228580   6.429   7.047   5.751 -0.8038  0.4859  0.4049
 9322SOL     OW28581   4.798   2.530   2.570 -0.0032 -0.3885 -0.2523
 9322SOL    HW128582   4.776   2.440   2.549 -1.3384 -0.0231 -0.4908
 9322SOL    HW228583   4.891   2.527   2.592 -0.1120 -1.8839  0.1195
 9323SOL     OW28584   3.009   5.512   4.863 -0.3198  0.2937  0.1809
 9323SOL    HW128585   3.054   5.592   4.836 -1.7580  1.3058  0.6335
 9323SOL    HW228586   3.049   5.490   4.947  0.6852  0.0168 -0.3555
 9324SOL     OW28587   1.030   0.206   5.644  0.4242 -0.4979  0.4676
 9324SOL    HW128588   0.955   0.183   5.589  0.5361 -0.6040  0.3593
 9324SOL    HW228589   1.079   0.124   5.653 -0.6072 -0.9734  2.2936
 9325SOL     OW28590   0.526   3.781   2.666 -0.0087 -0.6609 -0.4929
 9325SOL    HW128591   0.444   3.816   2.629  0.0314 -0.5643 -0.4916
 9325SOL    HW228592   0.569   3.858   2.703  0.7287 -0.4709 -1.6886
 9326SOL     OW28593   6.968   5.518   3.622  0.4333  0.3889  0.3962
 9326SOL    HW128594   6.875   5.502   3.634  0.0603  1.0800 -1.2917
 9326SOL    HW228595   6.997   5.451   3.560  1.3693 -0.6041  1.8515
 9327SOL     OW28596   1.379   5.729   3.188 -0.2364  0.7320  0.0130
 9327SOL    HW128597   1.458   5.743   3.241 -0.3677 -0.2522  0.5015
 9327SOL    HW228598   1.410   5.735   3.098  0.9294 -1.9899  0.1375
 9328SOL     OW28599   6.855   3.189   5.724 -0.7924  0.0149  1.0248
 9328SOL    HW128600   6.854   3.095   5.739 -2.0018 -0.0469  0.6769
 9328SOL    HW228601   6.933   3.220   5.770  0.6684 -1.3837 -0.3585
 9329SOL     OW28602   4.740   0.190   6.146 -0.3554 -0.5252 -0.1662
 9329SOL    HW128603   4.745   0.110   6.093  0.2863  0.4961 -1.7252
 9329SOL    HW228604   4.668   0.174   6.207  0.9785 -3.0459  0.9038
 9330SOL     OW28605   0.484   2.543   7.040 -0.3344 -0.0856 -0.0534
 9330SOL    HW128606   0.523   2.577   7.121  0.1312  1.5464 -0.9133
 9330SOL    HW228607   0.549   2.563   6.972 -1.6840  0.6692 -1.1749
 9331SOL     OW28608   6.083   1.709   0.373 -0.2933  0.1743 -0.3928
 9331SOL    HW128609   6.076   1.692   0.279  0.9524  1.1869 -0.6996
 9331SOL    HW228610   6.117   1.627   0.409  0.3429  0.1567 -1.0109
 9332SOL     OW28611   0.826   4.644   3.596 -0.5608  1.1172  0.1503
 9332SOL    HW128612   0.808   4.557   3.631  0.5371  0.5975 -0.5318
 9332SOL    HW228613   0.761   4.700   3.638 -1.6118 -0.1053  0.2188
 9333SOL     OW28614   6.421   1.265   1.651 -0.9148  0.7845 -0.1255
 9333SOL    HW128615   6.479   1.250   1.726  0.3271  0.7772 -1.0766
 9333SOL    HW228616   6.353   1.198   1.660  0.2215 -0.3752  0.0189
 9334SOL     OW28617   2.367   1.873   4.590  0.0741  0.2576  0.0949
 9334SOL    HW128618   2.329   1.870   4.678  0.5952  0.2670  0.3250
 9334SOL    HW228619   2.313   1.813   4.539  0.1714 -0.2589  0.5849
 9335SOL     OW28620   2.186   2.922   0.199  0.3149 -0.1455 -0.0789
 9335SOL    HW128621   2.244   2.982   0.248 -0.1076  0.9071 -0.8354
 9335SOL    HW228622   2.115   2.903   0.261  0.9929 -0.7398  0.5428
 9336SOL     OW28623   2.028   3.971   4.179 -0.1513  0.2610 -0.7946
 9336SOL    HW128624   1.971   3.961   4.102 -0.1075  3.5708 -1.4057
 9336SOL    HW228625   2.115   3.990   4.142  0.8343 -2.0326  0.1458
 9337SOL     OW28626   3.681   3.784   7.038  0.4172  0.2572  0.3842
 9337SOL    HW128627   3.608   3.805   7.096 -1.1642 -1.2392 -0.9399
 9337SOL    HW228628   3.714   3.869   7.009 -1.2756  0.9891  0.4957
 9338SOL     OW28629   0.008   2.745   0.338  0.5999  0.6386  0.0274
 9338SOL    HW128630   0.086   2.696   0.363  1.6432  2.7245  1.1248
 9338SOL    HW228631  -0.054   2.727   0.408  0.6776  0.2917  0.0127
 9339SOL     OW28632   6.789   2.070   0.250  0.2375  0.0118  0.4462
 9339SOL    HW128633   6.794   2.051   0.156 -0.7010  1.1617  0.1399
 9339SOL    HW228634   6.869   2.120   0.268  0.0044  0.5418  0.0509
 9340SOL     OW28635   3.141   0.091   3.258  0.6789 -0.0517  0.4979
 9340SOL    HW128636   3.202   0.144   3.310  0.3778  0.3815  0.4241
 9340SOL    HW228637   3.099   0.033   3.322  1.1066 -0.2955  0.5600
 9341SOL     OW28638   7.202   2.738   1.035  0.5820 -0.2013 -0.0695
 9341SOL    HW128639   7.253   2.713   0.958  1.5723  0.6144  0.3065
 9341SOL    HW228640   7.263   2.786   1.090 -0.5593  0.6795  0.4684
 9342SOL     OW28641   4.642   3.972   3.004 -0.3229  0.4526 -0.9081
 9342SOL    HW128642   4.652   4.022   3.085  1.2200 -1.4040  0.1322
 9342SOL    HW228643   4.578   3.904   3.026  0.8728 -0.7030 -0.8393
 9343SOL     OW28644   6.184   4.384   0.031  0.1621 -0.1813 -0.7083
 9343SOL    HW128645   6.200   4.290   0.025  2.2166  0.0999 -0.2306
 9343SOL    HW228646   6.096   4.391   0.069  0.9167 -1.9511  1.5682
 9344SOL     OW28647   4.642   3.097   3.469 -0.3774 -0.4020 -0.4150
 9344SOL    HW128648   4.619   3.157   3.540  1.9307  1.2167 -0.9108
 9344SOL    HW228649   4.585   3.124   3.396  1.1617  1.9126 -0.8978
 9345SOL     OW28650   5.781   0.351   4.762 -0.0588 -0.4406 -0.1180
 9345SOL    HW128651   5.732   0.384   4.837 -1.2034  2.0671 -1.8325
 9345SOL    HW228652   5.715   0.306   4.709  1.1427 -4.3169  1.3029
 9346SOL     OW28653   0.266   4.137   3.599  0.5435  0.0221 -0.0614
 9346SOL    HW128654   0.303   4.153   3.686 -0.4543  2.5249 -0.0150
 9346SOL    HW228655   0.172   4.153   3.609  0.3071 -0.3174 -1.4569
 9347SOL     OW28656   1.484   4.193   6.180  0.3044  0.2875  0.4932
 9347SOL    HW128657   1.540   4.153   6.246 -0.7451 -2.3310 -0.0603
 9347SOL    HW228658   1.498   4.141   6.101 -2.0088  0.2270  0.0303
 9348SOL     OW28659   3.952   6.655   6.629  0.1628  0.4922 -0.2017
 9348SOL    HW128660   3.925   6.611   6.710 -0.8288 -1.9612 -1.7600
 9348SOL    HW228661   4.040   6.688   6.648  0.0588 -0.2089  1.7701
 9349SOL     OW28662   6.136   2.323   4.018  0.0913  0.3713 -0.3734
 9349SOL    HW128663   6.176   2.389   3.962  1.1210 -0.8256 -1.1003
 9349SOL    HW228664   6.091   2.373   4.086 -0.9329  1.8598 -2.0548
 9350SOL     OW28665   3.959   0.413   6.224 -0.1158 -0.1469 -0.5240
 9350SOL    HW128666   3.889   0.475   6.246 -0.2714 -0.7531  0.7954
 9350SOL    HW228667   4.012   0.458   6.158 -1.7090  0.3502 -1.5148
 9351SOL     OW28668   6.214   3.695   2.528 -0.2375  0.4548  0.0121
 9351SOL    HW128669   6.160   3.768   2.559  1.4110  1.7940 -0.1278
 9351SOL    HW228670   6.267   3.733   2.459  1.0181 -0.7607  0.2721
 9352SOL     OW28671   5.105   2.501   1.875  0.0926  0.0997  0.0665
 9352SOL    HW128672   5.120   2.531   1.785 -1.1328  0.1127 -0.1471
 9352SOL    HW228673   5.154   2.563   1.929 -0.6591  1.2272 -0.5006
 9353SOL     OW28674   6.018   0.074   0.833 -0.4354 -0.4072 -0.5106
 9353SOL    HW128675   6.034   0.136   0.903 -0.2695  1.1465 -1.8760
 9353SOL    HW228676   5.988   0.127   0.759 -2.2129 -2.1444 -1.1394
 9354SOL     OW28677   3.565   3.849   0.486  0.6610  0.1826  0.0056
 9354SOL    HW128678   3.560   3.756   0.467  0.6196  0.5032 -1.7399
 9354SOL    HW228679   3.531   3.892   0.407  1.1080  1.6789  0.5804
 9355SOL     OW28680   2.892   6.744   4.298 -0.1847 -0.5982 -0.1519
 9355SOL    HW128681   2.817   6.759   4.356 -1.6429  0.1958 -2.1347
 9355SOL    HW228682   2.853   6.723   4.213  1.8057  0.9845 -1.5442
 9356SOL     OW28683   6.764   6.871   3.391  0.2091  0.4907 -0.5073
 9356SOL    HW128684   6.744   6.811   3.319 -1.4618 -1.2644  1.2886
 9356SOL    HW228685   6.860   6.877   3.392  0.3053 -0.3481 -2.1303
 9357SOL     OW28686   0.555   4.478   4.726 -0.1098  0.2322  0.1014
 9357SOL    HW128687   0.571   4.517   4.812 -2.2831  0.4254  0.4671
 9357SOL    HW228688   0.463   4.452   4.728 -0.0058 -0.4603 -1.9139
 9358SOL     OW28689   7.171   6.248   2.334 -0.2168 -0.4570 -0.3971
 9358SOL    HW128690   7.082   6.223   2.308 -0.4633  0.7393 -0.7671
 9358SOL    HW228691   7.193   6.320   2.275  0.8872 -0.5317 -0.0921
 9359SOL     OW28692   3.005   0.890   1.371  0.1981 -0.2375  0.4912
 9359SOL    HW128693   3.030   0.800   1.388  0.6488 -0.2084  0.0078
 9359SOL    HW228694   3.014   0.934   1.456  1.9862 -0.1865  0.3248
 9360SOL     OW28695   2.382   4.946   4.014 -0.4002  0.3402  0.1321
 9360SOL    HW128696   2.297   4.902   4.007 -0.0167 -0.2742 -1.0746
 9360SOL    HW228697   2.446   4.877   3.991  0.3235  1.1327 -0.2832
 9361SOL     OW28698   0.144   3.333   6.216  0.0209 -0.1327 -0.1391
 9361SOL    HW128699   0.084   3.398   6.253  0.3740  0.4727 -0.6146
 9361SOL    HW228700   0.089   3.282   6.156 -0.2096 -0.1359  0.0724
 9362SOL     OW28701   3.859   4.868   6.882  0.0879  0.1418 -0.3099
 9362SOL    HW128702   3.818   4.785   6.857 -2.2935  0.6866  1.4286
 9362SOL    HW228703   3.800   4.935   6.847 -1.2281  0.9469  3.0556
 9363SOL     OW28704   2.811   4.723   7.256  0.6136 -0.0711 -0.0773
 9363SOL    HW128705   2.740   4.664   7.280 -0.8922  1.5655 -0.3779
 9363SOL    HW228706   2.865   4.671   7.196  0.5679 -1.8392  1.3333
 9364SOL     OW28707   3.610   4.910   1.508  0.2112 -0.1628  0.8479
 9364SOL    HW128708   3.615   4.964   1.429  3.5855 -1.3484  0.0421
 9364SOL    HW228709   3.664   4.957   1.572 -0.5918 -0.3606  1.6835
 9365SOL     OW28710   0.367   3.705   5.521 -0.3744 -0.3367 -0.1503
 9365SOL    HW128711   0.345   3.731   5.431 -0.4930  1.3321  0.3237
 9365SOL    HW228712   0.438   3.641   5.511 -0.7623 -0.5937 -1.4415
 9366SOL     OW28713   2.665   3.844   6.131  0.4062 -0.0349  1.0180
 9366SOL    HW128714   2.632   3.919   6.082  0.0860 -0.4963  0.5197
 9366SOL    HW228715   2.696   3.783   6.064  0.4955 -0.4254  1.4099
 9367SOL     OW28716   5.661   4.175   2.752  0.1125 -0.1040 -0.4083
 9367SOL    HW128717   5.585   4.197   2.699  0.7799 -0.5873 -1.5992
 9367SOL    HW228718   5.657   4.080   2.762  0.6849 -0.1630 -0.6937
 9368SOL     OW28719   0.434   0.891   3.819 -0.3181  0.2383  0.6178
 9368SOL    HW128720   0.421   0.981   3.789  0.2712  0.3635  0.7308
 9368SOL    HW228721   0.462   0.900   3.910  0.6657 -0.0168  0.3453
 9369SOL     OW28722   5.979   2.743   0.224 -0.4388 -0.1099  0.0971
 9369SOL    HW128723   6.044   2.697   0.171 -1.3053 -1.1333 -0.1214
 9369SOL    HW228724   5.920   2.674   0.254  0.3899  0.2885  3.0230
 9370SOL     OW28725   6.803   3.629   2.523  0.2851 -0.2738 -0.3402
 9370SOL    HW128726   6.813   3.571   2.448 -2.4733 -1.5968  0.1834
 9370SOL    HW228727   6.715   3.666   2.514  0.9089  1.6948  0.8436
 9371SOL     OW28728   0.435   6.192   6.425 -0.2131  0.0106 -0.1217
 9371SOL    HW128729   0.490   6.173   6.349  0.2982  0.4980  0.1205
 9371SOL    HW228730   0.370   6.122   6.425 -0.3032  0.0775 -1.0820
 9372SOL     OW28731   0.704   1.365   6.877  0.3580  0.3134 -0.1547
 9372SOL    HW128732   0.657   1.432   6.928  0.8975 -0.3783  1.2943
 9372SOL    HW228733   0.673   1.282   6.912 -0.2722 -0.2431 -1.9091
 9373SOL     OW28734   5.128   0.725   1.441 -0.7423  0.3487  0.0785
 9373SOL    HW128735   5.089   0.744   1.526 -3.0213 -1.3365 -0.5044
 9373SOL    HW228736   5.078   0.650   1.407  2.0806 -1.0205 -1.4286
 9374SOL     OW28737   3.886   0.343   6.520  0.4625 -0.1340  0.1708
 9374SOL    HW128738   3.971   0.320   6.482  0.1045 -0.7855 -0.2567
 9374SOL    HW228739   3.876   0.281   6.592  1.4803  1.5759  1.8726
 9375SOL     OW28740   1.391   2.186   2.470 -0.2389 -0.5853  0.3012
 9375SOL    HW128741   1.453   2.160   2.538 -0.9036 -0.9600  0.7714
 9375SOL    HW228742   1.377   2.279   2.485  3.6102  0.7096 -2.5450
 9376SOL     OW28743   1.424   4.639   0.361  0.1930  0.3003 -1.0374
 9376SOL    HW128744   1.518   4.623   0.372  0.3257 -0.0065 -2.5119
 9376SOL    HW228745   1.384   4.552   0.364  0.1950  0.2373 -2.4750
 9377SOL     OW28746   6.678   2.933   2.666 -0.2932  0.3441  0.0447
 9377SOL    HW128747   6.760   2.983   2.673 -0.1165  0.0806 -0.1202
 9377SOL    HW228748   6.673   2.884   2.748 -0.6985  0.9758  0.4076
 9378SOL     OW28749   7.242   0.783   6.976 -0.3637  0.2763  0.0570
 9378SOL    HW128750   7.179   0.744   6.915 -1.3312  1.9442 -0.0773
 9378SOL    HW228751   7.327   0.771   6.933 -0.6904 -1.0484 -0.2711
 9379SOL     OW28752   3.579   6.966   1.609  0.0021  0.1675  0.2295
 9379SOL    HW128753   3.490   7.000   1.600  0.4708  1.0795 -1.3162
 9379SOL    HW228754   3.624   7.027   1.667  0.2635  1.0870 -0.9025
 9380SOL     OW28755   5.226   1.618   4.314  0.2343 -0.0339 -0.2851
 9380SOL    HW128756   5.263   1.680   4.377  1.3356 -0.8576 -0.0990
 9380SOL    HW228757   5.299   1.591   4.260 -0.0215 -1.7985  0.1663
 9381SOL     OW28758   3.315   6.780   0.615 -0.0107  0.4411  0.5691
 9381SOL    HW128759   3.410   6.777   0.603 -0.0544  1.4266 -0.1456
 9381SOL    HW228760   3.293   6.872   0.606 -1.1295  0.1334 -0.0483
 9382SOL     OW28761   0.323   6.033   5.149 -0.7858 -0.1637 -0.7880
 9382SOL    HW128762   0.376   6.084   5.089  0.3686 -0.4669 -0.0593
 9382SOL    HW228763   0.322   5.945   5.111 -1.3936  0.0074 -1.1817
 9383SOL     OW28764   0.590   4.890   4.467  0.4877  0.3977  0.2127
 9383SOL    HW128765   0.641   4.912   4.389 -0.0612  0.9638  0.0108
 9383SOL    HW228766   0.499   4.887   4.436  0.3637 -0.4167  0.6086
 9384SOL     OW28767   1.951   7.045   3.340  0.4336 -0.4305  0.1003
 9384SOL    HW128768   2.015   6.988   3.298  2.2628  1.1919  0.5434
 9384SOL    HW228769   1.948   7.123   3.284  0.2137  0.2586  1.0452
 9385SOL     OW28770   4.796   6.338   3.606  0.0547 -0.6015  0.2679
 9385SOL    HW128771   4.783   6.391   3.685  0.5641 -0.1906  0.0842
 9385SOL    HW228772   4.873   6.376   3.565 -0.4660 -0.5214 -0.6631
 9386SOL     OW28773   3.640   3.546   1.220  0.4751 -0.1921  0.6373
 9386SOL    HW128774   3.658   3.616   1.157 -1.1569  1.6976  2.1470
 9386SOL    HW228775   3.554   3.513   1.195  0.5387 -0.5594  0.9019
 9387SOL     OW28776   5.684   6.265   1.769  0.6964  0.1215 -0.1765
 9387SOL    HW128777   5.635   6.183   1.770  1.0977 -0.1356 -0.6207
 9387SOL    HW228778   5.677   6.296   1.678  1.1782  0.1836 -0.1949
 9388SOL     OW28779   6.793   0.934   6.300 -0.2022  0.0813 -0.4310
 9388SOL    HW128780   6.797   0.911   6.393 -2.8954  1.2062  0.0656
 9388SOL    HW228781   6.798   1.029   6.298 -0.4228  0.0860 -1.4037
 9389SOL     OW28782   0.077   2.025   2.341 -0.1553 -0.1681  0.0603
 9389SOL    HW128783   0.017   2.097   2.360  1.3493  1.6687 -1.7211
 9389SOL    HW228784   0.023   1.960   2.296 -1.2156  0.5756  0.2203
 9390SOL     OW28785   1.961   5.205   4.479  0.1358 -0.2489  0.2471
 9390SOL    HW128786   1.963   5.156   4.561  1.8971 -0.4196  0.1414
 9390SOL    HW228787   2.035   5.266   4.485 -0.6838  0.8662 -0.5496
 9391SOL     OW28788   5.391   1.805   5.432  0.0426  0.2561  0.3333
 9391SOL    HW128789   5.312   1.852   5.456  0.0566  0.6530 -0.3819
 9391SOL    HW228790   5.367   1.712   5.437 -0.3083  0.3649  0.6486
 9392SOL     OW28791   3.396   6.620   3.901 -0.1369  0.0897 -0.3313
 9392SOL    HW128792   3.347   6.642   3.821  0.4727  2.3219 -0.1460
 9392SOL    HW228793   3.345   6.659   3.972 -1.3020 -2.8501  0.6155
 9393SOL     OW28794   1.134   4.855   0.045 -0.5895  0.2180  0.6858
 9393SOL    HW128795   1.135   4.920   0.115 -0.6300  0.0191  0.8690
 9393SOL    HW228796   1.042   4.846   0.022 -0.9669 -2.0119  2.7310
 9394SOL     OW28797   3.605   4.561   2.123 -0.1818 -0.5109 -0.0913
 9394SOL    HW128798   3.591   4.481   2.173  0.8088 -0.5906  0.0898
 9394SOL    HW228799   3.530   4.567   2.065 -0.7767 -1.0227  0.6130
 9395SOL     OW28800   1.982   1.628   5.846  0.4090 -0.7035  0.0420
 9395SOL    HW128801   1.931   1.551   5.871 -0.1189 -0.0879  0.9002
 9395SOL    HW228802   1.965   1.639   5.752 -0.2753 -1.0572  0.1215
 9396SOL     OW28803   4.424   0.623   3.140  0.2817 -0.2734 -0.4084
 9396SOL    HW128804   4.441   0.703   3.090  0.4989 -0.7478 -1.1028
 9396SOL    HW228805   4.506   0.575   3.138 -0.0704 -0.8790 -0.6742
 9397SOL     OW28806   2.173   3.069   1.270 -0.4241  0.0986  0.8708
 9397SOL    HW128807   2.182   3.163   1.279 -1.7513  0.4015 -0.5166
 9397SOL    HW228808   2.186   3.052   1.177  1.6418 -1.3531  1.3535
 9398SOL     OW28809   0.586   4.917   1.632 -0.1748 -0.1187 -0.0809
 9398SOL    HW128810   0.621   4.861   1.701 -1.3519 -0.4233  0.2962
 9398SOL    HW228811   0.508   4.871   1.602 -0.3626  0.6302 -0.7580
 9399SOL     OW28812   3.839   5.010   2.206  0.1226  0.2352  0.2374
 9399SOL    HW128813   3.894   5.055   2.142 -1.5649  0.0112 -1.4360
 9399SOL    HW228814   3.788   4.947   2.154 -2.5570  1.2247  1.4921
 9400SOL     OW28815   4.540   1.133   3.290 -0.1806  0.2542  0.3689
 9400SOL    HW128816   4.445   1.124   3.303 -0.2305  0.1606 -0.0428
 9400SOL    HW228817   4.549   1.210   3.234 -0.2842 -1.8202 -2.7627
 9401SOL     OW28818   1.450   6.218   4.355 -0.1661 -0.1949 -0.2290
 9401SOL    HW128819   1.412   6.266   4.429 -0.2156 -2.1376  1.0607
 9401SOL    HW228820   1.525   6.172   4.393 -0.2174 -1.2609 -1.3796
 9402SOL     OW28821   6.160   6.212   0.538 -0.3079 -0.3253  0.1179
 9402SOL    HW128822   6.137   6.121   0.557 -2.3092 -0.4164 -2.2610
 9402SOL    HW228823   6.093   6.264   0.582 -1.7550 -0.2946 -1.9664
 9403SOL     OW28824   6.242   4.297   1.855  0.6520 -0.0675 -0.0976
 9403SOL    HW128825   6.172   4.347   1.814  0.2369 -1.3415 -0.9873
 9403SOL    HW228826   6.323   4.338   1.824  0.3200  0.7006  0.0325
 9404SOL     OW28827   6.368   0.906   5.143 -0.3050  0.3080  0.1720
 9404SOL    HW128828   6.301   0.972   5.163 -2.8649 -1.3662 -2.1950
 9404SOL    HW228829   6.398   0.929   5.055  0.4529 -0.3859  0.2443
 9405SOL     OW28830   2.070   3.919   2.187 -0.4218  0.5595  0.2334
 9405SOL    HW128831   1.981   3.884   2.189 -0.1187 -0.2171  0.5649
 9405SOL    HW228832   2.126   3.845   2.212  0.3181  1.0345  0.0319
 9406SOL     OW28833   6.346   0.356   1.986  0.3837 -0.0715 -0.4036
 9406SOL    HW128834   6.382   0.402   1.910 -0.2788  1.0549 -0.0557
 9406SOL    HW228835   6.316   0.272   1.951  0.5985  0.2053 -1.2797
 9407SOL     OW28836   0.315   3.358   5.271 -0.1366 -0.1750 -0.3050
 9407SOL    HW128837   0.330   3.366   5.177 -0.3977 -2.3973 -0.5805
 9407SOL    HW228838   0.389   3.403   5.311  0.8732 -0.6455 -1.5841
 9408SOL     OW28839   2.858   6.203   6.617 -0.5664 -0.4240 -0.0431
 9408SOL    HW128840   2.910   6.154   6.552 -2.3902 -0.9852 -1.1538
 9408SOL    HW228841   2.885   6.294   6.605  0.3024 -0.7185 -0.4406
 9409SOL     OW28842   1.679   3.502   1.166 -0.2399  0.0055 -0.0210
 9409SOL    HW128843   1.756   3.484   1.219  0.3935 -1.0552 -1.2443
 9409SOL    HW228844   1.712   3.555   1.093 -0.5089 -0.9949 -0.8997
 9410SOL     OW28845   6.234   5.154   2.801  0.3643 -0.2995  0.1140
 9410SOL    HW128846   6.220   5.060   2.802  1.0721 -0.4043  0.1804
 9410SOL    HW228847   6.151   5.191   2.832  0.3447 -0.9262  0.8195
 9411SOL     OW28848   0.819   1.717   1.283  0.5568  0.1147  0.2498
 9411SOL    HW128849   0.820   1.761   1.368  2.5677  1.5151 -0.4414
 9411SOL    HW228850   0.792   1.785   1.221  1.0151 -0.3673 -0.4920
 9412SOL     OW28851   7.130   7.100   4.028  0.1349 -0.2640 -0.4945
 9412SOL    HW128852   7.190   7.093   3.953 -0.1724  0.5769 -0.8227
 9412SOL    HW228853   7.157   7.180   4.073  0.4609 -0.8793  0.4324
 9413SOL     OW28854   5.387   7.245   4.753 -0.2119  0.4781 -0.4924
 9413SOL    HW128855   5.387   7.333   4.791  0.0099  0.0814  0.4544
 9413SOL    HW228856   5.459   7.200   4.797 -0.1915 -0.1188 -1.1216
 9414SOL     OW28857   0.079   5.599   7.174 -0.0594  0.2399  0.2061
 9414SOL    HW128858   0.171   5.609   7.149  0.0172 -0.7177  0.0845
 9414SOL    HW228859   0.069   5.657   7.250 -0.3167  3.2613 -1.9663
 9415SOL     OW28860   4.695   2.885   6.096  0.0308 -0.4900  0.0415
 9415SOL    HW128861   4.768   2.920   6.045  1.1150 -3.3323 -0.5332
 9415SOL    HW228862   4.633   2.958   6.102  1.4588  1.0452 -2.2376
 9416SOL     OW28863   0.874   2.463   6.054  0.1897  0.5283 -0.1812
 9416SOL    HW128864   0.926   2.400   6.004  0.2770 -0.2066  0.7961
 9416SOL    HW228865   0.834   2.410   6.123 -0.1617  1.4636  0.3418
 9417SOL     OW28866   0.031   2.297   6.081 -0.4482  0.2393  0.2747
 9417SOL    HW128867  -0.028   2.372   6.076  1.2472  1.6518  0.3695
 9417SOL    HW228868   0.053   2.277   5.990 -0.7201 -0.0047  0.2610
 9418SOL     OW28869   1.263   4.722   2.899  0.2207  0.6177  0.0081
 9418SOL    HW128870   1.331   4.755   2.958 -0.9925  0.4857  1.5567
 9418SOL    HW228871   1.225   4.648   2.946  0.7041 -0.9711 -1.9702
 9419SOL     OW28872   2.642   3.999   0.758 -0.8966  0.6031 -0.5900
 9419SOL    HW128873   2.724   4.042   0.734 -1.2114  1.2976 -0.4497
 9419SOL    HW228874   2.612   4.048   0.835 -0.5038 -0.8195  0.5166
 9420SOL     OW28875   2.092   0.669   3.176  0.0155  0.2048 -0.0453
 9420SOL    HW128876   2.152   0.597   3.158  0.2971  0.2502  0.6895
 9420SOL    HW228877   2.116   0.736   3.112  2.2065  1.0714  1.5616
 9421SOL     OW28878   2.136   3.723   0.035 -0.0068 -0.2740  0.0875
 9421SOL    HW128879   2.163   3.776   0.110  0.1243 -0.5430  0.2327
 9421SOL    HW228880   2.101   3.643   0.075  0.0034 -0.3897 -0.1383
 9422SOL     OW28881   6.796   2.932   5.341  0.3849  0.1411  0.4290
 9422SOL    HW128882   6.812   2.950   5.434  0.9827 -1.8105  0.7341
 9422SOL    HW228883   6.808   2.838   5.332 -0.8109  0.1201 -1.4200
 9423SOL     OW28884   2.403   2.239   1.485 -0.4394 -0.3527  0.3154
 9423SOL    HW128885   2.496   2.257   1.473 -0.3400 -1.2245 -0.3394
 9423SOL    HW228886   2.377   2.293   1.559  0.0722  1.6365 -0.8756
 9424SOL     OW28887   0.457   3.707   4.874 -0.1540 -0.4392 -0.0874
 9424SOL    HW128888   0.490   3.620   4.896 -1.8790 -1.5655 -1.6399
 9424SOL    HW228889   0.535   3.760   4.860  0.9641 -2.2666 -1.0079
 9425SOL     OW28890   0.208   0.226   6.531 -0.1424 -0.2785 -0.2005
 9425SOL    HW128891   0.256   0.266   6.459  0.8885  1.7703  1.4996
 9425SOL    HW228892   0.276   0.181   6.583 -0.5092  0.0959  0.6206
 9426SOL     OW28893   6.680   5.699   4.743  0.0402 -0.0439  0.0643
 9426SOL    HW128894   6.753   5.637   4.751  0.0632  0.0472  0.6062
 9426SOL    HW228895   6.688   5.734   4.655  0.9030  0.2693  0.2481
 9427SOL     OW28896   2.529   0.187   1.684 -0.0000 -0.2346  0.1506
 9427SOL    HW128897   2.544   0.282   1.684 -0.0579 -0.2120 -0.7703
 9427SOL    HW228898   2.521   0.164   1.776  1.3878  0.4425  0.4675
 9428SOL     OW28899   0.045   1.734   2.293 -0.4282  0.2613  0.0302
 9428SOL    HW128900   0.008   1.666   2.237 -0.3365 -0.7480  1.1505
 9428SOL    HW228901  -0.021   1.748   2.361  0.3058 -0.0033  0.8220
 9429SOL     OW28902   4.571   0.551   4.545  0.4724 -0.5480 -0.2156
 9429SOL    HW128903   4.505   0.608   4.506  1.3785  0.2565 -0.6219
 9429SOL    HW228904   4.526   0.467   4.558 -0.6188 -0.0224 -0.4711
 9430SOL     OW28905   4.878   5.726   4.018 -0.0409  0.0966  0.3255
 9430SOL    HW128906   4.935   5.802   4.006  0.4639  0.0195  1.9122
 9430SOL    HW228907   4.938   5.652   4.025 -0.5357 -0.4980 -1.3118
 9431SOL     OW28908   5.868   4.684   2.355  0.1787  0.0852 -0.1487
 9431SOL    HW128909   5.881   4.627   2.431  0.4209  0.2727 -0.0456
 9431SOL    HW228910   5.933   4.655   2.291 -0.8374 -0.8789 -0.7728
 9432SOL     OW28911   6.294   3.737   4.684  0.8905  0.5399 -0.7388
 9432SOL    HW128912   6.206   3.716   4.653  1.6763 -1.3409 -1.8078
 9432SOL    HW228913   6.290   3.724   4.778 -0.2112  1.4147 -0.6463
 9433SOL     OW28914   2.392   2.006   4.218  0.2288 -0.5356  0.1523
 9433SOL    HW128915   2.341   2.068   4.270  1.4540  2.3925 -1.8841
 9433SOL    HW228916   2.338   1.927   4.214 -1.7200  0.5710  2.3071
 9434SOL     OW28917   5.975   1.269   5.079  0.3844  0.2387 -0.6062
 9434SOL    HW128918   5.892   1.287   5.035 -0.4687  0.1472  0.8926
 9434SOL    HW228919   6.030   1.346   5.060 -0.4060  0.7730 -0.7474
 9435SOL     OW28920   7.073   5.800   3.127  0.5688 -0.2383  0.0073
 9435SOL    HW128921   7.050   5.844   3.045  0.0858  1.3643  0.9500
 9435SOL    HW228922   6.990   5.794   3.175  0.8084 -1.3243  0.3217
 9436SOL     OW28923   6.311   2.265   4.207  0.0788 -0.0603  0.2539
 9436SOL    HW128924   6.313   2.361   4.209 -1.4478 -0.0088  1.7229
 9436SOL    HW228925   6.243   2.244   4.143  0.4912 -0.1735 -0.1499
 9437SOL     OW28926   4.428   4.482   5.952  0.6034  0.4274  0.1921
 9437SOL    HW128927   4.456   4.466   5.861 -0.0405  0.7668 -0.0716
 9437SOL    HW228928   4.457   4.405   6.000 -0.5398 -0.5468 -0.6248
 9438SOL     OW28929   0.252   4.555   6.181  0.1157 -0.3322  0.1957
 9438SOL    HW128930   0.209   4.641   6.180  0.9604  0.1088 -1.7816
 9438SOL    HW228931   0.217   4.510   6.104  1.0979 -1.0386  0.1469
 9439SOL     OW28932   4.878   7.031   0.437 -0.0543  0.0414 -0.1849
 9439SOL    HW128933   4.960   7.068   0.468 -0.2134  1.6954 -1.6029
 9439SOL    HW228934   4.814   7.057   0.503 -0.0124  1.7084 -0.7482
 9440SOL     OW28935   4.078   3.924   5.275 -0.6911  0.0735 -0.0583
 9440SOL    HW128936   4.085   3.886   5.363 -0.2681 -1.7220 -0.8035
 9440SOL    HW228937   4.155   3.980   5.267  0.3288 -1.2485  0.0803
 9441SOL     OW28938   2.948   2.538   1.229 -0.1884  0.3090  0.2477
 9441SOL    HW128939   2.976   2.454   1.266  0.8282  0.6991  0.3944
 9441SOL    HW228940   2.919   2.589   1.305 -2.9967 -0.6787 -0.0655
 9442SOL     OW28941   2.725   5.223   0.759 -0.8282 -0.3802 -0.1021
 9442SOL    HW128942   2.742   5.173   0.839 -0.2033 -2.4722 -1.4427
 9442SOL    HW228943   2.680   5.160   0.701 -0.7344  0.8838 -1.6061
 9443SOL     OW28944   4.584   5.734   4.321 -0.2935 -0.0929 -0.5416
 9443SOL    HW128945   4.523   5.781   4.378 -0.5872 -0.4200 -0.5849
 9443SOL    HW228946   4.611   5.799   4.256  0.4408  0.4310  0.2627
 9444SOL     OW28947   5.363   2.181   1.202  0.4805 -0.0919 -0.2416
 9444SOL    HW128948   5.387   2.126   1.277 -2.4185  0.0775  0.9477
 9444SOL    HW228949   5.334   2.120   1.135 -3.0933 -0.1938  1.2122
 9445SOL     OW28950   4.370   3.406   6.491 -0.5953 -0.5510 -0.0504
 9445SOL    HW128951   4.461   3.401   6.461 -0.9122  0.8551 -1.4082
 9445SOL    HW228952   4.319   3.369   6.419 -1.1573 -0.3488  0.2428
 9446SOL     OW28953   2.551   2.206   2.655  0.0732 -0.1562 -0.3789
 9446SOL    HW128954   2.546   2.115   2.682  0.3798  0.1610  0.8096
 9446SOL    HW228955   2.595   2.251   2.727 -0.7048  1.0525 -0.6121
 9447SOL     OW28956   3.375   4.251   0.354  0.3468  0.0200  0.2086
 9447SOL    HW128957   3.300   4.243   0.413 -0.2357  1.8596 -0.2191
 9447SOL    HW228958   3.389   4.162   0.321 -0.8412 -0.5869  1.2634
 9448SOL     OW28959   0.924   6.992   5.849 -0.1655  0.4055  0.3077
 9448SOL    HW128960   0.917   6.906   5.807  0.2385  1.2742 -1.6457
 9448SOL    HW228961   0.875   7.050   5.792  0.5527  1.6931  0.9608
 9449SOL     OW28962   4.503   5.304   1.678 -0.2319  0.3225  0.0491
 9449SOL    HW128963   4.421   5.265   1.647 -0.4916  1.6316 -1.0121
 9449SOL    HW228964   4.533   5.245   1.747 -0.5061 -1.8258 -1.5550
 9450SOL     OW28965   5.791   4.586   2.987 -0.3245 -0.8800 -0.0491
 9450SOL    HW128966   5.832   4.524   2.927  3.0915 -0.0963  1.2234
 9450SOL    HW228967   5.809   4.550   3.074 -0.1986  0.7594  0.6403
 9451SOL     OW28968   5.030   6.469   3.517  0.1862 -0.5539 -0.1955
 9451SOL    HW128969   4.993   6.554   3.494  1.2231 -0.0591 -0.0986
 9451SOL    HW228970   5.079   6.442   3.440  1.8088  0.0648  0.5614
 9452SOL     OW28971   6.161   1.723   3.639 -0.7022 -0.0186  0.5226
 9452SOL    HW128972   6.067   1.706   3.636 -0.5923 -0.7657  1.0861
 9452SOL    HW228973   6.175   1.791   3.573 -1.4164 -0.8916 -0.5566
 9453SOL     OW28974   2.155   4.856   2.691  0.4174  0.3464  0.0977
 9453SOL    HW128975   2.089   4.861   2.622  0.8289 -0.5403 -0.3758
 9453SOL    HW228976   2.165   4.947   2.720  0.9151  0.9097 -1.6579
 9454SOL     OW28977   5.784   6.391   6.621  0.0478 -0.2236  0.4604
 9454SOL    HW128978   5.853   6.369   6.558  0.2815  1.6268  0.0000
 9454SOL    HW228979   5.826   6.452   6.682 -0.6504 -0.6667  1.4084
 9455SOL     OW28980   0.426   1.207   3.506  0.0463  0.1038 -0.1102
 9455SOL    HW128981   0.392   1.244   3.587  1.7165  0.4263  0.4836
 9455SOL    HW228982   0.354   1.156   3.471 -1.3463  1.4931  0.5868
 9456SOL     OW28983   3.923   7.190   2.311  0.6748  0.7661  0.3866
 9456SOL    HW128984   4.004   7.160   2.270  0.5441  1.6975 -0.5923
 9456SOL    HW228985   3.952   7.240   2.388  1.0282  1.0175  0.0933
 9457SOL     OW28986   0.373   5.692   1.309 -0.6552  0.5069  0.2891
 9457SOL    HW128987   0.418   5.627   1.361  0.6890 -1.0872 -2.6072
 9457SOL    HW228988   0.284   5.694   1.345 -0.2262 -1.5795  1.6431
 9458SOL     OW28989   3.780   3.390   3.975 -0.6742  0.4638 -0.2457
 9458SOL    HW128990   3.686   3.374   3.973 -0.7568  0.1428  2.5162
 9458SOL    HW228991   3.788   3.485   3.982 -0.9810  0.3626  2.3664
 9459SOL     OW28992   1.471   6.446   2.583 -0.0061  0.0559 -0.0952
 9459SOL    HW128993   1.480   6.380   2.651  1.9053 -0.2755 -0.6144
 9459SOL    HW228994   1.439   6.524   2.629  3.5631  0.6293  1.7681
 9460SOL     OW28995   5.845   6.892   4.817  0.1095 -0.6220 -0.1844
 9460SOL    HW128996   5.755   6.869   4.839  0.0826  0.4738  0.8860
 9460SOL    HW228997   5.841   6.919   4.725 -1.1836  2.0073  0.5652
 9461SOL     OW28998   5.916   6.030   0.422 -0.0261 -0.0439 -0.1931
 9461SOL    HW128999   5.861   6.003   0.349 -2.0034 -0.7216  1.4353
 9461SOL    HW229000   5.869   6.104   0.462 -0.0410 -0.8787  1.4590
 9462SOL     OW29001   3.991   0.549   2.753 -0.4025 -0.3119  0.4477
 9462SOL    HW129002   3.956   0.540   2.842 -0.9483  0.3636  0.3161
 9462SOL    HW229003   3.913   0.554   2.697 -0.0708 -0.2190 -0.0134
 9463SOL     OW29004   2.339   5.121   6.576 -0.2430 -0.2376 -0.1535
 9463SOL    HW129005   2.269   5.071   6.534 -0.3361 -1.0924  0.9888
 9463SOL    HW229006   2.358   5.191   6.513 -1.5402 -0.4759 -0.8620
 9464SOL     OW29007   2.853   4.626   2.779 -0.3326  0.1519  0.2265
 9464SOL    HW129008   2.783   4.579   2.823  0.1193  0.4362  1.2913
 9464SOL    HW229009   2.856   4.711   2.824 -1.4780  1.4579 -1.9743
 9465SOL     OW29010   2.538   5.760   5.750 -0.2016  0.2548  0.3140
 9465SOL    HW129011   2.507   5.671   5.736 -1.8002  0.6241  1.1782
 9465SOL    HW229012   2.480   5.795   5.819  1.4287  1.4190  1.1669
 9466SOL     OW29013   4.376   4.776   2.596  0.5234 -0.2364 -0.4309
 9466SOL    HW129014   4.429   4.754   2.672 -0.7391 -1.1005  0.2253
 9466SOL    HW229015   4.408   4.719   2.526  1.3977  0.2607 -0.4484
 9467SOL     OW29016   5.849   4.346   4.850 -0.3463  0.5951  0.2481
 9467SOL    HW129017   5.916   4.286   4.883 -1.2338 -1.3963 -1.3624
 9467SOL    HW229018   5.767   4.313   4.887 -0.9170  0.4102 -1.1166
 9468SOL     OW29019   3.397   2.562   2.292 -0.0879 -0.1399  0.2049
 9468SOL    HW129020   3.458   2.527   2.355  0.5931 -1.6329 -1.2164
 9468SOL    HW229021   3.446   2.630   2.245 -0.5395  0.8453  1.0974
 9469SOL     OW29022   6.565   2.621   3.093 -0.1523 -0.0871 -0.3053
 9469SOL    HW129023   6.631   2.680   3.058 -1.1331  0.9986 -0.3563
 9469SOL    HW229024   6.602   2.590   3.176  0.4828  0.3738 -0.4134
 9470SOL     OW29025   2.432   0.329   2.662  0.1794  0.4448 -0.1384
 9470SOL    HW129026   2.497   0.378   2.712  1.0043  1.0435 -1.7469
 9470SOL    HW229027   2.353   0.384   2.666 -0.5796 -0.6631  2.5011
 9471SOL     OW29028   4.395   2.265   6.783  0.1514 -0.0679 -0.3218
 9471SOL    HW129029   4.451   2.310   6.847  0.6900 -1.3816  0.1550
 9471SOL    HW229030   4.428   2.295   6.698  1.2360 -0.3896 -0.0348
 9472SOL     OW29031   3.581   5.745   3.073  0.5800 -0.2495 -0.5202
 9472SOL    HW129032   3.614   5.663   3.110 -0.0372  0.5441  1.9820
 9472SOL    HW229033   3.592   5.735   2.979  1.3976 -2.8126 -0.2260
 9473SOL     OW29034   1.129   2.764   2.651  0.0045 -0.0822 -0.0304
 9473SOL    HW129035   1.097   2.706   2.582  0.4795 -0.2079 -0.1451
 9473SOL    HW229036   1.060   2.763   2.717 -0.5666  0.2229 -0.6074
 9474SOL     OW29037   3.250   4.158   6.197  0.1608  0.3647 -0.3529
 9474SOL    HW129038   3.214   4.229   6.143  3.5115  1.8595 -0.9429
 9474SOL    HW229039   3.250   4.194   6.286 -1.0197 -0.1895 -0.1218
 9475SOL     OW29040   4.963   5.785   2.966 -0.5525 -0.0946  0.4024
 9475SOL    HW129041   4.881   5.834   2.970  0.1867  1.4169 -1.4410
 9475SOL    HW229042   5.026   5.841   3.011  0.2357  0.6415 -1.4844
 9476SOL     OW29043   5.132   1.419   0.245  0.2154  0.7949  0.3390
 9476SOL    HW129044   5.106   1.329   0.266 -1.3674  1.6314  2.2006
 9476SOL    HW229045   5.227   1.415   0.239  0.1342 -1.1485 -0.4194
 9477SOL     OW29046   3.886   2.559   3.285  0.4399 -0.1810 -0.4827
 9477SOL    HW129047   3.855   2.606   3.362 -0.1646 -0.0177 -0.8170
 9477SOL    HW229048   3.981   2.553   3.296  0.3642 -0.1018  0.2364
 9478SOL     OW29049   7.058   1.823   3.336  0.4642  0.1094 -0.7374
 9478SOL    HW129050   7.024   1.733   3.333 -0.4485  0.4177 -0.2306
 9478SOL    HW229051   7.083   1.843   3.246  2.6753 -1.3682 -0.5352
 9479SOL     OW29052   0.479   1.522   3.295  0.1238 -0.4077  0.3220
 9479SOL    HW129053   0.429   1.484   3.223  0.7454  0.7821 -0.7652
 9479SOL    HW229054   0.488   1.614   3.272  2.3915 -0.4833  0.7187
 9480SOL     OW29055   2.445   5.171   0.610 -0.3004  0.2571 -0.1237
 9480SOL    HW129056   2.503   5.206   0.544 -1.1809  0.5891 -0.7362
 9480SOL    HW229057   2.498   5.105   0.656 -0.1753 -1.2513 -2.2810
 9481SOL     OW29058   4.807   7.011   1.684  0.2073  0.5878 -0.0447
 9481SOL    HW129059   4.715   7.036   1.671 -0.3231 -0.5825  1.1344
 9481SOL    HW229060   4.825   7.035   1.775 -0.0765 -2.3310  0.8890
 9482SOL     OW29061   1.537   3.717   6.283 -0.2146  0.7679  0.4954
 9482SOL    HW129062   1.495   3.644   6.330  0.7657 -1.1598 -1.4626
 9482SOL    HW229063   1.464   3.764   6.244 -0.9025  1.1901  2.1798
 9483SOL     OW29064   3.270   3.002   2.185  0.8800 -0.3226 -0.5047
 9483SOL    HW129065   3.200   2.966   2.132 -0.6325  1.3934  0.2114
 9483SOL    HW229066   3.336   3.031   2.122  0.1153 -0.2963 -1.3073
 9484SOL     OW29067   4.625   2.991   5.289 -0.6672 -0.1356 -0.3311
 9484SOL    HW129068   4.594   2.956   5.372 -0.8128  1.0503  0.1441
 9484SOL    HW229069   4.697   3.050   5.314  0.2654 -0.8858 -1.1840
 9485SOL     OW29070   4.064   1.377   1.169  0.1793  0.1214  0.2042
 9485SOL    HW129071   4.004   1.452   1.162 -0.0105 -0.0100  0.4223
 9485SOL    HW229072   4.044   1.339   1.254 -0.8661 -1.1502 -0.5677
 9486SOL     OW29073   6.938   6.849   2.644  0.2461 -0.1838 -0.1167
 9486SOL    HW129074   6.916   6.836   2.736  2.2452 -1.5224  0.2346
 9486SOL    HW229075   6.908   6.938   2.625 -1.9456 -0.5417  1.2392
 9487SOL     OW29076   6.706   4.899   4.419  0.1867 -0.1202  0.1994
 9487SOL    HW129077   6.784   4.871   4.371 -0.0525  0.0796 -0.3057
 9487SOL    HW229078   6.714   4.995   4.422  0.1023 -0.1185  0.3945
 9488SOL     OW29079   7.107   6.266   2.581  0.0134 -0.1592 -0.2468
 9488SOL    HW129080   7.110   6.257   2.486  0.7672  0.0009 -0.2461
 9488SOL    HW229081   7.137   6.355   2.598 -2.1443  0.5839  0.0474
 9489SOL     OW29082   2.292   6.465   3.510 -0.4454 -0.2941 -0.3616
 9489SOL    HW129083   2.296   6.560   3.501 -1.5241 -0.2783 -0.8347
 9489SOL    HW229084   2.275   6.450   3.603  1.2988 -0.1084  0.0303
 9490SOL     OW29085   3.754   5.409   6.895 -0.0353  0.2254 -0.1502
 9490SOL    HW129086   3.699   5.347   6.943  0.8175 -0.0823  0.4572
 9490SOL    HW229087   3.842   5.370   6.898  1.1162  2.6128  2.5046
 9491SOL     OW29088   6.180   5.799   6.530  0.4837  0.3190 -0.4058
 9491SOL    HW129089   6.243   5.817   6.600  0.9988 -1.3060 -0.3933
 9491SOL    HW229090   6.095   5.815   6.570  0.7149 -1.5901  0.9813
 9492SOL     OW29091   4.857   0.696   7.092  0.1173 -0.0781  0.7171
 9492SOL    HW129092   4.788   0.636   7.064 -0.3270  0.7439 -0.0448
 9492SOL    HW229093   4.868   0.680   7.185 -0.7110 -0.6240  0.7279
 9493SOL     OW29094   4.296   5.100   2.837  0.5218  0.2920 -0.1611
 9493SOL    HW129095   4.386   5.120   2.862 -0.1528  1.8581  1.1711
 9493SOL    HW229096   4.247   5.101   2.919 -0.8089  0.0090 -0.9283
 9494SOL     OW29097   0.320   3.213   4.844  0.3821  0.4218 -0.3999
 9494SOL    HW129098   0.324   3.297   4.888  0.6020 -0.3837  1.1713
 9494SOL    HW229099   0.399   3.167   4.872 -0.0596 -0.5680 -0.7116
 9495SOL     OW29100   1.089   3.238   3.458  0.7909  0.2715  0.0422
 9495SOL    HW129101   1.112   3.209   3.546  1.2537  1.5883  0.3822
 9495SOL    HW229102   1.006   3.284   3.469 -0.2987 -1.4500 -0.6057
 9496SOL     OW29103   2.767   6.270   2.979  0.2213  0.5926 -0.6973
 9496SOL    HW129104   2.706   6.343   2.991  1.0343  1.1989 -0.1590
 9496SOL    HW229105   2.752   6.240   2.889  0.1421  1.6648 -1.0541
 9497SOL     OW29106   4.437   7.000   4.596 -0.3522  0.5114 -0.4446
 9497SOL    HW129107   4.402   6.939   4.661 -1.2272 -0.2989 -1.6503
 9497SOL    HW229108   4.477   7.070   4.649  0.0398 -0.7140  0.9655
 9498SOL     OW29109   2.166   6.988   2.333  0.9975  0.0505 -0.3546
 9498SOL    HW129110   2.136   7.053   2.270  0.5025  1.3659  1.1794
 9498SOL    HW229111   2.167   7.034   2.417  0.1851 -2.0385  0.8815
 9499SOL     OW29112   3.556   5.825   0.792  0.1767 -0.1490  0.2138
 9499SOL    HW129113   3.620   5.790   0.854  0.5619 -1.3970 -0.8644
 9499SOL    HW229114   3.472   5.819   0.839  0.6109 -0.0664  1.0107
 9500SOL     OW29115   3.740   1.025   2.574  0.3350 -0.4301 -0.2540
 9500SOL    HW129116   3.705   1.010   2.662  0.3846  1.5486  0.1397
 9500SOL    HW229117   3.835   1.020   2.585  0.3852  1.0281  0.0665
 9501SOL     OW29118   0.046   2.101   0.602 -0.2883 -0.1909  0.3243
 9501SOL    HW129119   0.072   2.141   0.519 -0.7373 -1.6772 -0.5730
 9501SOL    HW229120  -0.037   2.056   0.582 -0.7242 -0.0565  1.7378
 9502SOL     OW29121   6.926   4.204   2.172  0.3127 -0.2503 -0.0717
 9502SOL    HW129122   6.955   4.284   2.128  0.1448  0.2828  0.7662
 9502SOL    HW229123   6.988   4.137   2.144  0.5188  0.1898 -0.7010
 9503SOL     OW29124   4.475   0.132   5.248  0.3175  0.3041  0.3321
 9503SOL    HW129125   4.524   0.113   5.328 -0.3340  0.5247  0.7943
 9503SOL    HW229126   4.472   0.228   5.244 -0.5673  0.2947  0.6206
 9504SOL     OW29127   1.849   7.165   2.306  0.2123  0.1485 -0.2697
 9504SOL    HW129128   1.868   7.114   2.385 -0.4743 -1.0237 -0.8354
 9504SOL    HW229129   1.827   7.100   2.240  0.4074  1.1325 -1.3405
 9505SOL     OW29130   2.222   6.124   0.025 -0.5951  0.0134 -0.0935
 9505SOL    HW129131   2.226   6.218   0.046  2.0437  0.1546 -0.8508
 9505SOL    HW229132   2.181   6.120  -0.061 -0.4004  0.5164 -0.2156
 9506SOL     OW29133   1.512   0.256   0.051 -0.0647 -0.4845 -0.6414
 9506SOL    HW129134   1.585   0.200   0.078 -0.3290 -1.2390 -1.4004
 9506SOL    HW229135   1.466   0.277   0.132  1.1026  0.1822 -0.1233
 9507SOL     OW29136   7.080   4.040   1.746 -0.2578 -0.0633  0.4546
 9507SOL    HW129137   7.173   4.051   1.726 -0.3622  0.1909  0.0983
 9507SOL    HW229138   7.039   4.024   1.661 -0.6450  0.5779  0.5139
 9508SOL     OW29139   2.871   6.512   0.823  0.3127  0.0096  0.4556
 9508SOL    HW129140   2.961   6.480   0.823 -0.0773 -1.3049  2.6429
 9508SOL    HW229141   2.823   6.449   0.877 -1.7718  1.0832 -0.0334
 9509SOL     OW29142   2.444   5.296   6.401 -0.3759  0.4220  0.3294
 9509SOL    HW129143   2.413   5.282   6.311 -0.9881  1.7291  0.3102
 9509SOL    HW229144   2.477   5.386   6.400 -0.8162  0.6036  1.5359
 9510SOL     OW29145   1.680   6.392   2.414 -0.1387 -0.3081  0.6764
 9510SOL    HW129146   1.608   6.419   2.471 -0.9212 -2.7131  0.9174
 9510SOL    HW229147   1.739   6.343   2.471 -0.8737 -2.6645 -0.4544
 9511SOL     OW29148   6.545   3.164   7.054 -0.2468 -0.4802  0.0575
 9511SOL    HW129149   6.460   3.125   7.032  0.1877 -0.9910 -0.7492
 9511SOL    HW229150   6.522   3.247   7.096 -1.1726 -1.1697  1.0088
 9512SOL     OW29151   6.715   4.313   0.342  0.0868  0.4651  0.7317
 9512SOL    HW129152   6.625   4.283   0.331  0.0926  0.4355  0.7675
 9512SOL    HW229153   6.762   4.237   0.376  0.7930 -0.4578 -2.0761
 9513SOL     OW29154   6.912   0.657   0.235 -0.2159  1.2051  0.1595
 9513SOL    HW129155   6.852   0.726   0.261 -1.3180  0.4388 -0.3056
 9513SOL    HW229156   6.880   0.626   0.151  0.7379  0.6701 -0.0325
 9514SOL     OW29157   3.086   1.932   4.081 -0.0786  0.2286 -0.3562
 9514SOL    HW129158   3.154   1.927   4.148 -0.1066 -1.3148 -0.3992
 9514SOL    HW229159   3.061   1.841   4.066 -2.5089  0.7632  0.0366
 9515SOL     OW29160   0.161   0.975   1.021  0.4148  0.2678  0.1720
 9515SOL    HW129161   0.203   1.002   0.939  1.1598 -0.4332  0.3163
 9515SOL    HW229162   0.080   1.027   1.024 -0.1673 -0.4716 -1.5458
 9516SOL     OW29163   5.367   6.020   0.613 -0.2749  0.5672  0.2904
 9516SOL    HW129164   5.334   5.930   0.602  0.6374  0.2334  0.2166
 9516SOL    HW229165   5.415   6.018   0.695  0.9498  0.6102 -0.4043
 9517SOL     OW29166   6.842   5.449   0.912 -0.2508  0.0956 -0.5634
 9517SOL    HW129167   6.913   5.386   0.917  0.1049  0.5756  0.9335
 9517SOL    HW229168   6.788   5.419   0.839  0.5059 -1.2986 -0.5762
 9518SOL     OW29169   1.506   4.120   5.565 -0.4763 -0.4049  0.0689
 9518SOL    HW129170   1.440   4.188   5.578 -0.0166  0.1689 -0.5730
 9518SOL    HW229171   1.567   4.131   5.638  0.4078  0.8369 -0.8230
 9519SOL     OW29172   7.244   3.081   5.713  0.0731  0.2502 -0.2027
 9519SOL    HW129173   7.221   3.117   5.627 -0.7887 -0.1306 -0.1380
 9519SOL    HW229174   7.339   3.094   5.719  0.5529 -1.6773 -2.1620
 9520SOL     OW29175   2.823   5.170   1.222 -0.0933 -0.1371  0.0249
 9520SOL    HW129176   2.784   5.094   1.178 -0.4334  0.2336 -0.3181
 9520SOL    HW229177   2.914   5.170   1.192  0.1237 -0.8615  0.6367
 9521SOL     OW29178   5.152   0.626   3.138  0.1587 -0.1709  0.0375
 9521SOL    HW129179   5.169   0.673   3.219 -1.1594 -0.7384  0.6657
 9521SOL    HW229180   5.089   0.558   3.162 -0.4195 -0.2240 -1.5011
 9522SOL     OW29181   1.614   3.209   4.081 -0.2074 -0.5722 -0.1012
 9522SOL    HW129182   1.667   3.261   4.021  0.3054  0.0354  0.8583
 9522SOL    HW229183   1.648   3.120   4.071  0.5839 -0.2943  0.0594
 9523SOL     OW29184   1.048   3.427   6.529  0.4913 -0.0213 -0.5285
 9523SOL    HW129185   0.964   3.426   6.483  0.5058  1.4707 -0.6520
 9523SOL    HW229186   1.098   3.356   6.490 -0.7791 -1.0915 -0.2921
 9524SOL     OW29187   0.323   2.134   2.258 -0.6053  0.4506 -0.6435
 9524SOL    HW129188   0.298   2.112   2.168 -1.5087 -1.2949 -0.0222
 9524SOL    HW229189   0.250   2.103   2.311  0.5707  0.0578  0.8177
 9525SOL     OW29190   2.540   5.236   2.454 -0.2894  0.0705  0.3450
 9525SOL    HW129191   2.568   5.147   2.434  0.5082  0.7095 -1.6025
 9525SOL    HW229192   2.457   5.246   2.406 -0.5756  0.2524  0.8755
 9526SOL     OW29193   5.034   0.476   2.498  0.0216  0.0412 -0.2999
 9526SOL    HW129194   5.101   0.460   2.432  0.2735  3.6533 -1.1649
 9526SOL    HW229195   5.076   0.536   2.560 -1.9639  1.4420 -0.1968
 9527SOL     OW29196   2.968   4.175   2.169 -0.0001 -0.1897 -0.6557
 9527SOL    HW129197   2.927   4.098   2.208  1.9813 -1.5188 -1.0380
 9527SOL    HW229198   2.908   4.201   2.099 -2.0821  0.3679  1.2134
 9528SOL     OW29199   1.612   3.653   4.735 -0.0384  0.5574 -0.6265
 9528SOL    HW129200   1.578   3.722   4.679  1.9177  0.4575 -2.0658
 9528SOL    HW229201   1.700   3.683   4.758 -0.4146  0.1196  1.6317
 9529SOL     OW29202   6.488   4.477   3.875 -0.1132 -0.0236  0.0586
 9529SOL    HW129203   6.407   4.525   3.893 -0.5679 -0.7914  0.1467
 9529SOL    HW229204   6.512   4.437   3.959 -1.0250 -1.8043 -0.4641
 9530SOL     OW29205   4.489   2.390   6.527 -0.8294  0.4992 -0.1479
 9530SOL    HW129206   4.559   2.347   6.477 -1.9539 -1.3697 -0.2104
 9530SOL    HW229207   4.519   2.480   6.538 -0.7089  1.2390 -4.6076
 9531SOL     OW29208   0.138   5.652   1.468 -0.1941 -0.2927 -0.0545
 9531SOL    HW129209   0.076   5.613   1.407 -0.7833 -0.2356  0.5006
 9531SOL    HW229210   0.180   5.578   1.510  0.3510 -0.3351 -0.6543
 9532SOL     OW29211   5.977   2.929   4.497 -0.0207  0.1749  0.0031
 9532SOL    HW129212   5.963   2.912   4.403  2.7248 -3.8907  0.0623
 9532SOL    HW229213   6.017   3.015   4.501  1.1118 -0.1298 -2.7756
 9533SOL     OW29214   6.900   1.205   6.737  0.1736  0.1286 -0.1540
 9533SOL    HW129215   6.932   1.205   6.827  2.5299 -0.6799 -0.9181
 9533SOL    HW229216   6.913   1.295   6.708  1.4178 -0.0728 -0.2949
 9534SOL     OW29217   1.589   6.310   5.989  0.1762 -0.7173 -0.7652
 9534SOL    HW129218   1.622   6.299   5.900  0.7388 -0.8386 -0.5501
 9534SOL    HW229219   1.496   6.326   5.979  0.5563  1.3768 -1.5179
 9535SOL     OW29220   6.331   7.012   5.049 -0.0479  0.1901 -0.3435
 9535SOL    HW129221   6.344   7.106   5.039 -1.1068  0.2862 -0.9686
 9535SOL    HW229222   6.398   6.985   5.112  2.7558  0.7128 -2.8690
 9536SOL     OW29223   0.470   0.801   6.966 -0.0896 -0.5597  0.1665
 9536SOL    HW129224   0.453   0.834   7.054  1.3778 -1.7237  0.9250
 9536SOL    HW229225   0.391   0.751   6.943 -0.9165  0.6065  0.3550
 9537SOL     OW29226   5.635   5.374   1.628 -0.3787 -0.2815  0.4561
 9537SOL    HW129227   5.729   5.383   1.642 -0.4366  1.4695  0.0025
 9537SOL    HW229228   5.626   5.365   1.533 -0.6761 -0.4466  0.4983
 9538SOL     OW29229   6.978   1.038   3.626  0.4138 -0.3682  0.0972
 9538SOL    HW129230   6.903   1.027   3.567 -0.8173  1.0469  1.2854
 9538SOL    HW229231   7.025   1.114   3.592  0.3016 -0.2001  0.3073
 9539SOL     OW29232   1.544   4.204   4.338 -0.7676  0.1029 -0.7040
 9539SOL    HW129233   1.468   4.214   4.395 -0.2891 -1.9793  0.4130
 9539SOL    HW229234   1.543   4.112   4.313  0.3849  0.4508 -2.1648
 9540SOL     OW29235   1.539   1.797   3.386 -0.2320 -0.2253  0.2822
 9540SOL    HW129236   1.534   1.786   3.291  1.0086 -0.3217  0.2113
 9540SOL    HW229237   1.470   1.742   3.421 -1.6080  0.8682 -0.6209
 9541SOL     OW29238   3.464   7.068   0.375 -0.2500 -0.3138  0.3459
 9541SOL    HW129239   3.515   6.987   0.384 -1.7963 -1.4884 -0.7888
 9541SOL    HW229240   3.419   7.058   0.290 -0.2553  1.8819  0.0469
 9542SOL     OW29241   5.480   3.974   5.600 -0.1131  0.1027 -0.5674
 9542SOL    HW129242   5.517   4.032   5.534  1.3943 -0.4514 -0.2362
 9542SOL    HW229243   5.506   3.886   5.573  0.6723 -0.1271  0.8226
 9543SOL     OW29244   0.431   5.950   3.384  0.1214  0.1128 -0.4563
 9543SOL    HW129245   0.359   6.007   3.411 -0.1842 -0.3083 -0.3930
 9543SOL    HW229246   0.442   5.968   3.291 -0.7291 -0.5620 -0.6929
 9544SOL     OW29247   2.540   5.413   5.328 -0.2151 -0.3324 -0.1777
 9544SOL    HW129248   2.632   5.429   5.310 -0.6889  0.8316 -1.7182
 9544SOL    HW229249   2.505   5.376   5.248 -1.5647  1.4045 -0.4630
 9545SOL     OW29250   2.476   6.302   3.926  0.5711 -0.2906 -0.0437
 9545SOL    HW129251   2.448   6.298   4.017 -0.5031 -1.9430 -0.4092
 9545SOL    HW229252   2.405   6.348   3.881 -0.8171 -2.8919 -0.6636
 9546SOL     OW29253   0.049   4.376   2.162 -0.0245  0.4165  0.1064
 9546SOL    HW129254  -0.014   4.353   2.094 -0.4636 -0.6865  0.8596
 9546SOL    HW229255   0.065   4.294   2.209  2.3413  0.5261 -0.3502
 9547SOL     OW29256   6.943   0.782   2.021  0.4199 -0.2311 -0.5987
 9547SOL    HW129257   6.950   0.730   2.101  0.7623 -0.7727 -0.9747
 9547SOL    HW229258   7.018   0.755   1.968  2.1276  2.4918  0.2496
 9548SOL     OW29259   6.640   1.567   6.384 -1.1300 -0.3928  0.0308
 9548SOL    HW129260   6.597   1.651   6.399 -1.9665 -0.4536 -1.8145
 9548SOL    HW229261   6.609   1.539   6.298  0.6779 -1.6535 -0.2605
 9549SOL     OW29262   1.140   5.426   2.482 -0.3618 -0.7124 -0.1775
 9549SOL    HW129263   1.171   5.515   2.465 -1.0905  0.2299  2.8165
 9549SOL    HW229264   1.056   5.439   2.527  1.1410 -2.6919  3.6015
 9550SOL     OW29265   5.338   5.511   1.523 -0.4967  0.2320  0.3668
 9550SOL    HW129266   5.268   5.445   1.529  1.2233 -1.6878  0.3983
 9550SOL    HW229267   5.318   5.573   1.593 -2.2115 -0.1953  0.3183
 9551SOL     OW29268   4.549   4.112   4.241  1.0160 -0.7886  0.3421
 9551SOL    HW129269   4.458   4.097   4.268  1.2298 -1.4947  0.6897
 9551SOL    HW229270   4.561   4.206   4.252  0.4265 -0.7361  0.6192
 9552SOL     OW29271   3.804   3.001   1.235  0.3722  0.0429 -0.1139
 9552SOL    HW129272   3.887   2.981   1.191 -0.3903 -1.9298 -0.7494
 9552SOL    HW229273   3.778   3.086   1.200  0.5604 -0.7647 -2.3364
 9553SOL     OW29274   6.896   5.557   2.873  0.2176 -0.6452  0.0352
 9553SOL    HW129275   6.843   5.636   2.858 -1.5267 -1.3880  1.8115
 9553SOL    HW229276   6.918   5.561   2.966 -0.7286 -2.6760  0.4105
 9554SOL     OW29277   1.900   4.795   5.684  0.1465 -0.2423  0.4078
 9554SOL    HW129278   1.844   4.872   5.667 -1.9186 -1.6777  0.3177
 9554SOL    HW229279   1.847   4.721   5.655  1.9804 -1.7413  0.7437
 9555SOL     OW29280   4.249   0.348   4.760 -0.0301  0.1705  0.2235
 9555SOL    HW129281   4.270   0.268   4.809  0.2555  0.5939  0.7955
 9555SOL    HW229282   4.308   0.345   4.684  0.0492 -0.1115  0.2950
 9556SOL     OW29283   1.614   3.394   2.164  0.7626  0.3957 -1.0273
 9556SOL    HW129284   1.614   3.453   2.240  1.2138 -0.4215 -0.3834
 9556SOL    HW229285   1.523   3.365   2.157  0.9130 -0.3701 -0.1107
 9557SOL     OW29286   5.694   5.406   5.817 -0.0638  0.2415 -0.6394
 9557SOL    HW129287   5.732   5.466   5.881  0.5646  0.5160 -1.2550
 9557SOL    HW229288   5.622   5.363   5.863  0.5336  0.2552  0.3257
 9558SOL     OW29289   1.866   0.503   4.046  0.4457  0.2714  0.0014
 9558SOL    HW129290   1.783   0.457   4.057  0.5779  0.1636  0.5995
 9558SOL    HW229291   1.883   0.543   4.132  1.7560 -0.9684  0.3476
 9559SOL     OW29292   0.713   7.160   2.568  0.3719 -0.7609  0.1773
 9559SOL    HW129293   0.691   7.252   2.584  1.0035 -0.5285 -0.2104
 9559SOL    HW229294   0.664   7.138   2.489  0.1834 -0.7704  0.2969
 9560SOL     OW29295   4.859   6.573   2.564 -0.1171 -0.0409 -0.2641
 9560SOL    HW129296   4.841   6.586   2.471 -2.0176 -0.6017 -0.0337
 9560SOL    HW229297   4.903   6.488   2.568 -0.7654 -0.3993 -0.5969
 9561SOL     OW29298   4.673   6.484   7.084 -0.0616  0.2734 -0.0991
 9561SOL    HW129299   4.645   6.395   7.065  2.5744 -0.7402  0.2986
 9561SOL    HW229300   4.683   6.486   7.179 -1.8149  1.6203  0.1144
 9562SOL     OW29301   0.446   6.808   5.544  0.0763  0.5206  0.6196
 9562SOL    HW129302   0.440   6.795   5.639 -3.0376  0.7612  0.5490
 9562SOL    HW229303   0.443   6.903   5.533 -1.5269  0.4546  0.2565
 9563SOL     OW29304   3.213   0.746   1.720  0.5944 -0.3407 -0.7696
 9563SOL    HW129305   3.123   0.737   1.688  0.3275 -1.4984  0.2134
 9563SOL    HW229306   3.205   0.802   1.798  0.9016  0.5329 -1.3585
 9564SOL     OW29307   4.817   3.433   5.536  0.2335 -0.1820 -0.3907
 9564SOL    HW129308   4.825   3.479   5.453  0.8925 -0.3897 -0.4491
 9564SOL    HW229309   4.819   3.340   5.513 -1.0813 -0.2591 -0.2705
 9565SOL     OW29310   5.025   1.315   4.017  0.3362 -0.0621 -0.0331
 9565SOL    HW129311   4.943   1.265   4.022 -0.2668  0.9702  0.8316
 9565SOL    HW229312   5.070   1.294   4.099  1.5532 -1.5910 -1.0377
 9566SOL     OW29313   3.780   5.328   1.123  0.6526 -0.5064  0.2949
 9566SOL    HW129314   3.763   5.239   1.093  1.1126 -0.3031 -0.5977
 9566SOL    HW229315   3.820   5.371   1.048 -0.3123  0.6906  0.4426
 9567SOL     OW29316   6.543   2.184   5.084  0.5107  0.2418  0.2964
 9567SOL    HW129317   6.528   2.256   5.023 -1.1886 -0.4086 -0.0914
 9567SOL    HW229318   6.507   2.107   5.040  1.6154 -0.7332  1.0259
 9568SOL     OW29319   1.842   5.214   1.273 -0.3245 -0.5255  0.2066
 9568SOL    HW129320   1.832   5.168   1.190  1.2961 -0.1959 -0.2111
 9568SOL    HW229321   1.917   5.272   1.259  0.3451 -0.8693  2.0794
 9569SOL     OW29322   0.662   6.310   2.885 -0.8623 -0.0309  0.1464
 9569SOL    HW129323   0.615   6.391   2.868  0.5857  0.8577  0.1317
 9569SOL    HW229324   0.663   6.301   2.980 -0.8603  0.0812  0.1566
 9570SOL     OW29325   5.068   5.676   4.553  0.1708  0.4539 -0.2810
 9570SOL    HW129326   5.049   5.618   4.627  0.4021  1.4919  0.6062
 9570SOL    HW229327   5.163   5.674   4.545  0.2179  1.1564  0.1128
 9571SOL     OW29328   6.877   2.937   1.726 -0.3828  0.2930  0.4791
 9571SOL    HW129329   6.849   3.028   1.720  0.0207  0.3507 -0.7658
 9571SOL    HW229330   6.940   2.926   1.655 -1.0712 -1.1875  0.0475
 9572SOL     OW29331   5.601   2.498   6.332  0.5976 -0.3872  0.1657
 9572SOL    HW129332   5.547   2.427   6.298  1.1448 -0.5015 -0.4794
 9572SOL    HW229333   5.585   2.497   6.427 -1.9379  0.7802 -0.1857
 9573SOL     OW29334   5.742   6.118   1.505 -0.0053 -0.0926 -1.0129
 9573SOL    HW129335   5.821   6.169   1.489  0.5226 -0.9326 -1.1266
 9573SOL    HW229336   5.774   6.034   1.538 -0.8301 -0.6098 -1.5036
 9574SOL     OW29337   2.317   5.621   4.194  0.3335 -0.5867 -0.7264
 9574SOL    HW129338   2.296   5.633   4.102 -2.2172  2.1267  0.0419
 9574SOL    HW229339   2.286   5.533   4.214 -1.4143 -0.3276 -1.9832
 9575SOL     OW29340   7.203   1.927   3.100  0.1917 -0.3373  0.0308
 9575SOL    HW129341   7.259   1.850   3.106 -0.3349 -0.7076  0.2662
 9575SOL    HW229342   7.258   1.999   3.130  0.7081 -0.6062 -0.2525
 9576SOL     OW29343   6.670   2.160   3.579  0.3662  0.3140  0.2799
 9576SOL    HW129344   6.580   2.147   3.548  0.5007  1.5018 -0.6802
 9576SOL    HW229345   6.722   2.167   3.499  1.6488 -2.1966  0.7933
 9577SOL     OW29346   6.100   1.288   0.591 -0.4654  0.2398 -0.3340
 9577SOL    HW129347   6.143   1.337   0.521  0.3134  1.7174  1.1110
 9577SOL    HW229348   6.029   1.345   0.620 -1.3247 -0.7353 -0.4682
 9578SOL     OW29349   5.080   6.574   5.769 -0.3033 -0.0149  0.2313
 9578SOL    HW129350   5.105   6.666   5.772 -0.4444  0.0644 -0.6885
 9578SOL    HW229351   4.988   6.575   5.742 -0.4445 -0.4130  0.6826
 9579SOL     OW29352   3.900   6.037   1.891 -0.0655 -0.1042 -0.4107
 9579SOL    HW129353   3.893   6.093   1.813  0.9834  0.5557 -0.0533
 9579SOL    HW229354   3.988   6.052   1.923 -0.7166  0.1757  1.3292
 9580SOL     OW29355   1.846   2.477   4.476  0.1828  0.2109  0.2326
 9580SOL    HW129356   1.818   2.520   4.557  1.7588 -1.2909  1.6576
 9580SOL    HW229357   1.934   2.444   4.496  0.0759 -1.3564 -1.6645
 9581SOL     OW29358   5.492   2.527   3.621  0.5372  0.2291  0.1084
 9581SOL    HW129359   5.403   2.550   3.597  0.3686  0.0521  0.5604
 9581SOL    HW229360   5.506   2.568   3.706 -0.6242 -3.2334  2.1779
 9582SOL     OW29361   5.177   3.207   6.065  0.1913  0.5559 -0.3396
 9582SOL    HW129362   5.170   3.247   5.979 -0.7204  2.0064  0.3758
 9582SOL    HW229363   5.249   3.253   6.107  1.1586 -0.6893 -0.5770
 9583SOL     OW29364   7.005   7.230   2.802 -0.1608  0.2468 -0.2916
 9583SOL    HW129365   7.081   7.282   2.775 -0.9833  1.5333 -0.2562
 9583SOL    HW229366   6.959   7.211   2.720 -1.4976  2.2869 -0.1029
 9584SOL     OW29367   3.059   5.183   3.409 -0.3075  0.3012  0.0699
 9584SOL    HW129368   3.145   5.224   3.415  0.9346 -2.0501 -0.3606
 9584SOL    HW229369   3.043   5.146   3.496  1.0959 -2.7832 -0.8634
 9585SOL     OW29370   4.021   4.808   2.309  0.4181  0.5339 -0.0342
 9585SOL    HW129371   3.941   4.860   2.302 -0.3933 -0.6995 -0.1742
 9585SOL    HW229372   4.091   4.871   2.291 -0.4344  1.8400  0.9352
 9586SOL     OW29373   0.963   4.324   4.290 -0.3714  0.1916  0.2578
 9586SOL    HW129374   1.047   4.305   4.249 -1.2099  0.7668 -1.8726
 9586SOL    HW229375   0.984   4.383   4.363  1.0606  0.4734 -0.3529
 9587SOL     OW29376   5.224   6.445   6.303  0.6218 -0.0529  0.0725
 9587SOL    HW129377   5.192   6.357   6.324  0.3555 -0.1004 -0.5122
 9587SOL    HW229378   5.150   6.489   6.262  0.7709  0.4297  0.3085
 9588SOL     OW29379   1.036   6.100   6.672  0.2537 -0.0715 -0.3841
 9588SOL    HW129380   1.049   6.153   6.594  2.0793  1.6038  0.9323
 9588SOL    HW229381   0.983   6.155   6.730 -0.9478 -1.2228 -0.3310
 9589SOL     OW29382   5.334   0.261   5.405  0.0323  0.4035 -0.1229
 9589SOL    HW129383   5.283   0.237   5.482  1.6279  1.8493  1.4920
 9589SOL    HW229384   5.336   0.357   5.406  1.2218  0.4307 -1.1775
 9590SOL     OW29385   0.261   2.913   0.610 -0.1086 -0.1814 -0.3253
 9590SOL    HW129386   0.232   3.004   0.619  0.6088  0.3797 -2.8926
 9590SOL    HW229387   0.351   2.913   0.640 -0.7084 -0.5340  1.5898
 9591SOL     OW29388   4.337   3.218   1.653  0.1262  0.3025 -0.3162
 9591SOL    HW129389   4.291   3.273   1.588 -0.0086 -0.4242 -0.8464
 9591SOL    HW229390   4.422   3.261   1.663  0.3392  0.1637 -1.3470
 9592SOL     OW29391   2.816   5.452   5.280  0.0935 -0.3501  0.3701
 9592SOL    HW129392   2.879   5.384   5.302  3.2534  2.3496  0.5143
 9592SOL    HW229393   2.816   5.455   5.184  1.5241  0.5961  0.3479
 9593SOL     OW29394   3.598   3.366   3.208  0.3350 -0.2309 -0.1635
 9593SOL    HW129395   3.645   3.350   3.126  0.0321  0.0114 -0.3878
 9593SOL    HW229396   3.625   3.454   3.234  1.7233 -0.9266  0.8812
 9594SOL     OW29397   4.310   2.817   2.979  0.5339  0.1474  0.4167
 9594SOL    HW129398   4.258   2.894   2.955  0.4045 -0.2398 -0.6050
 9594SOL    HW229399   4.400   2.841   2.955  0.1245 -1.1121 -2.9655
 9595SOL     OW29400   6.414   2.948   4.250  0.4550 -0.0607  0.0679
 9595SOL    HW129401   6.422   3.016   4.182  0.4037 -1.1210 -1.0258
 9595SOL    HW229402   6.496   2.954   4.299  0.5641  0.6137 -0.1809
 9596SOL     OW29403   2.772   4.700   3.689 -0.0384  0.3730 -0.2508
 9596SOL    HW129404   2.812   4.787   3.690 -0.8818  0.7640  0.5381
 9596SOL    HW229405   2.730   4.694   3.603  0.2825  0.6200 -0.4270
 9597SOL     OW29406   0.517   2.958   1.229 -0.2688 -0.2318  0.5540
 9597SOL    HW129407   0.593   3.006   1.263  0.5334 -0.9447 -0.1986
 9597SOL    HW229408   0.548   2.920   1.147 -1.5897 -0.1452 -0.0036
 9598SOL     OW29409   1.338   3.668   3.598  0.1203 -0.0076 -0.5298
 9598SOL    HW129410   1.281   3.696   3.527 -0.0597  0.6563 -0.1344
 9598SOL    HW229411   1.371   3.583   3.570 -1.0559 -0.4076 -0.7738
 9599SOL     OW29412   6.517   3.655   5.214  0.0158  0.1536  0.2232
 9599SOL    HW129413   6.509   3.750   5.228  0.1398  0.4855 -1.6347
 9599SOL    HW229414   6.440   3.618   5.256 -0.5074  1.1855  0.2076
 9600SOL     OW29415   0.952   6.999   4.260  0.1423 -0.3529 -0.5011
 9600SOL    HW129416   0.900   6.924   4.231 -0.1511 -0.9039  1.3289
 9600SOL    HW229417   0.969   6.982   4.353  0.7672  1.4608 -0.2438
 9601SOL     OW29418   1.809   0.945   3.355  0.7284 -0.4434 -0.2277
 9601SOL    HW129419   1.876   0.881   3.379  1.1865  0.5335  1.2250
 9601SOL    HW229420   1.858   1.022   3.327  0.1920 -0.2992 -0.7887
 9602SOL     OW29421   6.821   4.801   0.257 -0.0769  0.3863  0.1658
 9602SOL    HW129422   6.898   4.772   0.307 -0.8226 -1.0464  0.5431
 9602SOL    HW229423   6.777   4.863   0.316  0.4255  0.7063  0.2137
 9603SOL     OW29424   4.610   7.124   6.758  0.3209  0.8162 -0.3618
 9603SOL    HW129425   4.543   7.191   6.742  1.2193  1.4508 -1.6644
 9603SOL    HW229426   4.668   7.162   6.823 -1.0744 -0.1248  1.5102
 9604SOL     OW29427   7.114   3.969   6.931  0.1940 -0.4165 -0.1947
 9604SOL    HW129428   7.202   3.979   6.969  0.4089 -2.2972 -0.1140
 9604SOL    HW229429   7.056   4.007   6.996  0.9053  0.6426 -0.1410
 9605SOL     OW29430   3.372   6.530   0.911 -0.0381  0.1140 -0.3394
 9605SOL    HW129431   3.410   6.462   0.856 -0.7551 -0.4073 -0.2068
 9605SOL    HW229432   3.446   6.584   0.938  0.4255 -0.0939 -1.1582
 9606SOL     OW29433   1.917   6.803   0.230 -0.6185 -0.5261 -0.0389
 9606SOL    HW129434   1.941   6.894   0.216 -0.4955 -0.8420 -2.2140
 9606SOL    HW229435   1.986   6.769   0.289 -1.0321  0.8910  1.3345
 9607SOL     OW29436   3.512   3.400   5.416  0.4878 -0.0938 -0.2865
 9607SOL    HW129437   3.420   3.421   5.399  0.7330  1.2544 -0.0613
 9607SOL    HW229438   3.516   3.379   5.509  0.6933  1.7018  0.1453
 9608SOL     OW29439   4.991   0.245   5.772  0.0950 -1.6711 -0.0346
 9608SOL    HW129440   4.973   0.315   5.835  3.6049 -0.0406 -0.6063
 9608SOL    HW229441   4.924   0.179   5.790 -1.9185  0.7482  2.1834
 9609SOL     OW29442   7.158   2.672   4.553 -0.2731 -0.3546  0.1887
 9609SOL    HW129443   7.152   2.682   4.648 -2.0488 -1.4834  0.2203
 9609SOL    HW229444   7.080   2.715   4.519  1.2980  1.8270 -0.9845
 9610SOL     OW29445   6.079   0.984   1.455 -0.3536  0.0747  0.2028
 9610SOL    HW129446   6.049   0.922   1.389 -1.4146  2.7841 -2.0523
 9610SOL    HW229447   6.002   1.001   1.509  0.3626 -1.6920  1.9066
 9611SOL     OW29448   3.663   4.733   0.725  0.0304  0.5430 -0.1470
 9611SOL    HW129449   3.598   4.701   0.787  0.6318  0.1391  0.2882
 9611SOL    HW229450   3.612   4.772   0.654 -0.7082 -0.6562 -0.2980
 9612SOL     OW29451   2.694   4.499   1.518  0.0976  0.2476 -0.7219
 9612SOL    HW129452   2.623   4.517   1.456 -0.5348 -0.9401 -0.3646
 9612SOL    HW229453   2.762   4.563   1.495 -0.9521  1.2022 -1.2755
 9613SOL     OW29454   4.489   5.600   0.801 -0.0398  0.1496 -0.0872
 9613SOL    HW129455   4.463   5.509   0.787  0.3000 -0.2738  1.7817
 9613SOL    HW229456   4.536   5.624   0.721 -1.6348 -0.7202 -1.3401
 9614SOL     OW29457   4.632   0.206   7.106  0.2094  0.7369  0.1504
 9614SOL    HW129458   4.695   0.171   7.170 -0.9597 -0.0547  0.9143
 9614SOL    HW229459   4.658   0.167   7.023  1.1827  1.0309  0.2963
 9615SOL     OW29460   6.508   6.504   2.827 -0.2768 -0.4647  0.0384
 9615SOL    HW129461   6.578   6.554   2.784  0.9384 -1.0794  1.2418
 9615SOL    HW229462   6.516   6.526   2.920 -3.1212  1.1699  0.0064
 9616SOL     OW29463   3.342   1.546   5.716 -0.4015  0.0791  0.2034
 9616SOL    HW129464   3.328   1.491   5.794 -0.3502  0.2213  0.3128
 9616SOL    HW229465   3.344   1.635   5.750  1.1100  0.0541  0.2516
 9617SOL     OW29466   5.689   4.139   5.808 -0.3036 -0.3864  0.1140
 9617SOL    HW129467   5.603   4.156   5.845 -0.9841  0.2288 -1.6366
 9617SOL    HW229468   5.671   4.106   5.720  1.2128 -2.4075  0.4739
 9618SOL     OW29469   0.140   3.215   6.797 -0.4222 -0.0362 -0.5726
 9618SOL    HW129470   0.134   3.266   6.877  1.2966  1.8621 -1.5550
 9618SOL    HW229471   0.065   3.155   6.800 -1.1789  0.9388  1.7440
 9619SOL     OW29472   5.632   1.382   4.630  0.0131 -0.0307  0.2616
 9619SOL    HW129473   5.569   1.451   4.608  0.6709  0.2883 -0.6746
 9619SOL    HW229474   5.714   1.411   4.591  0.9261 -0.1297  2.0008
 9620SOL     OW29475   6.322   2.482   5.120  0.6646 -0.1761  0.3861
 9620SOL    HW129476   6.405   2.471   5.073  1.6784  1.5456  1.6804
 9620SOL    HW229477   6.306   2.576   5.118  0.2996 -0.1396  2.7017
 9621SOL     OW29478   0.963   1.829   4.166 -0.4693 -0.1872 -0.0850
 9621SOL    HW129479   0.972   1.822   4.071 -0.9741 -2.5170 -0.0137
 9621SOL    HW229480   1.024   1.764   4.201  1.0903  1.8893  1.3252
 9622SOL     OW29481   3.195   4.507   4.606 -0.0089 -0.4582 -0.7427
 9622SOL    HW129482   3.284   4.484   4.633 -0.9039 -1.1259  1.9435
 9622SOL    HW229483   3.139   4.474   4.676 -2.4367 -0.2883 -2.4648
 9623SOL     OW29484   1.854   3.773   4.837  0.6053 -0.1930 -0.3287
 9623SOL    HW129485   1.907   3.717   4.894  1.2540 -0.2371 -0.9606
 9623SOL    HW229486   1.907   3.783   4.758 -1.4251 -2.3418 -2.0775
 9624SOL     OW29487   5.711   6.604   5.816  0.5739 -0.5314  0.1178
 9624SOL    HW129488   5.711   6.686   5.865  2.1118 -0.2290 -0.3379
 9624SOL    HW229489   5.782   6.553   5.854 -0.2804 -1.6196  0.3106
 9625SOL     OW29490   0.211   6.251   1.377 -0.3501  0.2575  0.4056
 9625SOL    HW129491   0.208   6.216   1.466 -1.1998  0.0150  0.2904
 9625SOL    HW229492   0.281   6.202   1.334 -1.5243 -1.3616  0.2444
 9626SOL     OW29493   2.793   2.956   2.758 -0.5386  0.1554 -0.3253
 9626SOL    HW129494   2.801   2.922   2.668 -1.0350  2.7093 -1.4217
 9626SOL    HW229495   2.701   2.943   2.780 -0.2554 -1.2161  0.2064
 9627SOL     OW29496   3.230   5.210   3.742 -0.6635  0.4914  0.6315
 9627SOL    HW129497   3.319   5.207   3.707 -0.7165  1.0883  0.4401
 9627SOL    HW229498   3.217   5.123   3.779 -1.4401 -1.0941 -2.8942
 9628SOL     OW29499   0.827   5.364   1.389 -0.4420  0.3723 -0.4318
 9628SOL    HW129500   0.812   5.290   1.330 -0.9858 -0.4495  0.6911
 9628SOL    HW229501   0.890   5.332   1.453 -0.8719  0.7854  0.2168
 9629SOL     OW29502   0.692   2.583   0.376 -0.2777 -0.2550  0.1279
 9629SOL    HW129503   0.685   2.495   0.340  0.1132  0.2902 -1.3119
 9629SOL    HW229504   0.738   2.571   0.460 -0.6724 -1.4601  0.1900
 9630SOL     OW29505   0.337   5.247   6.617 -0.4333  0.3662 -0.4066
 9630SOL    HW129506   0.328   5.340   6.597 -0.6144  0.4325 -0.0342
 9630SOL    HW229507   0.270   5.204   6.564  0.3618  0.3262 -1.4012
 9631SOL     OW29508   1.963   0.973   1.112 -0.1997 -0.0288 -0.5397
 9631SOL    HW129509   1.922   1.054   1.144 -0.5974 -0.8405  1.0675
 9631SOL    HW229510   2.037   1.004   1.060 -0.0895  1.3762  0.3891
 9632SOL     OW29511   2.722   2.589   0.236  0.3421 -0.6128  0.1001
 9632SOL    HW129512   2.797   2.626   0.189  2.2581 -3.1021  0.9338
 9632SOL    HW229513   2.726   2.629   0.323 -0.8442  1.0827 -0.5865
 9633SOL     OW29514   2.409   0.088   1.457  0.9453  0.0299  0.3077
 9633SOL    HW129515   2.450   0.143   1.524  0.7099 -0.1643  0.6154
 9633SOL    HW229516   2.343   0.146   1.418  0.5906 -0.0725  0.7379
 9634SOL     OW29517   2.041   7.214   6.588  0.5448  0.4769 -0.0303
 9634SOL    HW129518   2.126   7.200   6.547  0.0718 -1.5962 -0.4151
 9634SOL    HW229519   1.979   7.218   6.515  0.2554  1.7652  0.2563
 9635SOL     OW29520   2.790   0.339   1.305 -0.1589 -0.0646 -0.1401
 9635SOL    HW129521   2.759   0.253   1.333 -2.4485  0.4018 -1.0207
 9635SOL    HW229522   2.851   0.321   1.234  1.8357 -1.0263  1.6948
 9636SOL     OW29523   0.544   6.886   0.436 -0.1756 -0.1445  0.4291
 9636SOL    HW129524   0.541   6.919   0.526  0.6786  1.6142 -0.1276
 9636SOL    HW229525   0.498   6.953   0.385 -1.8744 -1.7834 -0.3165
 9637SOL     OW29526   4.270   6.430   3.303  0.0414 -0.8555  0.2172
 9637SOL    HW129527   4.326   6.481   3.360  0.3155  1.2374 -1.7717
 9637SOL    HW229528   4.315   6.346   3.293  2.1025  0.2196 -0.1319
 9638SOL     OW29529   4.409   0.848   2.924 -0.1695 -0.0402 -0.1374
 9638SOL    HW129530   4.352   0.894   2.986 -1.1221  1.2791 -1.9089
 9638SOL    HW229531   4.350   0.814   2.857  0.9816  0.1610 -1.3010
 9639SOL     OW29532   5.065   4.092   6.625 -0.2450 -0.0257 -0.0868
 9639SOL    HW129533   5.067   3.996   6.622 -0.7051 -0.0238 -0.4786
 9639SOL    HW229534   5.043   4.112   6.716  0.9880 -0.2653  0.2929
 9640SOL     OW29535   1.616   4.542   5.150  0.3362  0.4617 -0.9180
 9640SOL    HW129536   1.705   4.578   5.147  1.2075 -1.3917  0.5213
 9640SOL    HW229537   1.565   4.609   5.196  1.6034  0.5224  0.5057
 9641SOL     OW29538   4.911   5.439   5.165  0.2049 -0.3780  0.1156
 9641SOL    HW129539   4.926   5.435   5.259 -0.1064 -1.7061  0.1187
 9641SOL    HW229540   4.985   5.490   5.132  0.8792 -0.7803  0.9637
 9642SOL     OW29541   1.569   0.783   3.941 -0.2726  0.8984 -0.1500
 9642SOL    HW129542   1.532   0.728   3.872 -0.7772  1.7946 -0.6189
 9642SOL    HW229543   1.662   0.790   3.919 -0.3830  0.9716 -0.6116
 9643SOL     OW29544   0.787   4.177   1.787 -0.0831  0.2438  0.2177
 9643SOL    HW129545   0.729   4.105   1.814 -1.1494  0.8041 -0.5258
 9643SOL    HW229546   0.786   4.238   1.861  1.9472 -1.0910  1.4745
 9644SOL     OW29547   4.222   3.782   3.713 -0.2551  0.6380 -0.2483
 9644SOL    HW129548   4.284   3.736   3.771 -2.4416 -1.9751  0.2077
 9644SOL    HW229549   4.153   3.812   3.771 -1.1151  0.4417 -1.1425
 9645SOL     OW29550   0.802   5.984   2.932  0.4559  0.1175 -0.3731
 9645SOL    HW129551   0.821   6.003   3.024  2.5631 -1.0034 -0.5150
 9645SOL    HW229552   0.706   5.979   2.927  0.3095  0.1111  1.7608
 9646SOL     OW29553   2.568   3.257   3.043 -0.5515  0.4860  0.2926
 9646SOL    HW129554   2.549   3.175   2.996 -0.7331 -0.3487  1.7737
 9646SOL    HW229555   2.481   3.295   3.060 -0.4246  1.8877 -1.8553
 9647SOL     OW29556   1.695   1.712   5.264 -0.1210  0.8150  0.5981
 9647SOL    HW129557   1.734   1.796   5.245 -2.6430  1.6548 -1.4453
 9647SOL    HW229558   1.619   1.733   5.319 -0.9316 -0.0326 -0.1530
 9648SOL     OW29559   5.920   6.514   6.205 -0.4508 -0.6126 -0.3320
 9648SOL    HW129560   5.875   6.585   6.251 -1.4856 -0.9947 -0.7142
 9648SOL    HW229561   6.013   6.536   6.211 -0.6462 -0.0468  0.9107
 9649SOL     OW29562   5.937   3.429   7.195  0.1050  0.7521  0.0015
 9649SOL    HW129563   5.972   3.454   7.109 -1.6687  1.4616 -0.5816
 9649SOL    HW229564   5.843   3.415   7.179 -0.2778  0.9367  1.8377
 9650SOL     OW29565   0.225   5.620   4.826  0.1741  0.3655  1.0871
 9650SOL    HW129566   0.134   5.590   4.822  0.7364 -1.6078  1.9256
 9650SOL    HW229567   0.253   5.622   4.735 -0.7164  1.0659  0.8128
 9651SOL     OW29568   1.022   0.738   1.495 -0.1479  0.4799 -0.0136
 9651SOL    HW129569   0.967   0.795   1.549 -0.0042 -1.3997  2.2835
 9651SOL    HW229570   1.112   0.759   1.522 -0.0779 -0.5277  0.5996
 9652SOL     OW29571   6.018   0.742   3.981  0.0602  0.2100  0.1073
 9652SOL    HW129572   5.968   0.693   3.916 -0.6896  1.4354 -0.2895
 9652SOL    HW229573   6.015   0.833   3.950 -0.0130  0.7716  1.6541
 9653SOL     OW29574   4.042   1.721   1.552  0.5192  0.0006 -0.7496
 9653SOL    HW129575   3.947   1.713   1.540  0.5997  1.1435 -2.4412
 9653SOL    HW229576   4.069   1.788   1.489  2.5585 -0.8014 -0.8085
 9654SOL     OW29577   4.417   3.913   0.757  0.4556  0.3458 -0.3747
 9654SOL    HW129578   4.362   3.840   0.728  1.2722 -1.7943  2.9163
 9654SOL    HW229579   4.366   3.955   0.826  1.3120  0.8156 -0.0115
 9655SOL     OW29580   1.414   1.233   2.504  0.3349 -0.5624 -0.3534
 9655SOL    HW129581   1.343   1.245   2.568  0.0775  0.8244 -0.8770
 9655SOL    HW229582   1.491   1.269   2.547  0.5908 -1.4131 -0.0727
 9656SOL     OW29583   3.244   3.643   1.324 -0.6135  0.6435  0.2777
 9656SOL    HW129584   3.162   3.650   1.373 -0.0257 -0.8813  1.5524
 9656SOL    HW229585   3.312   3.655   1.390  0.2087 -0.0509 -0.4262
 9657SOL     OW29586   4.781   4.889   0.472 -0.2800  0.2826 -0.1836
 9657SOL    HW129587   4.714   4.861   0.410 -0.1253 -0.8049  0.1271
 9657SOL    HW229588   4.859   4.905   0.419 -0.9305  2.2467 -0.6516
 9658SOL     OW29589   3.268   5.089   1.809 -0.3041  0.3603  0.1184
 9658SOL    HW129590   3.201   5.158   1.815 -1.1300 -0.0158 -2.9607
 9658SOL    HW229591   3.323   5.116   1.736  0.4563 -1.3519  0.0231
 9659SOL     OW29592   4.281   5.277   4.535  0.1662 -0.0142 -0.0167
 9659SOL    HW129593   4.286   5.354   4.478  0.8296 -0.2633 -0.3087
 9659SOL    HW229594   4.207   5.227   4.501  1.2947 -0.7828 -1.4778
 9660SOL     OW29595   4.484   1.948   0.478  0.6338 -0.5812  0.4072
 9660SOL    HW129596   4.556   1.925   0.537  0.5306  0.5938  1.0241
 9660SOL    HW229597   4.407   1.955   0.536 -0.0287 -1.8918 -0.2502
 9661SOL     OW29598   3.255   3.694   5.941 -0.0323  0.2506 -0.4415
 9661SOL    HW129599   3.196   3.666   6.011  1.0547 -1.2562 -0.0743
 9661SOL    HW229600   3.200   3.699   5.863 -0.8506 -0.0092  0.1108
 9662SOL     OW29601   4.664   6.779   4.824  0.4554 -0.5442  0.1959
 9662SOL    HW129602   4.710   6.748   4.746  0.9824  0.7396 -0.0284
 9662SOL    HW229603   4.733   6.790   4.890 -0.0727 -2.3131  1.1146
 9663SOL     OW29604   5.655   3.177   5.610 -0.1771 -0.2268  0.6168
 9663SOL    HW129605   5.669   3.083   5.617  1.5893 -0.2757 -2.2355
 9663SOL    HW229606   5.742   3.214   5.597 -1.0985  1.4214 -1.4646
 9664SOL     OW29607   0.004   2.491   5.397 -0.1077  0.1212  0.4782
 9664SOL    HW129608   0.045   2.573   5.426  1.3681 -0.4542  0.1094
 9664SOL    HW229609  -0.012   2.504   5.304 -0.1316  0.1058  0.4806
 9665SOL     OW29610   2.441   4.555   4.699 -0.0189 -0.1172  0.1343
 9665SOL    HW129611   2.431   4.462   4.678  1.3485 -0.1846 -0.3044
 9665SOL    HW229612   2.533   4.565   4.723  0.2726  1.4099 -1.3761
 9666SOL     OW29613   0.106   3.214   3.520  0.4835  0.2809  0.6136
 9666SOL    HW129614   0.076   3.285   3.463 -0.5958 -0.8454 -0.2979
 9666SOL    HW229615   0.175   3.171   3.470  0.0647 -0.2394  0.4669
 9667SOL     OW29616   1.890   6.912   2.482  0.3642 -0.1028 -0.2643
 9667SOL    HW129617   1.839   6.835   2.457 -0.4052  0.4684 -0.4922
 9667SOL    HW229618   1.960   6.917   2.416  0.5757 -0.7411 -0.0992
 9668SOL     OW29619   7.186   0.741   0.362 -0.0120  0.4312 -0.5051
 9668SOL    HW129620   7.256   0.738   0.428  0.8431 -1.0113 -1.4185
 9668SOL    HW229621   7.106   0.751   0.413  0.5502 -1.3737  0.8486
 9669SOL     OW29622   2.185   6.960   1.907 -0.0108 -0.1807 -0.0697
 9669SOL    HW129623   2.271   6.924   1.883 -0.1994 -2.2121  1.8655
 9669SOL    HW229624   2.205   7.037   1.960  0.6270 -0.3507 -0.0547
 9670SOL     OW29625   6.115   4.853   4.178 -0.1247 -0.1246 -0.3869
 9670SOL    HW129626   6.195   4.822   4.221  0.0322  1.7480  0.7839
 9670SOL    HW229627   6.101   4.940   4.214 -0.9471  0.8910 -2.9272
 9671SOL     OW29628   6.821   3.822   4.612  0.2661 -0.0284  0.3936
 9671SOL    HW129629   6.834   3.888   4.680 -0.7980  2.2907 -1.4857
 9671SOL    HW229630   6.743   3.853   4.564  0.9598 -1.5354 -1.8416
 9672SOL     OW29631   6.434   1.493   2.764 -0.3049  0.3101 -0.1728
 9672SOL    HW129632   6.397   1.406   2.772 -1.5230  0.7102 -1.1580
 9672SOL    HW229633   6.425   1.515   2.671 -2.1143  2.3500  0.4044
 9673SOL     OW29634   3.180   1.485   0.257 -0.0368 -0.1185  0.0674
 9673SOL    HW129635   3.266   1.482   0.215  0.5539  0.9067  1.1315
 9673SOL    HW229636   3.161   1.578   0.264 -1.2852 -0.3429 -0.2190
 9674SOL     OW29637   3.285   0.748   0.964 -0.6181  0.0341 -0.5153
 9674SOL    HW129638   3.286   0.802   1.043 -0.0822 -0.0562 -0.4564
 9674SOL    HW229639   3.358   0.781   0.911 -1.4384  0.6185 -1.3380
 9675SOL     OW29640   2.678   3.823   2.691  0.4903 -0.1967 -0.2154
 9675SOL    HW129641   2.631   3.835   2.774 -1.4571 -0.7613 -1.1845
 9675SOL    HW229642   2.691   3.912   2.658 -1.1673 -0.0535 -0.5709
 9676SOL     OW29643   6.277   6.919   0.177  0.1933  0.3374 -0.6513
 9676SOL    HW129644   6.367   6.888   0.190 -0.2611 -0.6505  0.2218
 9676SOL    HW229645   6.222   6.843   0.192 -0.8392  1.0888 -0.4850
 9677SOL     OW29646   6.791   0.944   1.818  0.2860 -0.3464  0.1934
 9677SOL    HW129647   6.792   0.911   1.908  1.4451  2.6120  1.3864
 9677SOL    HW229648   6.703   0.979   1.806 -0.1236 -1.4464 -0.1624
 9678SOL     OW29649   2.858   0.038   5.397  0.3962 -0.1334  0.1181
 9678SOL    HW129650   2.777   0.027   5.347  0.1624 -0.2402  0.5132
 9678SOL    HW229651   2.876  -0.048   5.433 -0.2212  0.2399  1.3827
 9679SOL     OW29652   6.189   0.477   2.911  0.2109 -0.1655  0.7699
 9679SOL    HW129653   6.166   0.504   2.822  1.0263 -0.2322  0.5284
 9679SOL    HW229654   6.106   0.478   2.958  0.1148  2.3143  0.6717
 9680SOL     OW29655   1.141   0.496   4.791 -0.7644  0.1018 -0.0961
 9680SOL    HW129656   1.185   0.436   4.851  1.5327  1.8082  0.0618
 9680SOL    HW229657   1.146   0.452   4.706  1.7993  0.3814 -0.1791
 9681SOL     OW29658   0.796   1.487   1.454  0.0793  1.1124 -0.0141
 9681SOL    HW129659   0.771   1.447   1.537 -0.7963  0.4257 -0.5822
 9681SOL    HW229660   0.891   1.497   1.459  0.2087 -0.2185  0.5149
 9682SOL     OW29661   4.838   2.890   3.511 -0.0962  0.2306 -0.4473
 9682SOL    HW129662   4.896   2.962   3.536 -0.4043  0.1127  0.6912
 9682SOL    HW229663   4.762   2.933   3.472  0.0363  0.4788 -0.4352
 9683SOL     OW29664   5.296   5.397   3.774  0.3397 -0.3250  0.4114
 9683SOL    HW129665   5.261   5.384   3.686  0.7925 -1.8408  0.4337
 9683SOL    HW229666   5.380   5.440   3.760 -0.6339  1.6633  0.2664
 9684SOL     OW29667   1.172   6.454   5.366  0.6530 -0.5247 -0.2974
 9684SOL    HW129668   1.261   6.487   5.357  0.0316  1.3861  0.1045
 9684SOL    HW229669   1.159   6.399   5.288  2.1997 -0.9343 -0.2939
 9685SOL     OW29670   1.608   0.488   6.067  0.1151 -0.0734  0.5120
 9685SOL    HW129671   1.673   0.520   6.005  1.7337 -2.3354  0.9138
 9685SOL    HW229672   1.541   0.556   6.069  0.9239  0.9418 -2.2628
 9686SOL     OW29673   6.647   7.131   4.527  0.0562 -0.6755  0.2768
 9686SOL    HW129674   6.713   7.186   4.485 -0.1253 -0.1051  0.7355
 9686SOL    HW229675   6.609   7.186   4.595  0.9279 -1.8219  1.7795
 9687SOL     OW29676   3.546   6.860   2.560 -0.1702  0.0024 -0.2268
 9687SOL    HW129677   3.628   6.816   2.579 -0.1007  0.0415 -0.4290
 9687SOL    HW229678   3.479   6.806   2.601 -0.0187  0.1362  0.2053
 9688SOL     OW29679   5.223   6.096   5.800  0.0742 -0.2439 -0.0378
 9688SOL    HW129680   5.174   6.054   5.872 -2.6711  1.8647 -0.5220
 9688SOL    HW229681   5.219   6.033   5.728 -2.0728 -0.1233 -0.0694
 9689SOL     OW29682   5.297   6.752   0.814  0.3700  0.0582  0.0659
 9689SOL    HW129683   5.271   6.816   0.748  1.6734  1.1919  0.5896
 9689SOL    HW229684   5.342   6.683   0.766 -0.3881 -0.1115 -0.4210
 9690SOL     OW29685   3.168   5.473   0.194  0.2955  0.1876  0.0854
 9690SOL    HW129686   3.130   5.543   0.141 -1.7373 -0.2030  0.9091
 9690SOL    HW229687   3.152   5.393   0.144  0.2344  0.0435  0.3315
 9691SOL     OW29688   3.435   1.523   0.523  1.0756  0.1221  0.0359
 9691SOL    HW129689   3.356   1.475   0.548  1.3994 -1.1916 -1.3494
 9691SOL    HW229690   3.489   1.523   0.601  1.2079 -2.1046  0.0084
 9692SOL     OW29691   0.762   3.650   0.598  0.1388 -0.2349 -0.0813
 9692SOL    HW129692   0.706   3.685   0.529  0.3106 -1.1731 -0.7120
 9692SOL    HW229693   0.727   3.563   0.616  1.2390 -0.7461 -0.3217
 9693SOL     OW29694   3.237   5.848   6.859 -0.2490 -0.1249  0.4581
 9693SOL    HW129695   3.178   5.907   6.812  0.2158  0.9250  1.1410
 9693SOL    HW229696   3.182   5.774   6.885 -0.3826 -1.0976 -2.2527
 9694SOL     OW29697   6.934   6.530   5.639 -0.1560  0.3963  0.1619
 9694SOL    HW129698   6.992   6.574   5.577  0.6160  0.1037  0.6688
 9694SOL    HW229699   6.986   6.457   5.673 -0.5196  0.6379  1.2605
 9695SOL     OW29700   4.062   2.021   2.422  0.1365  0.0556 -0.3354
 9695SOL    HW129701   4.128   1.961   2.386 -1.4662 -1.1906 -1.3552
 9695SOL    HW229702   3.982   1.969   2.425 -0.7820  1.4648  1.0445
 9696SOL     OW29703   0.850   3.720   3.454 -0.1246 -0.3326  0.6310
 9696SOL    HW129704   0.797   3.657   3.405  0.3272 -0.9864  0.9752
 9696SOL    HW229705   0.796   3.800   3.456 -0.0093 -0.1562 -1.2315
 9697SOL     OW29706   4.115   1.201   6.353 -0.3081 -0.0944 -0.1902
 9697SOL    HW129707   4.063   1.123   6.334 -1.7183  0.7717 -0.0131
 9697SOL    HW229708   4.116   1.208   6.448 -1.8875  1.1642 -0.2261
 9698SOL     OW29709   4.552   0.727   3.778 -0.0159  0.3016 -0.1856
 9698SOL    HW129710   4.506   0.793   3.726 -0.6467  0.1224  0.1327
 9698SOL    HW229711   4.626   0.701   3.723  0.9502  2.1305  0.1765
 9699SOL     OW29712   1.224   3.050   3.320  0.5362 -0.2216  0.1510
 9699SOL    HW129713   1.315   3.078   3.307  0.0730  0.3327 -2.5151
 9699SOL    HW229714   1.181   3.127   3.359  0.4189  1.0532 -2.2861
 9700SOL     OW29715   0.489   1.120   3.208  0.0338  0.5814 -0.5054
 9700SOL    HW129716   0.578   1.130   3.173  0.3947  1.4518  0.6016
 9700SOL    HW229717   0.496   1.149   3.299 -0.9183 -1.4401  0.2675
 9701SOL     OW29718   5.211   1.558   1.522 -0.2007  0.5032 -0.8884
 9701SOL    HW129719   5.300   1.592   1.517 -0.4617  1.5533  0.8604
 9701SOL    HW229720   5.211   1.504   1.601 -1.4931  1.8359  0.0756
 9702SOL     OW29721   3.748   3.942   4.234 -0.2942  0.0173 -0.7167
 9702SOL    HW129722   3.773   3.864   4.183  0.7719  0.3338 -0.7062
 9702SOL    HW229723   3.764   3.917   4.325  0.6735  0.4373 -0.7508
 9703SOL     OW29724   1.390   1.703   4.137  0.5508  0.0650 -0.1394
 9703SOL    HW129725   1.473   1.682   4.094 -0.2514 -0.2449 -1.6203
 9703SOL    HW229726   1.415   1.753   4.215  2.1724 -1.0457  0.1036
 9704SOL     OW29727   4.879   0.831   6.742  0.6188  0.5517  0.0117
 9704SOL    HW129728   4.805   0.825   6.682  1.5640 -1.5379 -1.0135
 9704SOL    HW229729   4.839   0.836   6.829 -0.8052 -2.4030 -0.3630
 9705SOL     OW29730   0.415   3.657   6.426 -0.2705  0.0564 -0.5605
 9705SOL    HW129731   0.506   3.629   6.419 -0.2494  0.1051 -0.4811
 9705SOL    HW229732   0.418   3.752   6.411 -0.0445  0.4185  1.4709
 9706SOL     OW29733   2.383   1.624   1.052  0.0506  0.2371  0.1593
 9706SOL    HW129734   2.355   1.688   0.986  0.0496  1.0090  0.8898
 9706SOL    HW229735   2.329   1.547   1.034  2.4515 -0.9453 -3.0048
 9707SOL     OW29736   3.472   3.157   0.514  0.5059  0.0086  0.2413
 9707SOL    HW129737   3.563   3.165   0.543  0.4320 -1.2448  0.8676
 9707SOL    HW229738   3.477   3.168   0.419  1.4998 -1.1893  0.1193
 9708SOL     OW29739   0.443   4.109   6.607 -0.9580 -0.1687  0.0685
 9708SOL    HW129740   0.393   4.149   6.679 -0.0217  1.0294  0.0928
 9708SOL    HW229741   0.448   4.178   6.541  1.2259  0.0198  0.3553
 9709SOL     OW29742   0.926   2.772   7.232  0.0560 -0.4916  0.1166
 9709SOL    HW129743   0.908   2.793   7.323 -1.3740  2.0779 -0.6390
 9709SOL    HW229744   1.019   2.793   7.221 -0.4380  2.2896  0.3543
 9710SOL     OW29745   6.543   4.963   1.911 -0.1296 -0.2280  0.2524
 9710SOL    HW129746   6.591   4.951   1.993  0.1874 -2.5989 -0.2210
 9710SOL    HW229747   6.451   4.964   1.936 -0.0436  3.1453  1.0194
 9711SOL     OW29748   6.271   5.235   2.438 -0.2278 -0.4634  0.6192
 9711SOL    HW129749   6.354   5.270   2.470  0.0116  0.1855 -0.6459
 9711SOL    HW229750   6.204   5.280   2.489  0.1423  0.5431  0.2434
 9712SOL     OW29751   7.052   2.153   0.290 -0.1888  0.6816  0.4464
 9712SOL    HW129752   7.071   2.244   0.313 -0.4016  0.8017  0.1647
 9712SOL    HW229753   7.114   2.133   0.221  0.4003  0.3466  1.0703
 9713SOL     OW29754   3.180   6.607   1.314  0.1392 -0.5863 -0.3646
 9713SOL    HW129755   3.231   6.601   1.395 -0.4389  0.9836  0.1640
 9713SOL    HW229756   3.100   6.559   1.332 -0.3136  0.3812  0.2981
 9714SOL     OW29757   4.038   0.158   5.422  0.4677 -0.2479  0.1569
 9714SOL    HW129758   4.063   0.247   5.445  1.0371 -0.8281  1.9693
 9714SOL    HW229759   4.025   0.160   5.327  0.5893  1.7113  0.1454
 9715SOL     OW29760   3.542   0.087   2.347  0.1522 -0.0802  0.2226
 9715SOL    HW129761   3.555   0.174   2.310  0.7386 -1.2667 -2.6011
 9715SOL    HW229762   3.450   0.067   2.332  0.3674 -0.5244 -0.5598
 9716SOL     OW29763   6.160   6.599   0.028 -0.1615 -0.8043 -0.3992
 9716SOL    HW129764   6.254   6.609   0.009  0.2043 -2.0576  0.5695
 9716SOL    HW229765   6.153   6.620   0.122 -1.3465  1.9830 -1.0131
 9717SOL     OW29766   1.999   2.614   5.282  0.1398  0.0679  0.0907
 9717SOL    HW129767   2.044   2.615   5.366 -0.8926 -0.6396  0.6830
 9717SOL    HW229768   2.039   2.685   5.233  1.4600 -0.1486  0.7972
 9718SOL     OW29769   7.142   3.856   5.633  0.2625  0.4364 -0.0520
 9718SOL    HW129770   7.235   3.874   5.625  0.3847 -0.1652 -0.0635
 9718SOL    HW229771   7.130   3.775   5.584 -0.4045  0.9234 -0.7171
 9719SOL     OW29772   6.792   4.732   3.517  0.3295  0.7062  0.0310
 9719SOL    HW129773   6.814   4.668   3.585  1.5623 -1.1191 -1.9164
 9719SOL    HW229774   6.868   4.790   3.513  1.4992 -0.8293 -1.4840
 9720SOL     OW29775   5.667   4.655   7.181  0.1199  0.9108  0.1059
 9720SOL    HW129776   5.599   4.716   7.209  0.3673  0.8838  0.7800
 9720SOL    HW229777   5.715   4.702   7.113 -0.2516  1.1246 -0.0086
 9721SOL     OW29778   4.294   2.657   6.391 -0.6545  0.1160  1.4468
 9721SOL    HW129779   4.379   2.694   6.364 -1.0690  0.2456  0.2379
 9721SOL    HW229780   4.231   2.727   6.373 -1.1230 -0.2850  1.5161
 9722SOL     OW29781   3.475   4.362   5.007 -0.1873  0.6989  0.0491
 9722SOL    HW129782   3.420   4.322   4.939  1.2767  1.6448 -1.8097
 9722SOL    HW229783   3.446   4.453   5.010 -0.2350  0.6641  0.7059
 9723SOL     OW29784   4.138   6.830   0.941  0.7024  0.3196 -0.5983
 9723SOL    HW129785   4.051   6.817   0.977  1.0070 -0.2437 -0.0350
 9723SOL    HW229786   4.192   6.856   1.016  0.5232  3.2399 -1.3400
 9724SOL     OW29787   1.295   4.387   3.169  0.1185  0.3561  0.0905
 9724SOL    HW129788   1.254   4.460   3.215  0.5552 -0.3675  1.6628
 9724SOL    HW229789   1.346   4.342   3.235  0.6663 -0.8089 -1.0811
 9725SOL     OW29790   0.354   5.435   0.640 -0.5062  0.0062  0.3297
 9725SOL    HW129791   0.266   5.399   0.630 -0.1475 -0.7013 -0.4755
 9725SOL    HW229792   0.377   5.467   0.553  0.0838  0.0463  0.4911
 9726SOL     OW29793   3.323   3.297   3.781  0.2956 -0.4525 -0.4096
 9726SOL    HW129794   3.298   3.328   3.868  0.5940  1.5255 -0.9822
 9726SOL    HW229795   3.286   3.209   3.775  0.0568 -0.5248  1.6118
 9727SOL     OW29796   4.635   5.063   6.235  0.2580 -0.1044 -0.2288
 9727SOL    HW129797   4.702   5.104   6.291  0.1687  1.0133 -0.9048
 9727SOL    HW229798   4.635   4.971   6.262  2.4292 -0.2702 -0.5480
 9728SOL     OW29799   1.393   3.163   3.034  0.4367  0.3977  0.7995
 9728SOL    HW129800   1.473   3.139   3.081  1.1035 -0.0803 -0.5374
 9728SOL    HW229801   1.420   3.231   2.974 -0.4485  1.1304  1.2102
 9729SOL     OW29802   5.136   0.887   0.052  0.5385 -0.1185 -0.1710
 9729SOL    HW129803   5.094   0.817   0.102 -1.2648  1.5942  0.8151
 9729SOL    HW229804   5.064   0.939   0.016  1.7975 -0.1271 -2.9776
 9730SOL     OW29805   2.822   6.176   7.192  0.1397  0.4016  0.1105
 9730SOL    HW129806   2.915   6.196   7.202  0.3623 -0.3763 -0.2866
 9730SOL    HW229807   2.818   6.122   7.112 -0.8791  1.9508 -0.9413
 9731SOL     OW29808   4.900   3.189   2.033  0.8842 -0.3827  0.0361
 9731SOL    HW129809   4.922   3.115   1.977  1.0481  0.4393 -1.0154
 9731SOL    HW229810   4.866   3.256   1.973 -1.8125 -0.5381  1.2546
 9732SOL     OW29811   4.475   4.602   4.743 -0.2222  0.2695 -0.9625
 9732SOL    HW129812   4.570   4.589   4.745 -0.1937  0.2945  1.2612
 9732SOL    HW229813   4.464   4.695   4.724  0.4646  1.2116  2.4601
 9733SOL     OW29814   5.645   6.321   5.205  0.1902  0.1358  0.0350
 9733SOL    HW129815   5.664   6.281   5.290  0.0211  0.4748  0.2391
 9733SOL    HW229816   5.706   6.281   5.144 -0.0703 -0.5355  0.2041
 9734SOL     OW29817   6.222   1.445   0.387 -0.2709 -0.3779 -0.4014
 9734SOL    HW129818   6.294   1.485   0.338  0.1104 -1.0756 -0.4188
 9734SOL    HW229819   6.154   1.430   0.322  0.0450 -0.8473 -0.6294
 9735SOL     OW29820   3.834   2.003   6.682  0.7216 -0.3809  0.9159
 9735SOL    HW129821   3.776   1.962   6.746  0.0364  0.8562  1.1269
 9735SOL    HW229822   3.780   2.015   6.605  1.6363 -2.1670 -0.0682
 9736SOL     OW29823   5.890   3.109   3.089 -0.2697  0.2158 -0.0924
 9736SOL    HW129824   5.951   3.065   3.029 -1.4888 -0.7707 -0.6631
 9736SOL    HW229825   5.901   3.202   3.071  0.4399  0.0094 -0.7851
 9737SOL     OW29826   5.676   4.389   1.541  0.4295  0.1392  0.2095
 9737SOL    HW129827   5.736   4.322   1.507  0.7835  0.8826 -0.6963
 9737SOL    HW229828   5.597   4.377   1.489  0.8793  1.1130 -0.7312
 9738SOL     OW29829   5.704   1.755   0.053 -0.3823 -0.2574 -0.0079
 9738SOL    HW129830   5.780   1.813   0.038  1.1319 -2.4882 -1.5574
 9738SOL    HW229831   5.631   1.816   0.067  1.4431  2.0122  0.3851
 9739SOL     OW29832   1.919   1.271   6.140 -0.5392  0.2202 -0.6074
 9739SOL    HW129833   1.928   1.323   6.220 -0.7411  1.8144 -1.5915
 9739SOL    HW229834   1.872   1.192   6.168  3.8668 -1.9220  1.9383
 9740SOL     OW29835   6.024   1.971   5.923  0.1335 -0.9706 -0.2149
 9740SOL    HW129836   6.054   2.024   5.849  1.4163  0.3239  1.1708
 9740SOL    HW229837   5.946   1.926   5.890 -1.7089  2.5905 -1.2025
 9741SOL     OW29838   4.480   2.109   3.217  0.0040 -1.0151  0.2238
 9741SOL    HW129839   4.453   2.020   3.195  1.5133 -1.2658 -0.7973
 9741SOL    HW229840   4.543   2.098   3.288 -0.6806 -0.6470  0.9042
 9742SOL     OW29841   5.173   4.460   1.810  0.2764  0.6438 -0.1946
 9742SOL    HW129842   5.103   4.421   1.757 -2.7576  1.6929  2.6808
 9742SOL    HW229843   5.179   4.403   1.887  1.0814  1.7668  0.5938
 9743SOL     OW29844   6.002   1.115   1.843  0.4042  0.0861 -0.3425
 9743SOL    HW129845   5.939   1.124   1.915 -0.0674  0.4105 -0.7804
 9743SOL    HW229846   5.947   1.094   1.767  0.9613 -0.9410 -0.4706
 9744SOL     OW29847   3.421   3.643   5.103  0.1995 -0.1177 -0.2961
 9744SOL    HW129848   3.458   3.645   5.191 -2.0732 -0.0845  0.7410
 9744SOL    HW229849   3.418   3.550   5.080  0.8631 -0.1213 -0.3900
 9745SOL     OW29850   4.604   6.741   1.412  0.2789  0.0029  0.3433
 9745SOL    HW129851   4.608   6.756   1.317  1.0775 -0.6441  0.2606
 9745SOL    HW229852   4.520   6.697   1.426  1.1665 -2.0321 -0.4047
 9746SOL     OW29853   6.351   4.759   3.022  0.1196  0.1784  0.0424
 9746SOL    HW129854   6.270   4.743   3.072  0.7408  1.6206  1.6038
 9746SOL    HW229855   6.399   4.676   3.028 -0.6064 -0.2339  0.3243
 9747SOL     OW29856   4.276   2.259   1.283  0.3869 -0.0051  0.0565
 9747SOL    HW129857   4.224   2.252   1.363 -0.3061 -0.7120 -0.4375
 9747SOL    HW229858   4.251   2.182   1.231  1.7402 -0.2368 -0.3086
 9748SOL     OW29859   3.835   4.660   4.835  0.0043 -0.0475 -0.1646
 9748SOL    HW129860   3.920   4.686   4.870  1.3719 -2.0619 -1.7584
 9748SOL    HW229861   3.818   4.575   4.875 -0.9528  0.0170 -0.4086
 9749SOL     OW29862   1.464   3.966   2.626  0.2570  0.1002  0.2117
 9749SOL    HW129863   1.446   3.938   2.536  0.0472  0.8823 -0.0041
 9749SOL    HW229864   1.386   3.940   2.675 -0.3316  1.0800 -0.1721
 9750SOL     OW29865   3.720   7.171   1.278  0.0873  0.0952  0.6390
 9750SOL    HW129866   3.683   7.085   1.296 -0.2587 -0.1072 -0.8896
 9750SOL    HW229867   3.684   7.228   1.346  2.2748 -1.3990  3.2300
 9751SOL     OW29868   2.585   5.975   0.116 -0.1895 -0.7990 -0.2209
 9751SOL    HW129869   2.646   5.983   0.043 -1.2308  0.9895 -0.9616
 9751SOL    HW229870   2.607   6.048   0.174 -0.4208 -1.2408  0.4387
 9752SOL     OW29871   3.804   7.097   0.926  0.1964  0.1134  0.4111
 9752SOL    HW129872   3.803   7.193   0.930 -1.0432  0.1085  0.7202
 9752SOL    HW229873   3.724   7.075   0.879  0.5709 -0.7677  0.1808
 9753SOL     OW29874   3.412   3.400   2.693 -0.2486 -0.3364  0.4729
 9753SOL    HW129875   3.422   3.305   2.686 -2.5491 -0.6888  1.0509
 9753SOL    HW229876   3.376   3.414   2.780 -0.1467  1.0510  0.3068
 9754SOL     OW29877   0.653   6.081   2.352  0.1991  0.0891  0.1965
 9754SOL    HW129878   0.669   6.007   2.411 -1.2080 -0.6943 -0.3402
 9754SOL    HW229879   0.691   6.156   2.396  1.1908 -0.8688  1.0247
 9755SOL     OW29880   5.159   6.263   0.962 -0.2267 -0.2747  0.2521
 9755SOL    HW129881   5.163   6.331   1.029  0.4933 -0.6642  0.6200
 9755SOL    HW229882   5.232   6.205   0.983  0.8209  0.2869 -1.6003
 9756SOL     OW29883   1.122   0.139   6.050 -0.3722 -0.1870  0.4983
 9756SOL    HW129884   1.051   0.170   5.995  0.4911  0.0295 -0.5223
 9756SOL    HW229885   1.137   0.049   6.023 -0.8340 -0.5278  1.3317
 9757SOL     OW29886   1.555   2.962   5.676 -0.0046  0.6353  0.1210
 9757SOL    HW129887   1.615   2.890   5.695  0.5178  0.4290 -2.0282
 9757SOL    HW229888   1.612   3.038   5.663 -0.5770  1.6458  2.8274
 9758SOL     OW29889   6.947   7.071   2.014 -0.4046 -0.0809 -0.2080
 9758SOL    HW129890   6.857   7.103   2.006 -0.7705 -0.7977  0.8547
 9758SOL    HW229891   6.969   7.085   2.106  0.8633  0.8143 -0.6197
 9759SOL     OW29892   2.899   6.835   2.184  0.0569 -0.2318  0.7087
 9759SOL    HW129893   2.963   6.830   2.113  0.6957  1.0068  1.1623
 9759SOL    HW229894   2.951   6.823   2.264 -0.5243 -0.7844  1.0081
 9760SOL     OW29895   6.215   3.279   5.782  0.0745 -0.0735 -0.0854
 9760SOL    HW129896   6.165   3.207   5.744 -0.5633  1.6916 -2.8739
 9760SOL    HW229897   6.306   3.250   5.778 -0.3463 -1.8904  1.7416
 9761SOL     OW29898   6.784   3.473   6.757 -0.6570 -0.2333  0.2795
 9761SOL    HW129899   6.793   3.406   6.689  1.0570 -0.2456  0.4743
 9761SOL    HW229900   6.700   3.454   6.799 -1.4948 -0.5560 -1.4540
 9762SOL     OW29901   3.559   3.158   1.463 -0.2325 -0.4324 -0.2497
 9762SOL    HW129902   3.514   3.088   1.417 -1.5032  0.7136 -0.8441
 9762SOL    HW229903   3.652   3.140   1.451 -0.5327 -0.8110 -2.2854
 9763SOL     OW29904   5.920   4.017   1.339  0.8560 -0.1821 -0.2110
 9763SOL    HW129905   6.010   4.000   1.314  0.7437 -1.9448  0.4656
 9763SOL    HW229906   5.869   3.999   1.260  0.7993 -2.6453  0.3243
 9764SOL     OW29907   3.961   1.220   1.493 -0.1311 -0.0348  0.0579
 9764SOL    HW129908   3.900   1.294   1.487 -0.8880 -0.4818  1.6251
 9764SOL    HW229909   3.905   1.143   1.481  0.5416 -0.3813 -0.9028
 9765SOL     OW29910   4.104   3.883   7.023  0.3275 -0.2452  0.2435
 9765SOL    HW129911   4.162   3.851   7.093  1.5058  3.1614  1.0051
 9765SOL    HW229912   4.163   3.902   6.950 -0.0195  1.5552  0.3902
 9766SOL     OW29913   2.529   4.304   1.256 -0.0885 -0.1658 -0.1082
 9766SOL    HW129914   2.529   4.400   1.254 -2.1950 -0.0964  0.6078
 9766SOL    HW229915   2.560   4.278   1.169 -0.1378  1.1681 -0.5478
 9767SOL     OW29916   2.187   2.206   3.520 -0.0066  0.1115 -0.2541
 9767SOL    HW129917   2.196   2.182   3.612 -0.5850 -1.1813 -0.5152
 9767SOL    HW229918   2.277   2.212   3.488  0.1843 -0.7862  0.0698
 9768SOL     OW29919   3.311   6.210   5.961  0.2370 -0.0279 -0.3303
 9768SOL    HW129920   3.228   6.195   5.916 -2.5451  3.3790  3.0096
 9768SOL    HW229921   3.311   6.148   6.034 -0.1663  0.9009  0.4879
 9769SOL     OW29922   0.873   1.251   3.264  0.2714  0.1196  0.7598
 9769SOL    HW129923   0.818   1.214   3.333  0.9709  0.2305  1.3808
 9769SOL    HW229924   0.901   1.336   3.298 -1.1035  1.1520 -0.5493
 9770SOL     OW29925   1.507   3.993   1.788 -0.0467 -0.6060  0.0565
 9770SOL    HW129926   1.478   3.999   1.879 -0.1805 -1.5580  0.0906
 9770SOL    HW229927   1.538   4.080   1.766 -1.0982 -0.0645  0.6534
 9771SOL     OW29928   2.647   1.788   6.849 -0.3755  0.3462  0.1567
 9771SOL    HW129929   2.594   1.810   6.772  0.3160 -0.4023 -0.5522
 9771SOL    HW229930   2.717   1.733   6.815 -1.9307 -2.8716  1.7839
 9772SOL     OW29931   2.232   7.145   2.574 -0.1059  0.0900 -0.0688
 9772SOL    HW129932   2.294   7.212   2.545 -0.9289  0.0758 -1.9648
 9772SOL    HW229933   2.260   7.125   2.664  0.5416  2.5204  0.3567
 9773SOL     OW29934   7.148   1.992   4.955 -0.0756 -0.1761 -0.9727
 9773SOL    HW129935   7.202   2.035   5.021 -1.3333 -1.3988  0.9350
 9773SOL    HW229936   7.210   1.940   4.903  0.8175 -0.0084 -0.0962
 9774SOL     OW29937   6.083   1.777   4.335 -0.8362  0.3251 -0.2624
 9774SOL    HW129938   6.006   1.804   4.385 -0.6762  0.9090 -0.3314
 9774SOL    HW229939   6.047   1.739   4.255 -1.0587  0.3021 -0.1540
 9775SOL     OW29940   0.032   1.877   3.809 -0.4611  0.6314  0.5143
 9775SOL    HW129941   0.025   1.891   3.715 -0.4939  1.1784  0.5915
 9775SOL    HW229942   0.027   1.965   3.847 -2.1735  0.3022  1.1396
 9776SOL     OW29943   6.080   1.440   0.872  0.0883 -0.3391 -0.0474
 9776SOL    HW129944   6.023   1.376   0.914 -0.0437 -0.0245  0.2629
 9776SOL    HW229945   6.036   1.524   0.886  1.5294  0.1683  1.8532
 9777SOL     OW29946   1.476   3.851   3.364  0.2338 -0.5129 -0.0527
 9777SOL    HW129947   1.462   3.909   3.438  2.0714  0.0438 -0.0958
 9777SOL    HW229948   1.538   3.898   3.308 -0.0335 -1.5275 -1.2482
 9778SOL     OW29949   2.424   7.171   3.838 -0.6046  0.0945 -0.8327
 9778SOL    HW129950   2.515   7.169   3.867 -1.1009 -0.7797  0.8366
 9778SOL    HW229951   2.412   7.090   3.789 -0.6095 -0.0388 -0.6119
 9779SOL     OW29952   4.211   6.158   5.463 -0.0179 -0.4856  0.3206
 9779SOL    HW129953   4.287   6.105   5.487  0.0312  0.2479  1.9628
 9779SOL    HW229954   4.172   6.112   5.389  0.3479 -2.5064  1.3071
 9780SOL     OW29955   2.255   6.650   6.961  0.1968 -0.1349 -0.1920
 9780SOL    HW129956   2.276   6.576   7.018 -0.6301 -0.2882 -0.0778
 9780SOL    HW229957   2.269   6.617   6.873  0.8927 -0.0845 -0.1047
 9781SOL     OW29958   3.523   6.088   6.375  0.0497  0.4337  0.5203
 9781SOL    HW129959   3.579   6.148   6.325 -0.9821  1.9488  1.1033
 9781SOL    HW229960   3.581   6.050   6.441  1.3182 -1.1991 -1.4217
 9782SOL     OW29961   5.839   0.576   2.569 -0.5837  0.0753 -0.2094
 9782SOL    HW129962   5.788   0.515   2.517 -1.9531  0.7028  0.3518
 9782SOL    HW229963   5.814   0.558   2.660 -0.2927  0.8297  0.0308
 9783SOL     OW29964   6.321   2.832   0.489  0.3563  0.1486  0.2541
 9783SOL    HW129965   6.378   2.774   0.539 -1.6146 -2.4347 -0.3079
 9783SOL    HW229966   6.238   2.833   0.537  0.2310  2.3847  0.1082
 9784SOL     OW29967   6.236   6.013   1.374  0.3976 -0.1563  0.8572
 9784SOL    HW129968   6.234   5.948   1.303  0.4755  0.1468  0.5712
 9784SOL    HW229969   6.287   6.086   1.338 -0.6452  0.5476  0.7488
 9785SOL     OW29970   6.866   5.002   5.452 -0.1203  0.0894  0.3572
 9785SOL    HW129971   6.891   5.071   5.513  0.2034 -0.6221  1.0419
 9785SOL    HW229972   6.943   4.945   5.448  0.0741  0.3873 -1.1259
 9786SOL     OW29973   2.509   3.533   1.714 -0.0496  0.0179 -0.4989
 9786SOL    HW129974   2.511   3.461   1.776  1.9057  0.2582 -0.2214
 9786SOL    HW229975   2.586   3.519   1.658 -0.1498  1.3813 -1.0199
 9787SOL     OW29976   5.656   7.159   2.003  0.2187  0.5205 -0.9328
 9787SOL    HW129977   5.699   7.157   1.918  1.6685 -1.0644 -0.2079
 9787SOL    HW229978   5.594   7.086   2.001  1.4354 -0.5851 -0.0913
 9788SOL     OW29979   4.661   2.131   6.071  0.2286  0.3123 -0.5571
 9788SOL    HW129980   4.619   2.172   5.996 -2.3340  0.6336  0.9258
 9788SOL    HW229981   4.625   2.042   6.073 -0.7909  0.7150  0.9731
 9789SOL     OW29982   5.041   3.233   0.773  0.3750  0.2526  0.3766
 9789SOL    HW129983   4.982   3.308   0.767 -0.7377 -0.7122 -2.0122
 9789SOL    HW229984   4.998   3.174   0.834 -0.2925  0.2893 -0.0460
 9790SOL     OW29985   1.102   4.687   3.627 -0.8976  0.5514 -0.1202
 9790SOL    HW129986   1.006   4.683   3.634 -0.9013 -0.5813 -0.5579
 9790SOL    HW229987   1.118   4.751   3.558 -1.3917 -0.0572 -0.8249
 9791SOL     OW29988   6.808   1.836   3.649  0.1676 -0.1373 -0.2116
 9791SOL    HW129989   6.733   1.895   3.660 -0.8100 -1.3693 -0.0853
 9791SOL    HW229990   6.823   1.835   3.555  1.2000  1.5047 -0.0963
 9792SOL     OW29991   5.456   6.486   5.652  0.1265 -0.1806  0.3510
 9792SOL    HW129992   5.442   6.555   5.588  1.4489 -0.4375 -0.2428
 9792SOL    HW229993   5.385   6.423   5.635  0.5177 -0.2996 -0.9554
 9793SOL     OW29994   4.803   1.517   2.371  0.3399  0.1299  0.2636
 9793SOL    HW129995   4.791   1.611   2.380  0.2409  0.0669  0.8205
 9793SOL    HW229996   4.817   1.486   2.460 -0.9074 -0.5651  0.2291
 9794SOL     OW29997   1.138   1.881   0.725 -0.2398  0.4165  0.8722
 9794SOL    HW129998   1.093   1.834   0.795 -0.9512 -2.0699 -1.1274
 9794SOL    HW229999   1.067   1.916   0.671  0.2637  0.1465  0.0294
 9795SOL     OW30000   2.261   0.806   2.803  0.0277 -0.1740  0.3360
 9795SOL    HW130001   2.324   0.764   2.862  0.0349  1.4477  1.5542
 9795SOL    HW230002   2.207   0.859   2.860  0.1184  1.5727 -1.1212
 9796SOL     OW30003   2.092   3.386   6.089 -0.1694 -0.2808  0.4617
 9796SOL    HW130004   2.080   3.418   6.000 -2.7237  1.6850  1.4041
 9796SOL    HW230005   2.149   3.451   6.130  1.9241 -1.7648  0.0484
 9797SOL     OW30006   1.178   1.920   6.306  0.0739 -0.0870  0.2939
 9797SOL    HW130007   1.211   1.939   6.218  0.5572 -1.9764  0.0294
 9797SOL    HW230008   1.084   1.937   6.300  0.0563 -0.4408 -0.6733
 9798SOL     OW30009   2.607   6.223   0.781  0.1700  0.7520  0.4891
 9798SOL    HW130010   2.690   6.191   0.817  0.8581  0.4109 -1.3085
 9798SOL    HW230011   2.540   6.172   0.827  1.1178 -1.3366 -0.3205
 9799SOL     OW30012   6.579   2.901   3.432  0.1433  0.0625  0.0041
 9799SOL    HW130013   6.512   2.969   3.440  0.5279  0.4037  0.3413
 9799SOL    HW230014   6.587   2.888   3.337  0.7667  1.2045 -0.1296
 9800SOL     OW30015   4.498   5.602   3.290  0.5539  0.2702 -0.7619
 9800SOL    HW130016   4.524   5.520   3.247  0.7525  0.4785 -1.0442
 9800SOL    HW230017   4.535   5.595   3.378  1.7628  0.6453 -1.2232
 9801SOL     OW30018   0.896   3.299   6.052  0.0822 -0.0583  0.1190
 9801SOL    HW130019   0.810   3.317   6.092 -0.2798  2.5832 -1.5948
 9801SOL    HW230020   0.884   3.320   5.959  2.3117 -0.7528 -0.3875
 9802SOL     OW30021   2.568   1.428   1.980 -0.0555 -0.0605  0.0838
 9802SOL    HW130022   2.615   1.504   1.947 -1.1125  0.4386 -0.3216
 9802SOL    HW230023   2.603   1.354   1.931 -1.6070  0.6570 -2.2789
 9803SOL     OW30024   6.048   6.796   6.123 -0.0992 -0.3953  0.1735
 9803SOL    HW130025   6.019   6.849   6.197 -2.9352 -0.0673 -1.0412
 9803SOL    HW230026   6.106   6.730   6.161 -0.3093  0.6349  2.4243
 9804SOL     OW30027   5.651   7.096   5.653  0.7703  0.0058  0.2388
 9804SOL    HW130028   5.599   7.016   5.658  0.5873  0.0935 -0.2162
 9804SOL    HW230029   5.719   7.084   5.720  1.1581 -0.8307 -0.2814
 9805SOL     OW30030   3.311   4.345   7.185 -0.5900 -0.1233 -0.2116
 9805SOL    HW130031   3.318   4.330   7.279 -1.2757 -1.1113 -0.3005
 9805SOL    HW230032   3.262   4.269   7.152 -1.2415  0.6988 -1.2174
 9806SOL     OW30033   2.258   6.240   2.403  0.4799  0.7508 -0.0251
 9806SOL    HW130034   2.205   6.195   2.338  1.9413 -0.1303 -0.6517
 9806SOL    HW230035   2.323   6.288   2.352  0.5152  1.5315  0.7317
 9807SOL     OW30036   5.766   4.414   3.612 -0.0971 -0.4493 -0.7702
 9807SOL    HW130037   5.850   4.447   3.582 -0.1505 -0.2209 -0.6698
 9807SOL    HW230038   5.784   4.381   3.701  0.5779 -3.1654 -1.8182
 9808SOL     OW30039   4.272   6.950   2.172 -0.4827 -0.1518 -0.6182
 9808SOL    HW130040   4.287   7.030   2.121  2.9654 -0.3323 -0.1357
 9808SOL    HW230041   4.337   6.888   2.139  0.5659 -0.9403  2.5394
 9809SOL     OW30042   6.292   2.314   1.983  0.3784  0.3363 -0.3087
 9809SOL    HW130043   6.239   2.346   2.056 -0.2122  2.5165 -1.5934
 9809SOL    HW230044   6.379   2.299   2.020  0.0073  1.1026  0.8995
 9810SOL     OW30045   0.486   6.717   6.099 -0.1367 -0.2799 -0.1434
 9810SOL    HW130046   0.391   6.715   6.113 -0.1420 -0.4439 -0.2016
 9810SOL    HW230047   0.511   6.625   6.090 -0.0740 -0.2028 -0.8120
 9811SOL     OW30048   6.179   2.794   6.508  0.1666  0.3898 -0.8096
 9811SOL    HW130049   6.235   2.742   6.450 -1.6150 -1.7655 -0.7276
 9811SOL    HW230050   6.114   2.732   6.541  1.0405  1.4996  3.5577
 9812SOL     OW30051   2.038   2.901   2.503  0.0450 -0.3648 -0.3638
 9812SOL    HW130052   1.974   2.849   2.551  0.8908 -0.2448  0.9280
 9812SOL    HW230053   2.038   2.986   2.546  0.7171 -0.2031 -0.6639
 9813SOL     OW30054   6.268   5.946   4.890  0.2239  0.1519 -0.3356
 9813SOL    HW130055   6.256   6.039   4.908 -2.3358  0.5466 -3.1447
 9813SOL    HW230056   6.186   5.906   4.919  1.6897 -1.5033  1.8104
 9814SOL     OW30057   5.738   1.680   1.102 -0.1222  0.1138 -0.2300
 9814SOL    HW130058   5.799   1.661   1.030  0.1477 -0.1723  0.0711
 9814SOL    HW230059   5.785   1.741   1.158 -2.1528  4.6975 -2.9174
 9815SOL     OW30060   2.117   6.936   7.191  0.1517  0.2928 -0.1971
 9815SOL    HW130061   2.088   6.947   7.282  1.8364  1.7942  0.2096
 9815SOL    HW230062   2.063   6.999   7.142  1.6264  2.0675  0.3476
 9816SOL     OW30063   2.403   0.995   6.618  0.1172 -0.7154 -0.4137
 9816SOL    HW130064   2.433   1.035   6.537  1.9842  1.0088  1.0488
 9816SOL    HW230065   2.310   1.017   6.622  0.1851 -0.1041 -1.6480
 9817SOL     OW30066   2.009   4.345   1.596  0.9556 -0.4067  0.2752
 9817SOL    HW130067   2.069   4.374   1.528  0.9452  0.4297  0.6098
 9817SOL    HW230068   2.063   4.340   1.675  0.4571  1.1270  0.7579
 9818SOL     OW30069   3.187   4.059   3.910  0.0892 -0.0313  0.1233
 9818SOL    HW130070   3.163   4.036   4.000  2.9648 -1.7403  0.5727
 9818SOL    HW230071   3.244   4.135   3.919 -0.3111  0.3277 -0.3520
 9819SOL     OW30072   1.584   4.321   3.052 -0.3025  0.2864 -0.4463
 9819SOL    HW130073   1.638   4.245   3.071 -0.5214 -0.0225 -1.0437
 9819SOL    HW230074   1.598   4.338   2.958 -0.5890  0.7113 -0.4157
 9820SOL     OW30075   4.694   5.401   1.230 -0.3008 -0.0340  0.1532
 9820SOL    HW130076   4.678   5.329   1.290 -0.2330  0.3871  0.6864
 9820SOL    HW230077   4.786   5.392   1.204 -0.7800 -1.2036 -1.2295
 9821SOL     OW30078   0.822   5.281   1.693  0.0811 -0.3382  0.4709
 9821SOL    HW130079   0.774   5.222   1.633  2.3137 -1.8177  0.0208
 9821SOL    HW230080   0.826   5.233   1.775 -1.6117  1.0249  1.4136
 9822SOL     OW30081   3.612   1.526   2.299 -0.2180 -0.0248  0.0287
 9822SOL    HW130082   3.563   1.488   2.226 -0.6954  0.7930 -0.0981
 9822SOL    HW230083   3.650   1.451   2.345 -0.3075 -0.5803 -0.7788
 9823SOL     OW30084   4.972   1.037   3.028 -0.0091 -0.3826 -0.3416
 9823SOL    HW130085   4.889   0.998   3.000 -0.6683 -0.6143  1.7950
 9823SOL    HW230086   4.952   1.130   3.038  0.3720 -0.2084 -1.0532
 9824SOL     OW30087   2.925   6.873   1.905 -0.0093 -0.6066 -0.8188
 9824SOL    HW130088   2.916   6.931   1.830  0.7384 -0.4695 -0.8075
 9824SOL    HW230089   2.844   6.823   1.906 -0.0385 -0.5981 -1.7098
 9825SOL     OW30090   5.826   1.448   3.799  0.0725 -0.8322  0.5934
 9825SOL    HW130091   5.768   1.491   3.736  0.1044 -1.2190  0.2949
 9825SOL    HW230092   5.770   1.432   3.876  0.6043  1.7174  1.5986
 9826SOL     OW30093   2.347   4.089   0.246  0.2539  0.5830 -0.0477
 9826SOL    HW130094   2.314   4.001   0.263  1.3664  0.0266 -0.6019
 9826SOL    HW230095   2.269   4.144   0.241 -0.6042 -0.6651 -1.3264
 9827SOL     OW30096   3.065   3.093   6.276  0.4548  0.0680 -0.1869
 9827SOL    HW130097   3.066   3.135   6.190 -1.4394 -1.8041 -1.2132
 9827SOL    HW230098   2.977   3.109   6.309  0.3809 -1.2708  0.3091
 9828SOL     OW30099   0.508   3.721   2.007 -0.0623 -0.1901  0.0930
 9828SOL    HW130100   0.599   3.716   2.034  0.4442 -3.0421 -1.7162
 9828SOL    HW230101   0.465   3.649   2.053 -1.3414  0.8391  0.5729
 9829SOL     OW30102   1.847   0.390   4.613 -0.0660 -0.3137  0.3851
 9829SOL    HW130103   1.886   0.304   4.599 -0.1945  0.0890 -3.4127
 9829SOL    HW230104   1.895   0.427   4.687  1.6188 -2.7156  0.5964
 9830SOL     OW30105   5.221   3.531   6.597 -0.4256 -0.0135  0.3951
 9830SOL    HW130106   5.195   3.618   6.567  1.6193  0.0049 -1.6518
 9830SOL    HW230107   5.224   3.538   6.692 -2.2219  1.5399  0.3830
 9831SOL     OW30108   5.206   3.247   0.013 -0.2220  0.3573 -0.1394
 9831SOL    HW130109   5.216   3.253   0.108  0.0350  0.2321 -0.1611
 9831SOL    HW230110   5.263   3.176  -0.014 -0.5966  0.1289 -0.3416
 9832SOL     OW30111   4.023   2.171   2.651 -0.7477  0.0974 -0.1068
 9832SOL    HW130112   4.036   2.114   2.727 -3.3403  1.0371  1.1873
 9832SOL    HW230113   4.028   2.112   2.576  1.4343 -0.9444  0.7660
 9833SOL     OW30114   5.974   6.147   1.332  0.3271  0.5244 -0.1192
 9833SOL    HW130115   6.045   6.161   1.395  0.2353  0.6488 -0.0421
 9833SOL    HW230116   5.962   6.052   1.330 -0.2033  0.5635  0.6478
 9834SOL     OW30117   4.818   1.900   2.918  0.2040  0.1784  0.1548
 9834SOL    HW130118   4.736   1.903   2.868  0.4284 -0.9806 -0.2962
 9834SOL    HW230119   4.853   1.989   2.910  0.7764 -0.1957 -2.7015
 9835SOL     OW30120   0.014   5.763   6.085 -0.0819 -0.1377  0.1174
 9835SOL    HW130121   0.024   5.686   6.141  1.9251 -0.6301 -0.8483
 9835SOL    HW230122  -0.037   5.731   6.010 -2.1623  0.3551  1.2316
 9836SOL     OW30123   7.210   4.731   2.172  0.1531 -0.0624 -0.6468
 9836SOL    HW130124   7.275   4.789   2.132  0.4449 -0.1404 -0.2995
 9836SOL    HW230125   7.235   4.643   2.144 -1.8936  0.1352 -3.4381
 9837SOL     OW30126   6.796   4.688   6.469 -0.2235 -0.5973  0.6979
 9837SOL    HW130127   6.740   4.658   6.540 -0.9376  0.0416  0.4175
 9837SOL    HW230128   6.739   4.691   6.392  0.4084 -0.7703  0.2146
 9838SOL     OW30129   6.537   6.493   0.380 -0.0086  0.3112  0.1592
 9838SOL    HW130130   6.563   6.479   0.472  3.7396 -1.7977 -0.9712
 9838SOL    HW230131   6.515   6.405   0.349 -0.4207  0.8702 -1.1561
 9839SOL     OW30132   1.103   2.100   0.004 -0.3871  0.2024 -0.3881
 9839SOL    HW130133   1.157   2.026   0.035  1.4468  1.5599 -0.1436
 9839SOL    HW230134   1.165   2.173  -0.001 -2.2470  1.8553 -0.1334
 9840SOL     OW30135   5.323   1.341   4.787  0.0876 -0.2447 -0.4996
 9840SOL    HW130136   5.274   1.403   4.732  1.3791  0.8612 -0.4654
 9840SOL    HW230137   5.403   1.388   4.809 -0.3606 -0.6146  2.3581
 9841SOL     OW30138   1.710   5.202   2.665  0.5045 -0.3479  0.0078
 9841SOL    HW130139   1.778   5.179   2.602  0.3424  0.6297 -0.5459
 9841SOL    HW230140   1.638   5.236   2.611 -0.7568 -2.0827  0.5048
 9842SOL     OW30141   4.904   3.909   3.422 -0.5034  0.2440  0.3224
 9842SOL    HW130142   4.834   3.949   3.370 -0.5785  1.0802  1.0522
 9842SOL    HW230143   4.982   3.962   3.403  0.1092 -1.0209 -0.9315
 9843SOL     OW30144   1.901   4.772   2.535  0.1714 -0.2311 -0.1652
 9843SOL    HW130145   1.864   4.843   2.483  0.1155 -0.4641 -0.4434
 9843SOL    HW230146   1.855   4.777   2.619  1.0905  0.8974  0.3009
 9844SOL     OW30147   3.917   6.220   3.966 -0.3447 -0.3043 -0.5473
 9844SOL    HW130148   3.925   6.184   3.878  1.0912 -1.1836 -0.0760
 9844SOL    HW230149   4.001   6.263   3.983 -0.9855  0.7866  0.0102
 9845SOL     OW30150   5.295   7.222   5.095 -0.6942 -0.0482 -0.3070
 9845SOL    HW130151   5.374   7.204   5.045 -0.7339 -3.1073  0.5332
 9845SOL    HW230152   5.223   7.202   5.034 -0.8518  1.6269 -0.7104
 9846SOL     OW30153   6.575   6.355   7.106 -0.1087  0.2305 -0.7143
 9846SOL    HW130154   6.632   6.431   7.104 -1.0797  0.9585 -1.9396
 9846SOL    HW230155   6.616   6.295   7.169  0.9378  1.5370 -0.1225
 9847SOL     OW30156   2.429   1.424   4.863  0.1042 -0.0433  0.2160
 9847SOL    HW130157   2.517   1.459   4.853  0.2070 -0.5676 -0.8571
 9847SOL    HW230158   2.442   1.332   4.885 -0.1734  0.2001  1.4522
 9848SOL     OW30159   3.973   2.102   4.459 -0.4046 -0.1050  0.1841
 9848SOL    HW130160   4.023   2.150   4.525 -0.3254 -0.9396  0.7561
 9848SOL    HW230161   4.016   2.016   4.454 -1.6117 -0.7631  0.5159
 9849SOL     OW30162   3.511   5.371   1.168 -0.1079 -0.0567 -0.2261
 9849SOL    HW130163   3.604   5.366   1.186  0.4163  3.7279 -0.9869
 9849SOL    HW230164   3.501   5.333   1.080  0.7763 -0.0820 -0.3179
 9850SOL     OW30165   3.032   3.881   7.081 -0.0751 -0.0611  0.3201
 9850SOL    HW130166   2.975   3.840   7.146  0.2692 -0.3809  0.4225
 9850SOL    HW230167   3.099   3.815   7.063  0.0452  0.1706 -0.0799
 9851SOL     OW30168   6.205   3.875   7.149  0.6565 -0.2121 -0.0584
 9851SOL    HW130169   6.268   3.874   7.077  2.5965 -1.3385  1.5513
 9851SOL    HW230170   6.211   3.787   7.188  0.6035  0.7137  2.2170
 9852SOL     OW30171   0.307   6.603   4.843  0.2049 -0.1646  0.0173
 9852SOL    HW130172   0.257   6.533   4.802  0.6148 -1.0745  1.0155
 9852SOL    HW230173   0.388   6.608   4.793 -0.4709  0.6927 -1.0346
 9853SOL     OW30174   3.704   2.962   3.997  0.6268 -0.2782 -0.2865
 9853SOL    HW130175   3.623   2.984   3.950  0.3769  1.9133  1.0508
 9853SOL    HW230176   3.770   2.954   3.928 -0.0814  1.0590 -1.1604
 9854SOL     OW30177   6.670   5.937   2.063  0.4329 -0.5215 -0.1907
 9854SOL    HW130178   6.650   6.022   2.101  0.1211 -0.3271 -0.7758
 9854SOL    HW230179   6.597   5.919   2.003  0.5514 -1.1455 -0.1589
 9855SOL     OW30180   0.612   6.787   3.579 -0.0216 -0.2016 -0.1542
 9855SOL    HW130181   0.543   6.757   3.521  1.1085  0.0263 -1.6779
 9855SOL    HW230182   0.650   6.707   3.615 -0.2585 -0.3769 -0.2901
 9856SOL     OW30183   4.591   0.950   0.799 -0.2998 -0.1689 -0.1467
 9856SOL    HW130184   4.644   0.873   0.780  1.8131  1.1413  0.1184
 9856SOL    HW230185   4.597   0.961   0.894 -2.1843 -0.7182  0.0843
 9857SOL     OW30186   4.427   4.845   4.671  0.0637  0.3968 -0.5919
 9857SOL    HW130187   4.489   4.891   4.614  0.4505 -2.6451 -2.9239
 9857SOL    HW230188   4.341   4.869   4.637  0.2586 -0.3144 -1.6657
 9858SOL     OW30189   6.541   1.191   0.985  0.2122 -0.0989  0.1723
 9858SOL    HW130190   6.558   1.124   1.051 -1.6298 -0.7730  0.0161
 9858SOL    HW230191   6.464   1.238   1.018  0.9720  1.4106 -0.1388
 9859SOL     OW30192   5.232   0.977   3.517 -0.2281  0.4641  0.0761
 9859SOL    HW130193   5.163   0.982   3.583 -1.1333  1.1873 -0.8906
 9859SOL    HW230194   5.197   1.024   3.441  0.8198 -0.2459 -0.8960
 9860SOL     OW30195   4.307   4.054   4.684 -0.1436 -0.1089  0.2353
 9860SOL    HW130196   4.318   4.059   4.779 -1.3793  0.4847  0.3592
 9860SOL    HW230197   4.299   3.960   4.666  0.9301 -0.2811  0.6042
 9861SOL     OW30198   3.358   5.389   2.935 -0.2684 -0.3611  0.6354
 9861SOL    HW130199   3.353   5.333   2.858  0.9096  0.2919  0.0639
 9861SOL    HW230200   3.427   5.452   2.915 -1.2973  1.0791  1.4053
 9862SOL     OW30201   4.242   5.831   6.179  0.2185  0.1875  0.0125
 9862SOL    HW130202   4.248   5.864   6.089  1.7188  0.2939  0.1157
 9862SOL    HW230203   4.149   5.820   6.195 -0.0476 -0.5565 -1.8291
 9863SOL     OW30204   1.887   4.856   0.172 -0.5350  0.0466  0.1167
 9863SOL    HW130205   1.939   4.806   0.235 -0.9726 -2.3837 -1.3031
 9863SOL    HW230206   1.904   4.947   0.193  2.0973 -0.6688  1.4745
 9864SOL     OW30207   6.166   3.821   0.223 -0.2860  0.2657  0.0376
 9864SOL    HW130208   6.159   3.733   0.260 -0.2159  0.5362  0.7184
 9864SOL    HW230209   6.078   3.858   0.233 -0.1105  0.5573  0.4927
 9865SOL     OW30210   2.852   7.036   4.256 -0.2083 -0.1474  1.2241
 9865SOL    HW130211   2.842   7.110   4.196 -0.6615 -0.2379  1.1834
 9865SOL    HW230212   2.921   6.983   4.217 -1.4540 -0.9469 -0.0080
 9866SOL     OW30213   5.610   5.206   3.979 -0.3208  0.0954  0.3958
 9866SOL    HW130214   5.586   5.200   3.886  1.6445  2.2159 -0.3471
 9866SOL    HW230215   5.697   5.168   3.984 -0.3106  0.2317  1.3176
 9867SOL     OW30216   5.031   7.188   4.916  0.0516  0.2168 -0.2893
 9867SOL    HW130217   4.970   7.191   4.842 -0.5587  0.0347  0.1969
 9867SOL    HW230218   5.054   7.280   4.931 -1.0952  0.4372  0.3126
 9868SOL     OW30219   5.297   0.166   0.026  0.2825  0.0885 -0.0253
 9868SOL    HW130220   5.369   0.178  -0.036  0.1321  1.0542 -0.0242
 9868SOL    HW230221   5.340   0.151   0.110  0.4902  0.7727 -0.0047
 9869SOL     OW30222   6.018   3.055   2.622  0.2528  0.7572 -0.1809
 9869SOL    HW130223   5.971   3.130   2.657 -0.1914  1.0719 -1.4207
 9869SOL    HW230224   6.016   3.067   2.527  1.9899  0.2612 -0.3085
 9870SOL     OW30225   2.611   3.318   5.229  0.3836  0.0391 -0.5650
 9870SOL    HW130226   2.520   3.323   5.258 -0.1539  3.7711 -2.3320
 9870SOL    HW230227   2.615   3.239   5.174 -2.7132  1.3261 -2.9260
 9871SOL     OW30228   0.260   3.281   6.542 -0.0376  0.5778  0.2594
 9871SOL    HW130229   0.242   3.375   6.548 -2.5675  0.2148 -0.6074
 9871SOL    HW230230   0.211   3.242   6.614 -0.2455 -0.2068 -0.2897
 9872SOL     OW30231   5.201   2.726   6.959 -0.1532 -0.2686 -0.4004
 9872SOL    HW130232   5.265   2.693   7.022 -1.2434  0.9664  1.4534
 9872SOL    HW230233   5.134   2.658   6.955  0.8790 -1.2581 -1.8309
 9873SOL     OW30234   5.309   5.565   6.423 -0.5790  0.1034  0.4394
 9873SOL    HW130235   5.315   5.628   6.351 -0.9503 -0.4655 -0.0951
 9873SOL    HW230236   5.395   5.570   6.467 -0.6546  1.0850  0.5028
 9874SOL     OW30237   7.167   3.038   3.350 -0.1817 -0.3027 -0.3681
 9874SOL    HW130238   7.183   3.126   3.316 -0.2867  0.3298  1.1382
 9874SOL    HW230239   7.235   2.984   3.310  2.7859  1.3372  2.0171
 9875SOL     OW30240   1.774   6.805   3.180 -0.5596 -0.7357 -0.1709
 9875SOL    HW130241   1.858   6.829   3.142  0.1661  0.7052  2.1087
 9875SOL    HW230242   1.783   6.827   3.273 -4.0467  1.1834 -0.1135
 9876SOL     OW30243   6.909   6.433   3.452  0.0678  0.0442  0.0231
 9876SOL    HW130244   6.950   6.432   3.539 -0.9155  0.6212  0.5147
 9876SOL    HW230245   6.961   6.496   3.402  0.6012 -0.2388  0.2116
 9877SOL     OW30246   4.144   5.819   1.447 -0.9686  0.3405  0.7438
 9877SOL    HW130247   4.237   5.839   1.458 -1.0529  1.2905 -0.1622
 9877SOL    HW230248   4.136   5.728   1.476  0.4930 -0.2117 -0.4250
 9878SOL     OW30249   1.045   0.315   4.292 -0.1363 -0.2383  0.0392
 9878SOL    HW130250   1.095   0.390   4.324 -1.3980  0.9899 -0.7395
 9878SOL    HW230251   1.104   0.271   4.231  1.1826 -0.8324  1.6634
 9879SOL     OW30252   3.861   5.499   1.694  0.0726 -0.1009 -0.1238
 9879SOL    HW130253   3.774   5.513   1.732  0.2110 -1.0844  0.5931
 9879SOL    HW230254   3.853   5.532   1.604 -0.9723  0.0255 -0.0016
 9880SOL     OW30255   0.505   4.968   4.702  0.0059  0.1204 -0.0678
 9880SOL    HW130256   0.466   4.903   4.761 -0.6694  0.1140 -0.5190
 9880SOL    HW230257   0.559   4.916   4.642 -0.3174  0.0051 -0.2568
 9881SOL     OW30258   3.008   5.270   3.874  0.2731  0.9374  0.3485
 9881SOL    HW130259   3.013   5.243   3.965 -1.2642  0.6021  0.3636
 9881SOL    HW230260   3.096   5.256   3.839  0.7687  0.6791  1.6623
 9882SOL     OW30261   7.224   6.595   5.911 -0.0839  0.8627  0.0588
 9882SOL    HW130262   7.282   6.670   5.924  0.4786  0.1617  1.9288
 9882SOL    HW230263   7.172   6.590   5.991 -0.5172 -0.3773 -0.2794
 9883SOL     OW30264   2.624   7.065   1.118  0.2718 -0.6345  0.2136
 9883SOL    HW130265   2.533   7.057   1.146 -0.1806 -1.2734 -1.3572
 9883SOL    HW230266   2.620   7.118   1.038  1.2494 -0.8431  0.0125
 9884SOL     OW30267   3.848   6.294   0.883  0.0937 -0.0826  0.3013
 9884SOL    HW130268   3.893   6.284   0.799 -0.2287  1.0333 -0.0304
 9884SOL    HW230269   3.916   6.283   0.949  0.3496 -0.9769 -0.0990
 9885SOL     OW30270   2.118   2.891   5.508 -0.1953  0.4576  0.4763
 9885SOL    HW130271   2.089   2.957   5.445 -0.8665 -0.1932  0.0931
 9885SOL    HW230272   2.124   2.810   5.458 -1.0445 -0.1425  1.2996
 9886SOL     OW30273   2.281   4.445   5.998 -0.0556  0.2001 -0.4298
 9886SOL    HW130274   2.346   4.451   5.929  0.0361  0.2278 -0.3418
 9886SOL    HW230275   2.281   4.532   6.039  1.7698 -0.5467  1.2936
 9887SOL     OW30276   0.195   3.806   0.604 -0.3367 -0.2967 -0.4351
 9887SOL    HW130277   0.221   3.714   0.599 -0.2146 -0.2755 -0.2404
 9887SOL    HW230278   0.125   3.816   0.540 -1.5127 -0.9193  0.7127
 9888SOL     OW30279   5.551   5.409   6.188 -0.4987 -0.1756 -0.0104
 9888SOL    HW130280   5.582   5.398   6.278  0.3017  1.0587 -0.1037
 9888SOL    HW230281   5.546   5.320   6.153  0.9128 -0.5663  0.6968
 9889SOL     OW30282   4.141   3.074   5.689  0.4775 -1.1347  0.1244
 9889SOL    HW130283   4.209   3.120   5.639 -0.0906  0.8075  1.0700
 9889SOL    HW230284   4.062   3.126   5.676 -0.5917 -2.7293 -0.0224
 9890SOL     OW30285   4.172   6.239   4.390 -0.2418 -0.0284 -0.1158
 9890SOL    HW130286   4.185   6.330   4.364  1.1172 -0.2225 -0.1544
 9890SOL    HW230287   4.243   6.221   4.452 -1.1498 -0.7350  0.7529
 9891SOL     OW30288   6.860   2.505   2.260  0.2433  0.2287 -0.0675
 9891SOL    HW130289   6.929   2.565   2.230 -0.0617  0.1647 -0.9118
 9891SOL    HW230290   6.897   2.418   2.247  0.2614  0.2051  0.1299
 9892SOL     OW30291   0.592   1.087   0.303 -0.1387 -0.4668  0.3211
 9892SOL    HW130292   0.506   1.059   0.273  0.7027 -2.0887 -0.7143
 9892SOL    HW230293   0.588   1.183   0.302 -2.0976 -0.4999  0.8840
 9893SOL     OW30294   6.376   2.459   6.565  0.4725 -0.1179 -0.1026
 9893SOL    HW130295   6.424   2.534   6.529 -2.0456  1.6239 -0.1227
 9893SOL    HW230296   6.394   2.387   6.504  3.4069  0.2451  0.2105
 9894SOL     OW30297   4.809   1.020   1.699  0.3658 -0.2567 -0.0787
 9894SOL    HW130298   4.716   1.039   1.708  0.6196  1.2125 -0.4288
 9894SOL    HW230299   4.832   0.976   1.781 -0.6800 -0.8803 -0.0997
 9895SOL     OW30300   5.140   0.027   1.308  0.1456  0.2351  0.3132
 9895SOL    HW130301   5.047   0.023   1.286 -0.0232  1.5242  0.6908
 9895SOL    HW230302   5.144   0.004   1.400 -0.0931  2.2234  0.8702
 9896SOL     OW30303   3.716   1.420   3.566  0.2230  0.0266 -0.4785
 9896SOL    HW130304   3.666   1.343   3.538  0.9310  0.0998 -2.0170
 9896SOL    HW230305   3.650   1.487   3.582 -0.2393 -0.1226 -1.6992
 9897SOL     OW30306   2.316   5.229   1.776 -0.1410  0.2489 -0.3799
 9897SOL    HW130307   2.300   5.137   1.755 -1.4873  0.6595 -1.2638
 9897SOL    HW230308   2.395   5.228   1.830 -1.1979 -1.6180  1.2740
 9898SOL     OW30309   1.367   5.250   3.692 -0.1436  0.1688 -0.0131
 9898SOL    HW130310   1.395   5.265   3.783 -0.9845 -1.3608  0.5442
 9898SOL    HW230311   1.279   5.213   3.701  0.1132 -0.8398 -1.4048
 9899SOL     OW30312   3.557   6.569   1.322  0.1582  0.0014 -0.1121
 9899SOL    HW130313   3.613   6.523   1.259 -0.2314 -1.6450  0.7089
 9899SOL    HW230314   3.605   6.566   1.404 -0.9480 -1.1136  0.5187
 9900SOL     OW30315   3.436   0.904   4.312 -0.0002 -0.1707 -0.0222
 9900SOL    HW130316   3.480   0.976   4.356  1.0016 -1.5631  1.3951
 9900SOL    HW230317   3.506   0.862   4.260 -0.3348 -0.6698 -0.0807
 9901SOL     OW30318   3.377   5.102   2.385  0.1129 -0.3999  0.2921
 9901SOL    HW130319   3.404   5.092   2.294 -0.6776 -1.4048  0.1446
 9901SOL    HW230320   3.375   5.012   2.419  1.5022  0.0456  1.6415
 9902SOL     OW30321   5.137   3.935   2.136 -0.2234  0.0279  0.3226
 9902SOL    HW130322   5.143   3.885   2.054  0.8396 -0.1636  0.5024
 9902SOL    HW230323   5.225   3.969   2.150 -0.9711  2.2055  0.0751
 9903SOL     OW30324   0.612   1.961   6.977  0.2112 -0.4010 -0.2739
 9903SOL    HW130325   0.692   1.945   6.927  0.2958  0.9522 -0.6092
 9903SOL    HW230326   0.559   1.882   6.964 -0.2792  0.2996 -3.5026
 9904SOL     OW30327   5.320   5.704   6.893 -0.0907 -0.4010  0.3655
 9904SOL    HW130328   5.366   5.787   6.894 -0.4946 -0.1812  1.0664
 9904SOL    HW230329   5.229   5.726   6.877 -0.4665 -0.5515  2.0727
 9905SOL     OW30330   5.537   4.223   3.159  0.2784 -0.8948  0.6398
 9905SOL    HW130331   5.607   4.257   3.103  0.0737 -0.2079  0.7792
 9905SOL    HW230332   5.573   4.226   3.248 -0.5639  1.3689  0.9797
 9906SOL     OW30333   0.418   0.915   5.238  0.5830 -0.3076 -0.2578
 9906SOL    HW130334   0.450   1.005   5.250  0.1460 -0.2737  0.8248
 9906SOL    HW230335   0.410   0.904   5.144 -0.2214  1.1154 -0.3884
 9907SOL     OW30336   4.634   6.066   6.744 -0.3678  0.2952  0.2032
 9907SOL    HW130337   4.593   6.134   6.798  2.1826  2.3076 -0.1758
 9907SOL    HW230338   4.614   6.092   6.654  2.3466  1.9222 -0.0410
 9908SOL     OW30339   0.602   5.122   5.286  0.1690  0.2215  0.2224
 9908SOL    HW130340   0.562   5.179   5.221  0.3509  0.7266  0.5441
 9908SOL    HW230341   0.590   5.034   5.251  0.3410  0.4869 -0.5384
 9909SOL     OW30342   3.870   0.644   6.477 -0.2422  0.4420  0.3458
 9909SOL    HW130343   3.884   0.551   6.492  1.9323  0.5185 -0.7784
 9909SOL    HW230344   3.817   0.648   6.397  1.1347  0.1384 -0.6155
 9910SOL     OW30345   0.145   1.013   3.602  0.0484  0.4226 -0.2185
 9910SOL    HW130346   0.173   1.005   3.511 -0.9973  0.2836 -0.5415
 9910SOL    HW230347   0.176   1.099   3.629 -0.6010  0.9366 -1.0661
 9911SOL     OW30348   4.057   2.498   6.881 -0.6892  0.2185 -0.0004
 9911SOL    HW130349   4.122   2.518   6.814 -1.5327  0.4099 -0.7846
 9911SOL    HW230350   4.093   2.423   6.929 -0.4941 -0.5091 -1.2669
 9912SOL     OW30351   2.987   3.810   1.236 -0.5028 -0.2316  0.3577
 9912SOL    HW130352   3.008   3.896   1.274  1.8166 -0.7112  0.3135
 9912SOL    HW230353   2.993   3.749   1.309 -0.2085 -0.6105  0.0188
 9913SOL     OW30354   6.881   5.445   6.745  0.2095  0.7592 -0.0908
 9913SOL    HW130355   6.879   5.401   6.660 -2.6727  0.0544  0.2286
 9913SOL    HW230356   6.936   5.389   6.800 -0.1065 -0.2784 -0.7962
 9914SOL     OW30357   4.184   5.337   7.101  0.4953  0.1815 -0.2717
 9914SOL    HW130358   4.110   5.301   7.054 -0.2898  1.2783  0.0801
 9914SOL    HW230359   4.242   5.371   7.033 -0.7212  1.9394 -0.4947
 9915SOL     OW30360   3.486   6.894   2.304  0.4571 -0.0441  0.0280
 9915SOL    HW130361   3.561   6.952   2.296  0.8869 -0.6518 -0.5269
 9915SOL    HW230362   3.484   6.869   2.396 -0.2091  1.4529  0.4425
 9916SOL     OW30363   5.612   2.817   0.130 -0.1162  0.1905  1.0315
 9916SOL    HW130364   5.613   2.731   0.088 -1.1818  0.9102 -0.5334
 9916SOL    HW230365   5.631   2.798   0.222 -0.5359 -1.7426  0.7717
 9917SOL     OW30366   5.457   7.039   2.647  0.2146  0.6582 -0.0256
 9917SOL    HW130367   5.548   7.067   2.658  0.4674 -0.3939  0.6759
 9917SOL    HW230368   5.443   7.041   2.552  0.9883  0.7520 -0.1447
 9918SOL     OW30369   0.296   3.518   1.948  0.4148  0.1251  0.2701
 9918SOL    HW130370   0.351   3.578   1.897  0.8606 -1.1345 -0.7941
 9918SOL    HW230371   0.216   3.567   1.965  1.7424  1.9419  1.6766
 9919SOL     OW30372   0.981   2.985   0.883  0.6567 -0.1813  0.4617
 9919SOL    HW130373   0.893   3.020   0.871  1.0936  0.9966  0.6174
 9919SOL    HW230374   1.039   3.055   0.854  1.5580 -0.7943  0.7429
 9920SOL     OW30375   1.009   5.091   4.325  0.2436 -0.0256  0.1028
 9920SOL    HW130376   1.087   5.068   4.375 -0.1518 -1.3020  0.1546
 9920SOL    HW230377   1.043   5.136   4.248  0.8378  2.6170  1.7667
 9921SOL     OW30378   5.128   4.480   3.789  0.1110 -0.1134 -0.0413
 9921SOL    HW130379   5.178   4.412   3.744  1.1281  0.2174  0.5506
 9921SOL    HW230380   5.194   4.544   3.817 -0.8623  1.4032 -1.0331
 9922SOL     OW30381   1.655   4.195   3.342 -0.2428  0.0330 -0.6826
 9922SOL    HW130382   1.651   4.113   3.294 -0.3144  0.5556 -1.5914
 9922SOL    HW230383   1.563   4.222   3.351 -0.2659 -0.3426  0.2441
 9923SOL     OW30384   6.760   0.414   0.378 -0.4312  0.1373 -0.0145
 9923SOL    HW130385   6.848   0.452   0.369 -0.1126 -0.5503  0.1500
 9923SOL    HW230386   6.713   0.446   0.301  0.3991 -0.6359 -0.8759
 9924SOL     OW30387   1.128   5.971   0.513  0.5036  0.2923  0.0201
 9924SOL    HW130388   1.085   6.019   0.442  0.0688  0.1471  0.1801
 9924SOL    HW230389   1.208   5.937   0.474  0.7399  1.0070 -0.1436
 9925SOL     OW30390   1.820   0.323   2.698  0.3768 -0.0736 -0.0793
 9925SOL    HW130391   1.731   0.341   2.729 -0.4860 -1.5965 -1.4967
 9925SOL    HW230392   1.864   0.407   2.699 -0.3770  0.3969  2.7216
 9926SOL     OW30393   7.164   1.806   5.415 -0.1683 -0.0933 -0.0052
 9926SOL    HW130394   7.243   1.766   5.452 -0.1508  0.9358  1.1472
 9926SOL    HW230395   7.092   1.767   5.464 -0.1256  1.5266  1.4567
 9927SOL     OW30396   1.922   5.533   3.237  0.3547 -0.2987 -0.3401
 9927SOL    HW130397   1.951   5.448   3.203  0.4504 -1.1169  1.6732
 9927SOL    HW230398   1.830   5.520   3.260 -0.4916  1.0340 -2.6831
 9928SOL     OW30399   4.358   6.460   2.218  0.5801 -0.3658 -0.4965
 9928SOL    HW130400   4.403   6.376   2.225  0.9384 -0.0909  0.9719
 9928SOL    HW230401   4.420   6.517   2.171  0.2608 -0.9465 -1.6517
 9929SOL     OW30402   5.292   4.738   4.888  0.6219 -0.0079  0.2540
 9929SOL    HW130403   5.364   4.679   4.866 -0.1628 -1.2185  0.8007
 9929SOL    HW230404   5.252   4.761   4.805  2.2002  1.4782 -0.1575
 9930SOL     OW30405   3.581   2.794   2.500  0.0106  0.8646 -0.3358
 9930SOL    HW130406   3.603   2.749   2.582  1.6704 -0.3722 -1.3924
 9930SOL    HW230407   3.651   2.858   2.489  0.8916 -0.2541 -1.6699
 9931SOL     OW30408   1.172   3.030   1.236 -0.1420 -0.7619 -0.1258
 9931SOL    HW130409   1.162   3.004   1.328  0.6567 -1.9179 -0.3413
 9931SOL    HW230410   1.098   2.989   1.192 -1.5254  1.2286  0.2382
 9932SOL     OW30411   1.411   4.159   3.868 -0.0304 -0.5458 -0.3426
 9932SOL    HW130412   1.350   4.221   3.909 -0.0020 -0.7496  0.0118
 9932SOL    HW230413   1.493   4.208   3.860 -0.2968 -0.1994 -1.0230
 9933SOL     OW30414   0.877   0.317   2.647 -0.3643 -0.6905 -0.1930
 9933SOL    HW130415   0.872   0.400   2.695  0.2513 -0.3410 -0.7132
 9933SOL    HW230416   0.842   0.252   2.708 -1.0321 -0.0224  0.1509
 9934SOL     OW30417   6.125   1.871   5.230  0.0984 -0.2565 -0.2657
 9934SOL    HW130418   6.193   1.914   5.282 -0.3543  0.8869 -0.5760
 9934SOL    HW230419   6.056   1.937   5.223 -0.5186 -0.9645 -0.9856
 9935SOL     OW30420   7.136   1.712   2.534  0.1919  0.6648  0.0091
 9935SOL    HW130421   7.049   1.700   2.572  0.8968 -0.1673  1.4775
 9935SOL    HW230422   7.195   1.709   2.610  1.5266  0.8632 -0.9876
 9936SOL     OW30423   5.123   4.367   2.446 -0.3957  0.5003  0.6573
 9936SOL    HW130424   5.124   4.287   2.393  0.4773  0.7415  0.2816
 9936SOL    HW230425   5.047   4.357   2.504 -2.0118  0.6787 -1.3233
 9937SOL     OW30426   4.784   0.034   7.238 -0.4062 -0.0167  0.1046
 9937SOL    HW130427   4.839   0.015   7.162  1.0123 -0.2538  1.1535
 9937SOL    HW230428   4.750  -0.052   7.264 -0.0801 -0.0846  0.3211
 9938SOL     OW30429   2.112   5.711   2.528 -0.3680  0.4327  0.5261
 9938SOL    HW130430   2.094   5.700   2.621  1.6096  2.1929  1.2213
 9938SOL    HW230431   2.052   5.780   2.499 -2.6543 -1.7210 -0.1937
 9939SOL     OW30432   4.034   4.723   2.996 -0.2217  0.6996 -0.0463
 9939SOL    HW130433   4.019   4.728   2.901  0.1277 -0.2176 -0.1550
 9939SOL    HW230434   4.062   4.812   3.020  0.8401  0.6490 -1.0071
 9940SOL     OW30435   1.680   6.285   1.077  0.7430 -0.2952  0.6549
 9940SOL    HW130436   1.726   6.284   1.161  1.2644  1.7699  0.4613
 9940SOL    HW230437   1.717   6.361   1.031 -2.0722  0.8042  0.0227
 9941SOL     OW30438   5.221   6.603   2.348 -0.4057  0.4432 -0.9334
 9941SOL    HW130439   5.252   6.652   2.425 -0.3007  1.2054 -1.4522
 9941SOL    HW230440   5.297   6.551   2.321 -1.6323 -3.5501  2.2214
 9942SOL     OW30441   1.714   5.918   4.670 -0.0856  0.3664 -0.5730
 9942SOL    HW130442   1.698   5.851   4.736  1.1844  1.1530  0.5971
 9942SOL    HW230443   1.808   5.936   4.676 -0.5727  3.2025  0.1288
 9943SOL     OW30444   4.963   0.460   5.971  0.4353 -0.2564 -0.1373
 9943SOL    HW130445   5.012   0.530   5.928 -0.3670 -0.6571 -1.7947
 9943SOL    HW230446   4.966   0.482   6.064 -0.2062  2.2710 -0.6350
 9944SOL     OW30447   4.768   4.926   2.414 -0.2071  0.5093 -0.4998
 9944SOL    HW130448   4.831   4.991   2.382  1.3462 -0.5950  0.2026
 9944SOL    HW230449   4.822   4.860   2.457 -1.8339 -0.7072 -0.2549
 9945SOL     OW30450   5.388   7.077   3.311 -0.0096  0.8445  0.1804
 9945SOL    HW130451   5.461   7.097   3.253 -0.5445  0.6724 -0.5615
 9945SOL    HW230452   5.314   7.125   3.275 -1.0271 -1.3823 -0.9441
 9946SOL     OW30453   2.506   4.676   0.329  0.3381  0.3978  0.2752
 9946SOL    HW130454   2.501   4.581   0.321 -0.6717  0.4742 -0.0922
 9946SOL    HW230455   2.586   4.691   0.380  1.0939 -0.5984 -0.5596
 9947SOL     OW30456   2.542   6.385   4.923 -0.2213  0.3452  0.2246
 9947SOL    HW130457   2.541   6.392   4.827 -0.7712  0.4585  0.2329
 9947SOL    HW230458   2.595   6.459   4.952 -0.9208  0.9356  0.0430
 9948SOL     OW30459   6.089   2.849   4.813  0.1541 -0.3953  0.1042
 9948SOL    HW130460   6.013   2.847   4.755 -0.2394 -2.1429  0.6160
 9948SOL    HW230461   6.121   2.939   4.808 -1.2740  0.0860 -0.9852
 9949SOL     OW30462   0.191   5.918   4.711  0.5183 -0.1531 -0.0917
 9949SOL    HW130463   0.142   5.912   4.629  0.7012  0.7035 -0.2743
 9949SOL    HW230464   0.283   5.908   4.684  0.6063  0.5006 -0.0431
 9950SOL     OW30465   3.071   1.397   2.961  0.2234  0.5531  0.1323
 9950SOL    HW130466   3.072   1.320   2.904 -0.1377 -0.1683  1.0647
 9950SOL    HW230467   2.982   1.431   2.954 -0.5214 -0.8513  1.9105
 9951SOL     OW30468   6.800   2.935   0.712  0.0050 -0.1642 -0.5676
 9951SOL    HW130469   6.877   2.911   0.763  0.1499  1.9717  0.3174
 9951SOL    HW230470   6.727   2.926   0.773  0.1643  2.2822  0.1131
 9952SOL     OW30471   6.860   3.219   0.861 -0.2006  1.1422  0.2626
 9952SOL    HW130472   6.889   3.307   0.837  0.7066  0.5661 -0.8431
 9952SOL    HW230473   6.831   3.180   0.779 -1.1330  0.6010  0.8376
 9953SOL     OW30474   2.494   5.096   2.727  0.0260  0.3675 -0.1391
 9953SOL    HW130475   2.589   5.095   2.715  0.1123  1.1818  0.3852
 9953SOL    HW230476   2.459   5.072   2.641  0.6976 -0.0278 -0.3149
 9954SOL     OW30477   5.446   1.202   1.398 -0.1048  0.8314  1.0058
 9954SOL    HW130478   5.367   1.245   1.365 -1.7625 -1.0249  2.3287
 9954SOL    HW230479   5.435   1.199   1.493 -0.1475 -2.3845  1.0303
 9955SOL     OW30480   0.245   6.574   1.040  0.0311  1.2626 -0.2836
 9955SOL    HW130481   0.174   6.639   1.044 -0.1046  1.1602 -0.9457
 9955SOL    HW230482   0.289   6.592   0.957 -0.0999  0.4040 -0.5466
 9956SOL     OW30483   4.240   2.466   4.994  0.3049  0.4793 -0.2993
 9956SOL    HW130484   4.153   2.502   5.009 -0.0264 -0.7161  0.8740
 9956SOL    HW230485   4.235   2.427   4.907 -0.9680 -1.2590  0.5015
 9957SOL     OW30486   5.823   5.624   7.087 -0.5404 -0.0230 -0.1723
 9957SOL    HW130487   5.756   5.689   7.109  0.3911  0.6798  0.6983
 9957SOL    HW230488   5.774   5.545   7.064 -1.6644  0.6064  0.0096
 9958SOL     OW30489   1.503   1.046   5.237 -0.0776  0.4728 -0.0657
 9958SOL    HW130490   1.521   1.113   5.302 -0.1156 -0.6833  1.1940
 9958SOL    HW230491   1.584   1.040   5.185  0.0914  1.1446  0.1135
 9959SOL     OW30492   5.167   2.961   4.752 -0.6059  0.3571  0.0348
 9959SOL    HW130493   5.125   2.875   4.743  1.1518 -0.6174  0.6828
 9959SOL    HW230494   5.182   2.971   4.846  0.6567  0.6293 -0.1761
 9960SOL     OW30495   1.689   6.329   4.654 -0.0613  0.1302 -0.0971
 9960SOL    HW130496   1.607   6.281   4.666  0.6590 -1.1623 -0.2043
 9960SOL    HW230497   1.721   6.301   4.569  0.7036  0.3064  0.1254
 9961SOL     OW30498   1.041   0.910   0.619 -0.2866  0.2763  0.2379
 9961SOL    HW130499   1.079   0.871   0.697  0.3112  2.6377  1.2252
 9961SOL    HW230500   1.068   1.002   0.623 -1.8816  0.9008 -1.7187
 9962SOL     OW30501   2.488   0.161   6.484  0.1661 -0.6684 -0.0800
 9962SOL    HW130502   2.549   0.234   6.497 -2.0097  1.5703 -1.4992
 9962SOL    HW230503   2.503   0.132   6.394 -0.9732  0.0585 -0.5187
 9963SOL     OW30504   6.209   2.627   0.098  0.4735 -0.5347 -0.5491
 9963SOL    HW130505   6.287   2.645   0.149 -0.2346  2.9039 -0.4295
 9963SOL    HW230506   6.226   2.668   0.013 -0.7545 -0.6699 -0.8792
 9964SOL     OW30507   3.391   1.811   5.732 -0.1425 -0.1586  0.2201
 9964SOL    HW130508   3.451   1.852   5.670 -0.4254  1.0795  0.7185
 9964SOL    HW230509   3.309   1.860   5.721 -0.7344 -1.1140  0.3070
 9965SOL     OW30510   6.980   5.871   2.767  0.3499  0.2753  0.3323
 9965SOL    HW130511   7.071   5.901   2.766  0.2944  0.4469 -0.2445
 9965SOL    HW230512   6.928   5.951   2.763  0.0484  0.4459  4.0854
 9966SOL     OW30513   3.727   2.748   0.872  0.1149  0.1997 -0.1608
 9966SOL    HW130514   3.709   2.837   0.841  0.2557 -0.2064 -1.4528
 9966SOL    HW230515   3.654   2.696   0.838  0.5027 -0.3340 -0.1860
 9967SOL     OW30516   6.789   6.542   4.879  0.3194 -0.6015  0.2293
 9967SOL    HW130517   6.785   6.499   4.793 -0.2357 -1.5536  0.7199
 9967SOL    HW230518   6.785   6.471   4.942  0.0411  0.1368  1.0679
 9968SOL     OW30519   5.137   0.460   3.422 -0.4242 -0.0313  0.5965
 9968SOL    HW130520   5.125   0.450   3.327  2.6296 -0.7544  0.1827
 9968SOL    HW230521   5.099   0.381   3.460 -0.3283 -0.4587 -0.1748
 9969SOL     OW30522   1.080   6.188   2.315 -0.3323  0.0196 -0.4604
 9969SOL    HW130523   0.994   6.149   2.299 -0.0122 -0.1742 -1.8702
 9969SOL    HW230524   1.083   6.263   2.256  0.6437 -0.2618 -0.7912
 9970SOL     OW30525   2.060   3.029   5.760 -0.2627  0.2612  0.4125
 9970SOL    HW130526   2.075   2.965   5.829 -0.4955 -1.5189 -1.1298
 9970SOL    HW230527   2.089   2.987   5.680 -1.0997  1.8107 -0.7712
 9971SOL     OW30528   1.809   0.151   4.356  0.3273  0.7025  0.2069
 9971SOL    HW130529   1.890   0.173   4.309  0.2617  0.3584 -0.0712
 9971SOL    HW230530   1.740   0.168   4.292  0.2465  0.0808  0.1263
 9972SOL     OW30531   2.609   5.930   4.798  0.0488 -0.2850  0.3141
 9972SOL    HW130532   2.568   5.998   4.745  1.2117  0.7085  0.6459
 9972SOL    HW230533   2.606   5.851   4.743 -3.5400 -0.7098  0.8335
 9973SOL     OW30534   5.830   0.097   2.090  0.1260  0.2499  0.0393
 9973SOL    HW130535   5.827   0.085   2.185  0.0651  0.5294  0.0752
 9973SOL    HW230536   5.752   0.052   2.058 -0.5419  1.2088  0.2481
 9974SOL     OW30537   3.669   1.303   2.452 -0.1592  0.1932  0.1406
 9974SOL    HW130538   3.705   1.347   2.529  1.4495  3.3357 -2.1887
 9974SOL    HW230539   3.718   1.221   2.446  4.3530  2.6263 -0.7746
 9975SOL     OW30540   1.284   6.370   5.949  0.1555 -0.5410  1.0464
 9975SOL    HW130541   1.312   6.452   5.989  0.6999 -1.3829  2.4505
 9975SOL    HW230542   1.202   6.392   5.905  1.6723  1.4013 -1.0471
 9976SOL     OW30543   6.078   6.693   4.132 -0.0610  0.9042  0.0701
 9976SOL    HW130544   6.121   6.747   4.066  1.0837  3.3874  2.6258
 9976SOL    HW230545   6.127   6.710   4.212 -1.8857 -1.2892  1.7923
 9977SOL     OW30546   0.141   0.611   6.385  0.0949  0.2617 -0.4270
 9977SOL    HW130547   0.147   0.704   6.366 -1.2059  0.2535 -0.9961
 9977SOL    HW230548   0.209   0.571   6.330  1.5513  0.9660  0.8005
 9978SOL     OW30549   6.385   6.765   4.339 -0.2246  0.1610 -0.4162
 9978SOL    HW130550   6.434   6.846   4.344  0.0092  0.0043 -0.1294
 9978SOL    HW230551   6.337   6.760   4.422  0.9898 -0.7618  0.2652
 9979SOL     OW30552   6.174   4.600   1.080 -0.0320 -0.3432 -0.3450
 9979SOL    HW130553   6.258   4.557   1.098 -0.8639 -2.1301 -0.5078
 9979SOL    HW230554   6.157   4.583   0.988 -0.0713  0.9917 -0.6094
 9980SOL     OW30555   2.070   0.598   6.941  0.2390 -0.2668 -0.4140
 9980SOL    HW130556   2.110   0.665   6.886 -2.2895  1.3380 -0.4710
 9980SOL    HW230557   2.082   0.630   7.030 -2.2209  1.1748 -0.4975
 9981SOL     OW30558   2.918   0.364   4.647 -0.0813  0.4048  0.0807
 9981SOL    HW130559   2.992   0.312   4.616  0.1834  0.8886 -0.1307
 9981SOL    HW230560   2.898   0.422   4.573 -1.0095 -0.0713 -0.0557
 9982SOL     OW30561   3.945   4.592   6.164 -1.2679  0.5246  0.1051
 9982SOL    HW130562   3.889   4.550   6.099 -1.6677  0.4478  0.4921
 9982SOL    HW230563   3.998   4.654   6.114 -0.6754 -0.4248 -0.4714
 9983SOL     OW30564   7.108   4.945   2.758  0.6015  0.1525  0.3760
 9983SOL    HW130565   7.190   4.898   2.776  0.6664  0.1216  0.0129
 9983SOL    HW230566   7.125   4.991   2.676  0.3106  0.2827  0.3895
 9984SOL     OW30567   3.641   1.689   0.157  0.1804  0.5361  0.5221
 9984SOL    HW130568   3.685   1.612   0.193 -1.9626 -0.9730  0.1202
 9984SOL    HW230569   3.686   1.763   0.197  1.0596 -0.9536  2.4825
 9985SOL     OW30570   2.723   5.800   2.665  0.2791  0.1385  0.3887
 9985SOL    HW130571   2.788   5.805   2.595  1.2066  0.0133  1.2132
 9985SOL    HW230572   2.644   5.767   2.623  1.2538 -1.3976 -0.3198
 9986SOL     OW30573   6.596   1.547   6.658 -0.0512 -0.4576  0.5145
 9986SOL    HW130574   6.517   1.506   6.696 -0.5014  0.7207  0.8854
 9986SOL    HW230575   6.607   1.503   6.574 -1.1610 -0.5926  0.4176
 9987SOL     OW30576   4.487   6.332   0.509 -0.4284 -0.2085  0.2561
 9987SOL    HW130577   4.463   6.424   0.507  1.1670  0.3263  2.2067
 9987SOL    HW230578   4.456   6.301   0.594  2.9527 -0.1991  1.6462
 9988SOL     OW30579   0.827   2.178   4.754  0.5509  0.2291 -0.5968
 9988SOL    HW130580   0.824   2.266   4.791 -0.2123 -0.5335  1.2690
 9988SOL    HW230581   0.820   2.120   4.830 -0.5480 -1.4316 -1.9024
 9989SOL     OW30582   1.920   0.112   2.133  0.1972  0.1291 -0.4685
 9989SOL    HW130583   1.863   0.058   2.187 -0.6502  1.4013 -0.0250
 9989SOL    HW230584   1.891   0.097   2.043  2.3111 -2.8287 -0.8229
 9990SOL     OW30585   4.794   2.502   0.402 -0.1793  0.0853  0.2411
 9990SOL    HW130586   4.815   2.594   0.382 -0.9040  0.1806 -0.1177
 9990SOL    HW230587   4.716   2.484   0.349 -0.4471 -0.5303  0.8438
 9991SOL     OW30588   1.375   1.165   5.849  0.2877 -0.7692  0.0922
 9991SOL    HW130589   1.339   1.114   5.923  0.3630 -0.6763  0.1928
 9991SOL    HW230590   1.432   1.230   5.890  0.1877 -0.5995 -0.0357
 9992SOL     OW30591   1.703   0.995   6.744 -0.1914  0.2286 -0.3887
 9992SOL    HW130592   1.691   0.900   6.748  0.3418  0.2001  1.0270
 9992SOL    HW230593   1.617   1.029   6.721 -1.1239 -0.4519  1.8154
 9993SOL     OW30594   0.923   0.148   7.203 -0.1309  0.1058  0.5708
 9993SOL    HW130595   0.903   0.210   7.133  1.3742 -2.2148 -2.1471
 9993SOL    HW230596   1.005   0.180   7.241 -0.1319  0.5746  0.1786
 9994SOL     OW30597   1.240   6.416   3.231  0.0760 -0.2311  0.0707
 9994SOL    HW130598   1.257   6.374   3.147  2.1972 -0.8754  0.7479
 9994SOL    HW230599   1.157   6.379   3.260 -0.6363 -0.0789 -1.6613
 9995SOL     OW30600   1.844   5.839   2.369  0.3394 -0.1565  0.3918
 9995SOL    HW130601   1.782   5.877   2.431  2.1874  0.3564  2.0415
 9995SOL    HW230602   1.833   5.890   2.289 -2.3285 -1.0416  0.0924
 9996SOL     OW30603   5.924   5.568   1.444  0.3094 -0.1816  0.0331
 9996SOL    HW130604   5.972   5.527   1.372  0.2005 -1.4286  0.6360
 9996SOL    HW230605   5.984   5.563   1.519  0.0210  0.1452  0.2910
 9997SOL     OW30606   5.693   3.269   6.033 -0.7388  0.1003 -0.0734
 9997SOL    HW130607   5.677   3.353   5.989  1.5436  1.3546  1.2781
 9997SOL    HW230608   5.615   3.255   6.086 -0.4589  2.3719  1.0759
 9998SOL     OW30609   6.137   0.415   3.927  0.2306  0.2514  0.5407
 9998SOL    HW130610   6.094   0.412   4.013  0.2325  1.5845  0.6094
 9998SOL    HW230611   6.207   0.479   3.937 -0.2309  0.9797 -0.6431
 9999SOL     OW30612   2.276   0.777   6.828 -0.0970  0.4169  0.4702
 9999SOL    HW130613   2.313   0.752   6.743  0.5529  1.7487  0.3294
 9999SOL    HW230614   2.244   0.866   6.815  0.8369  0.9910  1.8492
10000SOL     OW30615   5.408   0.173   2.928 -0.0182  0.2188  0.2194
10000SOL    HW130616   5.393   0.081   2.907  0.0139  0.4905 -1.0581
10000SOL    HW230617   5.320   0.210   2.934 -0.0199  0.2855 -0.1628
10001SOL     OW30618   4.840   5.709   7.000 -0.8677  0.2729  0.2472
10001SOL    HW130619   4.827   5.614   6.996  2.7947 -0.3530  0.4263
10001SOL    HW230620   4.798   5.736   7.082 -0.9687 -1.3742  0.7612
10002SOL     OW30621   2.909   1.309   6.821  0.0827  0.0972 -0.1374
10002SOL    HW130622   2.834   1.297   6.879  0.7460  1.5541  1.0637
10002SOL    HW230623   2.871   1.309   6.733 -1.2995  0.5842  0.4347
10003SOL     OW30624   5.170   2.991   4.109  0.4330  0.0859 -0.2219
10003SOL    HW130625   5.094   2.951   4.152  0.3153 -0.8110 -1.2066
10003SOL    HW230626   5.241   2.981   4.172 -0.3535  1.3816  0.9244
10004SOL     OW30627   0.342   5.387   2.814  0.0830 -0.2724 -0.2691
10004SOL    HW130628   0.249   5.409   2.808  0.3261  1.1640  0.6998
10004SOL    HW230629   0.382   5.434   2.741  0.1448 -0.3383 -0.2777
10005SOL     OW30630   2.442   6.001   0.631  0.0258 -0.3589  0.1882
10005SOL    HW130631   2.499   5.953   0.692  0.4737  0.0572  0.1004
10005SOL    HW230632   2.442   5.949   0.551  0.2592 -0.3757  0.1996
10006SOL     OW30633   4.879   0.770   0.087  0.4783  0.0154  0.3980
10006SOL    HW130634   4.869   0.788   0.181 -1.3193 -0.7063  0.3974
10006SOL    HW230635   4.864   0.854   0.044  0.8131  0.2468  0.7222
10007SOL     OW30636   4.780   5.523   4.279  0.1489  0.2432 -0.4952
10007SOL    HW130637   4.713   5.591   4.270  1.5726  1.6113 -1.3471
10007SOL    HW230638   4.861   5.567   4.253  1.3562 -1.3903  0.3809
10008SOL     OW30639   0.181   1.649   6.648 -0.2508  0.5707 -1.0211
10008SOL    HW130640   0.266   1.674   6.683 -0.9128 -0.8772  1.9460
10008SOL    HW230641   0.201   1.609   6.564  1.6330  2.9076 -1.8016
10009SOL     OW30642   2.826   5.721   2.308  0.4081  0.2299 -0.0832
10009SOL    HW130643   2.839   5.640   2.259  3.9880  1.2574 -1.0822
10009SOL    HW230644   2.860   5.702   2.395  0.2977  0.3665 -0.0108
10010SOL     OW30645   2.909   1.667   1.993  0.6049  0.3474  0.2412
10010SOL    HW130646   2.939   1.751   2.030  1.9322  0.1827 -0.3858
10010SOL    HW230647   2.987   1.612   1.995  0.4457  0.0017 -1.8055
10011SOL     OW30648   4.492   1.124   4.405  0.6114 -0.0699 -0.3688
10011SOL    HW130649   4.466   1.054   4.346 -0.2506  0.5623 -0.7649
10011SOL    HW230650   4.409   1.157   4.441  1.0725  0.0616  0.6032
10012SOL     OW30651   4.760   6.555   0.864  0.0306 -0.1385  0.0307
10012SOL    HW130652   4.702   6.624   0.897  1.8486  1.1946  0.6059
10012SOL    HW230653   4.797   6.515   0.943  2.1809  1.1042 -0.2665
10013SOL     OW30654   2.959   7.032   3.556  0.2888  0.3013 -0.2954
10013SOL    HW130655   2.968   6.940   3.531  0.6754  0.6179 -1.3947
10013SOL    HW230656   2.911   7.031   3.638  1.1713 -0.9418  0.2312
10014SOL     OW30657   5.815   0.752   5.045 -0.3021  0.2939  0.3868
10014SOL    HW130658   5.742   0.732   5.104 -1.3020  3.7510  0.5649
10014SOL    HW230659   5.772   0.789   4.967  1.1905 -0.1847 -0.7082
10015SOL     OW30660   2.469   1.364   2.405  0.2762  0.3629  0.0098
10015SOL    HW130661   2.388   1.412   2.386 -1.4041 -1.7460  1.4362
10015SOL    HW230662   2.501   1.403   2.486  0.1522  0.5535 -0.0303
10016SOL     OW30663   6.433   3.445   0.784  0.0429 -0.1952 -0.1659
10016SOL    HW130664   6.461   3.516   0.841  0.6190  1.2718 -2.1732
10016SOL    HW230665   6.502   3.437   0.719 -0.8331 -1.4315 -1.0091
10017SOL     OW30666   4.716   2.285   7.216  0.3303  0.4573 -0.5782
10017SOL    HW130667   4.795   2.244   7.250  0.2729  0.3376 -0.5880
10017SOL    HW230668   4.661   2.211   7.189 -1.1392  0.3649  2.3379
10018SOL     OW30669   0.668   5.045   3.137  0.8620  0.3233 -0.1395
10018SOL    HW130670   0.733   4.979   3.116  2.7654  1.3429  2.0628
10018SOL    HW230671   0.719   5.123   3.158 -1.1711  1.7059 -0.0090
10019SOL     OW30672   7.239   4.307   4.880  0.7839 -0.0602 -0.2051
10019SOL    HW130673   7.188   4.259   4.815 -0.4261 -1.0683  1.4039
10019SOL    HW230674   7.290   4.240   4.926  1.8915  0.6711 -0.3218
10020SOL     OW30675   2.204   2.631   5.484 -0.3928  0.1925 -0.1279
10020SOL    HW130676   2.294   2.661   5.468  0.4151 -1.8453  0.1975
10020SOL    HW230677   2.204   2.604   5.576 -1.3829  0.2951 -0.0942
10021SOL     OW30678   3.777   2.415   1.742 -0.7323  0.5700 -0.3059
10021SOL    HW130679   3.798   2.462   1.661 -1.6408  0.2874 -0.7161
10021SOL    HW230680   3.751   2.328   1.714  0.9201 -0.2200  0.4511
10022SOL     OW30681   6.727   2.437   2.500  0.0007 -0.3496 -0.3442
10022SOL    HW130682   6.636   2.459   2.481  0.0149 -2.0571 -3.0465
10022SOL    HW230683   6.773   2.456   2.419  1.5345 -1.9257  0.0911
10023SOL     OW30684   5.461   6.321   2.532  0.0652 -0.3082  0.1881
10023SOL    HW130685   5.427   6.379   2.464  0.7004  0.4129  0.4661
10023SOL    HW230686   5.501   6.249   2.484  0.6597  0.2791 -0.2179
10024SOL     OW30687   6.314   4.425   6.763 -0.3255 -0.0965 -0.3316
10024SOL    HW130688   6.384   4.432   6.828 -1.2196 -1.2000  0.7771
10024SOL    HW230689   6.234   4.441   6.812 -0.9092  0.5681 -1.4785
10025SOL     OW30690   4.178   0.961   3.798  0.2472  0.3458 -0.0621
10025SOL    HW130691   4.237   0.888   3.820 -0.0383  0.2392  0.3817
10025SOL    HW230692   4.236   1.033   3.774  0.5526  0.1563  0.0973
10026SOL     OW30693   2.794   3.194   0.999  0.1924  0.2002 -0.3240
10026SOL    HW130694   2.856   3.244   0.946  1.7309 -0.7570  0.4917
10026SOL    HW230695   2.840   3.177   1.081 -0.9846 -0.9300  0.1461
10027SOL     OW30696   0.219   3.695   1.037 -0.3671 -0.5121 -0.0454
10027SOL    HW130697   0.286   3.652   1.090  1.6435  1.2623 -1.0136
10027SOL    HW230698   0.215   3.643   0.956  2.7261  1.4165 -1.6122
10028SOL     OW30699   0.928   1.593   6.587  0.2382 -0.2984 -0.4620
10028SOL    HW130700   0.989   1.611   6.515  1.0606  0.7737  0.4739
10028SOL    HW230701   0.965   1.516   6.631  0.3738 -0.2472 -0.4867
10029SOL     OW30702   4.942   0.456   3.683 -0.0620 -0.2205 -0.7459
10029SOL    HW130703   5.021   0.510   3.675  0.2829 -0.4910  0.5020
10029SOL    HW230704   4.968   0.370   3.651 -0.3061  0.0790 -1.7633
10030SOL     OW30705   2.729   4.197   2.896  0.3324 -0.5155 -0.1840
10030SOL    HW130706   2.755   4.123   2.952 -2.1963  0.7682  2.9909
10030SOL    HW230707   2.634   4.188   2.887  0.0459  1.9958 -0.2521
10031SOL     OW30708   5.429   3.799   3.126 -0.5087  0.1477 -0.5710
10031SOL    HW130709   5.466   3.806   3.214 -2.8875 -0.7541  0.6167
10031SOL    HW230710   5.470   3.722   3.088 -1.5083 -1.1907  0.9322
10032SOL     OW30711   5.991   1.687   2.097 -0.0459 -0.7217 -0.1132
10032SOL    HW130712   6.083   1.684   2.071 -0.2032 -1.7256 -0.6115
10032SOL    HW230713   5.948   1.622   2.041 -0.8625 -1.0814  0.8918
10033SOL     OW30714   5.432   2.194   6.429  0.0824 -0.4675  0.2526
10033SOL    HW130715   5.403   2.103   6.422 -2.6846  0.2249  1.3916
10033SOL    HW230716   5.451   2.206   6.522  1.6765 -0.1544 -0.0793
10034SOL     OW30717   5.128   3.343   3.591 -0.6326  0.5639 -0.6166
10034SOL    HW130718   5.066   3.377   3.656  0.6501 -1.5981  1.9301
10034SOL    HW230719   5.184   3.417   3.570 -0.1766  1.0187  1.9280
10035SOL     OW30720   7.220   5.031   1.664 -0.1142  0.1805  0.0402
10035SOL    HW130721   7.227   4.956   1.605  0.7703  0.5293 -0.3069
10035SOL    HW230722   7.308   5.043   1.699 -1.0561 -1.6990  3.5877
10036SOL     OW30723   4.780   5.696   6.665  0.0451  0.0937 -1.3877
10036SOL    HW130724   4.800   5.603   6.678  0.6426  0.4750  1.0395
10036SOL    HW230725   4.686   5.703   6.678  0.2210  0.0075  0.1278
10037SOL     OW30726   6.476   6.108   0.303  0.6236 -0.9620 -0.2185
10037SOL    HW130727   6.427   6.034   0.340 -0.5682 -0.3480 -0.5198
10037SOL    HW230728   6.413   6.153   0.247  1.0252  0.8724  0.7278
10038SOL     OW30729   6.153   2.203   1.194 -0.3490 -0.0844  0.2473
10038SOL    HW130730   6.189   2.134   1.249 -1.2147 -0.6313  0.1508
10038SOL    HW230731   6.120   2.268   1.255 -0.6541 -0.3473  0.3639
10039SOL     OW30732   4.130   0.760   6.432 -0.1290  0.4132  0.3787
10039SOL    HW130733   4.146   0.747   6.338  0.4484 -0.2597  0.5613
10039SOL    HW230734   4.061   0.698   6.454 -0.3614  0.6689  0.3706
10040SOL     OW30735   1.060   3.579   4.406 -0.1360 -0.3359  0.0247
10040SOL    HW130736   1.011   3.612   4.331  0.8297 -0.0368 -0.4915
10040SOL    HW230737   0.993   3.548   4.468 -0.9389 -1.1108 -1.1948
10041SOL     OW30738   5.267   4.701   1.458  0.2422 -0.3136 -0.1951
10041SOL    HW130739   5.204   4.773   1.447 -0.7193 -0.9772  0.7286
10041SOL    HW230740   5.225   4.627   1.415  0.3183 -0.7972  0.5492
10042SOL     OW30741   3.903   3.840   5.076 -0.1091 -0.4489 -0.1431
10042SOL    HW130742   3.912   3.867   4.984  0.0794  1.1482  0.3136
10042SOL    HW230743   3.980   3.877   5.119 -2.0568  2.1449  1.3750
10043SOL     OW30744   1.378   7.240   1.371 -0.0561 -0.3947  0.1258
10043SOL    HW130745   1.320   7.174   1.410 -0.7519  0.4842  0.6031
10043SOL    HW230746   1.347   7.323   1.406  0.2091  0.2877 -1.2054
10044SOL     OW30747   0.330   2.253   2.817  0.0957 -0.1018 -0.2203
10044SOL    HW130748   0.274   2.203   2.759 -0.4681  0.8266 -0.5020
10044SOL    HW230749   0.355   2.192   2.886 -2.5385 -0.1433  0.7900
10045SOL     OW30750   5.602   1.862   6.997  0.2747 -0.5054  0.1336
10045SOL    HW130751   5.522   1.913   7.006  0.1880 -0.8855  1.7566
10045SOL    HW230752   5.634   1.850   7.087  2.4039  0.0122 -0.4951
10046SOL     OW30753   0.853   4.261   6.467  0.3215  0.3744  0.3740
10046SOL    HW130754   0.837   4.174   6.430 -0.6015  0.6197  0.1885
10046SOL    HW230755   0.825   4.321   6.398 -0.0140  0.8278  0.9049
10047SOL     OW30756   5.289   4.394   4.538 -0.0972  0.3012  0.3992
10047SOL    HW130757   5.333   4.474   4.507  0.2550 -0.6111 -1.6176
10047SOL    HW230758   5.196   4.416   4.537  0.0015  0.7331 -0.0050
10048SOL     OW30759   3.605   4.392   3.814 -0.0335  0.3066 -0.3605
10048SOL    HW130760   3.623   4.372   3.906  0.1829 -1.1547 -0.6859
10048SOL    HW230761   3.665   4.462   3.791  2.1150 -1.3627 -0.1835
10049SOL     OW30762   5.098   5.342   4.480 -0.4494  0.0605  0.1168
10049SOL    HW130763   5.036   5.292   4.426 -1.1198  0.4763  0.4907
10049SOL    HW230764   5.094   5.301   4.566 -0.0280 -0.0545  0.0839
10050SOL     OW30765   6.710   3.218   5.318  0.0533  0.3872  0.6672
10050SOL    HW130766   6.748   3.282   5.257 -2.7772 -1.0105 -2.9035
10050SOL    HW230767   6.765   3.141   5.309 -0.1324  0.3117  0.1854
10051SOL     OW30768   2.333   3.927   5.653  0.4284 -0.3025  0.2262
10051SOL    HW130769   2.330   3.935   5.557  2.1716 -0.3267  0.1381
10051SOL    HW230770   2.295   4.008   5.685 -0.0814 -0.2503 -0.4961
10052SOL     OW30771   5.628   3.004   1.914  0.0833  0.3308 -0.0697
10052SOL    HW130772   5.688   3.017   1.841  0.1100  0.5604 -0.0073
10052SOL    HW230773   5.631   3.086   1.963  3.6045 -1.2410  2.8117
10053SOL     OW30774   0.056   2.470   0.756 -0.2454 -0.1502  0.1021
10053SOL    HW130775   0.069   2.436   0.844 -0.5963 -0.7231 -0.0665
10053SOL    HW230776   0.093   2.559   0.759 -0.5207 -0.0595  0.9045
10054SOL     OW30777   5.573   1.425   2.479  0.0400  0.1617  0.3146
10054SOL    HW130778   5.591   1.332   2.491 -2.4854 -0.4266  0.1282
10054SOL    HW230779   5.556   1.435   2.386  0.3562  0.8504  0.3219
10055SOL     OW30780   6.091   1.987   4.869  0.5806 -0.2505 -0.1320
10055SOL    HW130781   6.048   2.030   4.796  1.6761 -0.0588 -0.6818
10055SOL    HW230782   6.069   2.041   4.945  0.0240 -0.0477 -0.4325
10056SOL     OW30783   1.538   5.352   4.995 -0.0331 -0.3648  0.3107
10056SOL    HW130784   1.575   5.264   4.990 -1.6562 -1.0791  0.1629
10056SOL    HW230785   1.449   5.338   5.029 -0.6574  1.1097 -0.6571
10057SOL     OW30786   0.788   5.104   0.370 -0.3279 -0.2041  0.3786
10057SOL    HW130787   0.726   5.169   0.402 -0.5675 -0.8358  1.2407
10057SOL    HW230788   0.874   5.143   0.382 -0.5255  0.5998 -0.6353
10058SOL     OW30789   6.814   3.429   7.253 -0.3299  0.4437 -0.1987
10058SOL    HW130790   6.720   3.428   7.231 -0.4650 -0.3043  0.3896
10058SOL    HW230791   6.817   3.456   7.345 -0.1100 -1.3428  0.3522
10059SOL     OW30792   5.376   3.076   6.401  0.2392 -0.5218  0.1544
10059SOL    HW130793   5.317   3.031   6.340  1.4958 -0.4130 -1.2137
10059SOL    HW230794   5.352   3.042   6.487 -0.6572 -1.7749 -0.5478
10060SOL     OW30795   3.486   5.640   2.239 -0.2462 -0.4954 -0.1983
10060SOL    HW130796   3.477   5.579   2.312  1.5565 -1.3231 -0.6186
10060SOL    HW230797   3.413   5.619   2.181 -0.3117 -1.4557  0.2114
10061SOL     OW30798   1.304   5.520   1.375  0.1170 -0.4221 -0.7553
10061SOL    HW130799   1.245   5.525   1.300  0.3024 -0.6521 -0.9172
10061SOL    HW230800   1.387   5.553   1.341 -0.8085  3.7580  0.4400
10062SOL     OW30801   2.148   2.395   6.022 -0.1514 -0.0004  0.5377
10062SOL    HW130802   2.156   2.485   5.991  0.3188  0.3031  1.4826
10062SOL    HW230803   2.235   2.356   6.008 -0.1419 -0.0781  0.7937
10063SOL     OW30804   0.684   6.468   6.858 -0.2631 -0.5559 -1.1948
10063SOL    HW130805   0.610   6.438   6.911  1.4044 -1.2219  0.9147
10063SOL    HW230806   0.707   6.553   6.895  0.7113 -0.8747 -1.0361
10064SOL     OW30807   4.140   6.393   3.613 -0.7076  0.6503  0.3088
10064SOL    HW130808   4.088   6.351   3.545  1.2888 -0.2990 -0.7372
10064SOL    HW230809   4.222   6.343   3.615 -0.4597  0.9803  3.0615
10065SOL     OW30810   5.196   6.092   4.204  0.3581  0.3050 -0.1942
10065SOL    HW130811   5.245   6.034   4.145 -0.7940  0.9610 -1.9037
10065SOL    HW230812   5.155   6.156   4.145 -2.2961 -0.0293  1.1052
10066SOL     OW30813   6.376   5.707   2.979 -0.2400 -0.4702 -0.1390
10066SOL    HW130814   6.408   5.686   2.891  0.2406 -1.3180  0.2213
10066SOL    HW230815   6.411   5.637   3.034 -1.0292 -0.2766  0.6310
10067SOL     OW30816   6.223   3.357   0.919 -0.7071  0.1057  0.0372
10067SOL    HW130817   6.202   3.270   0.886  0.0151 -0.2253  0.4321
10067SOL    HW230818   6.302   3.383   0.870  0.9655 -0.7937  2.1023
10068SOL     OW30819   7.157   6.407   1.473 -0.3969  0.2794  0.8846
10068SOL    HW130820   7.215   6.467   1.427 -1.3724  0.3336 -0.3219
10068SOL    HW230821   7.173   6.425   1.566  0.1844  1.5771  0.5592
10069SOL     OW30822   4.836   3.001   0.212  0.4404  0.1116 -0.2189
10069SOL    HW130823   4.799   3.089   0.203  1.7078  0.5499 -1.5831
10069SOL    HW230824   4.855   2.992   0.305 -1.7597  0.3807  0.3077
10070SOL     OW30825   5.365   3.360   2.596 -0.4850  0.2613 -0.3598
10070SOL    HW130826   5.369   3.369   2.501  2.2219  1.0096 -0.2577
10070SOL    HW230827   5.417   3.282   2.615  1.5396  1.7123  0.5807
10071SOL     OW30828   5.546   1.116   7.106 -0.0776 -0.1300  0.6527
10071SOL    HW130829   5.478   1.053   7.083 -0.5716  0.1480  1.3145
10071SOL    HW230830   5.497   1.191   7.141  0.4520  0.8732 -0.6781
10072SOL     OW30831   6.749   0.835   6.574 -0.0298 -0.1643  0.5646
10072SOL    HW130832   6.839   0.806   6.592 -0.2579 -1.0191  0.3644
10072SOL    HW230833   6.710   0.849   6.660  0.4749  0.8190  0.6511
10073SOL     OW30834   5.313   3.230   0.669  0.3968  0.3829 -0.3547
10073SOL    HW130835   5.329   3.291   0.596 -2.0854  0.6302 -0.7826
10073SOL    HW230836   5.232   3.262   0.709 -0.5981 -2.1727 -0.1330
10074SOL     OW30837   1.298   0.310   4.971  0.4220  0.0577  0.1390
10074SOL    HW130838   1.353   0.256   4.914 -0.2483  0.2305 -0.6865
10074SOL    HW230839   1.228   0.252   5.000 -0.0744  0.3622 -0.4258
10075SOL     OW30840   4.111   1.571   0.389 -0.3237 -0.0126  0.3391
10075SOL    HW130841   4.053   1.506   0.347  0.1444 -1.1246  1.3473
10075SOL    HW230842   4.088   1.654   0.347  1.1165 -1.1993 -3.2367
10076SOL     OW30843   5.869   5.386   2.198  0.5225 -0.0966  0.0353
10076SOL    HW130844   5.885   5.474   2.166  1.3826  0.0826  0.8761
10076SOL    HW230845   5.782   5.363   2.167 -0.5051  1.7717  1.3299
10077SOL     OW30846   4.977   6.605   0.219  0.2140 -0.2903 -0.4113
10077SOL    HW130847   4.905   6.550   0.251 -0.4634  0.2064 -1.0369
10077SOL    HW230848   5.030   6.622   0.297 -0.5436 -0.3775  0.1452
10078SOL     OW30849   1.440   0.716   6.071  0.2641  0.9044  0.3088
10078SOL    HW130850   1.377   0.734   6.002  0.0884  1.4484  0.6091
10078SOL    HW230851   1.445   0.797   6.121  1.1267  0.8297  0.3498
10079SOL     OW30852   1.458   0.862   0.941 -0.0053  0.2308 -0.3058
10079SOL    HW130853   1.450   0.818   1.026  0.6451  0.5919 -0.0483
10079SOL    HW230854   1.405   0.941   0.949 -1.1290 -0.4514 -0.7487
10080SOL     OW30855   6.117   0.385   3.633  0.2818 -0.4794  0.4620
10080SOL    HW130856   6.128   0.345   3.719 -0.9621 -0.4221  0.6607
10080SOL    HW230857   6.181   0.456   3.631 -0.0439 -0.1500  1.5467
10081SOL     OW30858   0.717   6.361   2.183 -0.5871  0.0373 -0.0556
10081SOL    HW130859   0.624   6.368   2.161 -0.8136  0.0952  0.8885
10081SOL    HW230860   0.732   6.430   2.248  0.0712 -0.0897 -0.0620
10082SOL     OW30861   0.354   3.007   3.021 -0.2383 -0.3136  0.3206
10082SOL    HW130862   0.440   3.023   3.060  0.0979 -0.0950 -0.4902
10082SOL    HW230863   0.314   3.093   3.014 -0.3291 -0.3598  0.2627
10083SOL     OW30864   6.733   0.561   3.151 -0.0970 -0.4054 -0.2032
10083SOL    HW130865   6.765   0.473   3.130  0.0679 -0.6953  1.2130
10083SOL    HW230866   6.648   0.545   3.193  0.2181  0.0825  0.6134
10084SOL     OW30867   6.236   6.923   7.162  0.4076  0.4018 -0.0525
10084SOL    HW130868   6.242   6.925   7.258 -2.5456 -1.2679  0.2796
10084SOL    HW230869   6.150   6.959   7.143 -0.1119 -1.6327 -1.8755
10085SOL     OW30870   6.102   7.006   5.867 -0.0249  0.4433  0.1378
10085SOL    HW130871   6.125   6.914   5.880  0.4792  0.7139  1.2686
10085SOL    HW230872   6.149   7.032   5.788  2.4444  0.5636  1.5492
10086SOL     OW30873   0.310   6.875   6.390 -0.6408 -0.0971  0.1069
10086SOL    HW130874   0.377   6.941   6.368  0.5558 -0.9526  1.0428
10086SOL    HW230875   0.319   6.863   6.485 -1.6655 -0.7351  0.1329
10087SOL     OW30876   1.789   6.944   6.491 -0.3215  0.2424 -0.1435
10087SOL    HW130877   1.881   6.927   6.471 -0.3246 -0.2846  0.2732
10087SOL    HW230878   1.748   6.959   6.406  0.0769  0.1128 -0.3596
10088SOL     OW30879   0.427   0.240   4.957 -0.2851 -0.6228  0.0681
10088SOL    HW130880   0.353   0.269   4.903  0.1790  0.5893  0.0491
10088SOL    HW230881   0.402   0.265   5.046  0.2386  0.1029  0.0176
10089SOL     OW30882   4.063   6.304   5.641  1.0663 -0.3461 -0.0818
10089SOL    HW130883   4.113   6.317   5.722  3.0339  0.0523 -1.2933
10089SOL    HW230884   4.124   6.259   5.582  0.1884  0.6500 -1.8276
10090SOL     OW30885   2.364   6.967   5.499 -0.1472 -0.0516 -0.3057
10090SOL    HW130886   2.348   6.879   5.534 -1.8898  0.0679 -0.6906
10090SOL    HW230887   2.321   7.025   5.562 -0.6385  0.3704 -1.0117
10091SOL     OW30888   2.661   5.819   2.074 -0.2461 -0.4270 -0.2510
10091SOL    HW130889   2.697   5.780   2.154 -1.2527 -2.0290 -0.5094
10091SOL    HW230890   2.728   5.804   2.007  0.0003 -0.3760 -0.0165
10092SOL     OW30891   0.738   6.537   1.471 -0.3084 -0.6137 -0.0681
10092SOL    HW130892   0.686   6.489   1.407  0.0731 -0.9404 -0.1381
10092SOL    HW230893   0.731   6.629   1.443 -0.6821 -0.6786 -0.1914
10093SOL     OW30894   7.203   6.965   2.932  0.3263  0.6263  0.3330
10093SOL    HW130895   7.125   7.015   2.912  0.1395 -0.3931 -1.6681
10093SOL    HW230896   7.272   7.030   2.944 -0.4209  1.4344  0.2465
10094SOL     OW30897   3.517   3.419   5.992 -0.4844  0.4026  0.1444
10094SOL    HW130898   3.563   3.347   5.949 -2.4131  0.7808 -2.7681
10094SOL    HW230899   3.467   3.377   6.062  1.3757 -0.4788  1.0203
10095SOL     OW30900   3.994   6.413   4.735 -0.1482  0.2752  0.6579
10095SOL    HW130901   4.050   6.489   4.721  0.1885 -0.0842  0.0187
10095SOL    HW230902   3.976   6.380   4.647 -2.5561  1.2263  0.7107
10096SOL     OW30903   6.697   1.756   6.780  0.4996 -0.5255 -0.2286
10096SOL    HW130904   6.779   1.713   6.805  0.4459 -1.4818 -1.6132
10096SOL    HW230905   6.651   1.691   6.727 -0.6663  0.3980 -0.3810
10097SOL     OW30906   6.060   0.347   4.791 -0.4722 -0.0926  0.3643
10097SOL    HW130907   6.033   0.384   4.875 -0.0363  2.0013 -0.3608
10097SOL    HW230908   5.978   0.325   4.747 -0.6931 -1.7347  1.5154
10098SOL     OW30909   0.470   4.201   4.994  0.3495  0.0685  0.3810
10098SOL    HW130910   0.408   4.161   4.932  0.3244 -0.1512  0.5508
10098SOL    HW230911   0.556   4.174   4.962  0.2904 -1.1180  1.1915
10099SOL     OW30912   7.043   0.671   2.743  0.0866 -0.0854  0.0228
10099SOL    HW130913   7.013   0.733   2.677  1.4947  0.5535 -0.0479
10099SOL    HW230914   7.127   0.639   2.710  0.7784  0.1649  1.4374
10100SOL     OW30915   5.758   4.785   3.474  0.6556  0.0043  0.3528
10100SOL    HW130916   5.727   4.695   3.467  1.1515 -0.1389 -0.1239
10100SOL    HW230917   5.737   4.812   3.563  1.1709 -0.8419  0.7413
10101SOL     OW30918   0.150   6.302   4.470 -0.7716 -0.3185  0.1573
10101SOL    HW130919   0.087   6.363   4.432 -0.5269  1.3438  2.2087
10101SOL    HW230920   0.101   6.221   4.483 -2.2438  0.6388  0.8092
10102SOL     OW30921   2.526   4.912   5.025  0.1352  0.0798 -0.0003
10102SOL    HW130922   2.505   4.991   5.076 -2.5659 -0.3539 -0.3126
10102SOL    HW230923   2.462   4.847   5.053  1.3882 -1.5819 -0.8019
10103SOL     OW30924   0.970   0.101   4.508 -0.6686 -0.1287  0.4147
10103SOL    HW130925   1.054   0.082   4.551  0.6922  3.8399  0.0247
10103SOL    HW230926   0.993   0.164   4.440 -3.6904 -1.0030 -1.5888
10104SOL     OW30927   2.735   0.241   3.073  0.8233  0.7472  0.6325
10104SOL    HW130928   2.665   0.181   3.047  0.8413  1.1380 -0.3829
10104SOL    HW230929   2.808   0.218   3.015  1.2024  0.9992  1.0082
10105SOL     OW30930   7.222   1.010   5.047  0.1782  0.1546  0.5944
10105SOL    HW130931   7.252   1.005   5.138  0.0548  1.6944  0.7431
10105SOL    HW230932   7.201   1.102   5.034 -3.0047 -0.5197  0.0260
10106SOL     OW30933   1.369   6.140   1.274 -0.7676 -0.5819 -0.3146
10106SOL    HW130934   1.450   6.094   1.251 -0.1020  0.9989 -1.3350
10106SOL    HW230935   1.302   6.072   1.275  0.2006 -1.6073 -1.5426
10107SOL     OW30936   3.488   1.368   1.597  0.2459 -0.2405  0.1237
10107SOL    HW130937   3.428   1.368   1.671  0.3060 -0.9490  0.1822
10107SOL    HW230938   3.554   1.433   1.620 -0.0497 -0.0415  0.4264
10108SOL     OW30939   1.499   1.329   0.892  0.2864 -0.2906 -0.2636
10108SOL    HW130940   1.575   1.294   0.845  0.5896  0.3595 -0.2734
10108SOL    HW230941   1.511   1.299   0.982  0.6079 -0.1233 -0.2460
10109SOL     OW30942   4.619   5.641   1.375 -0.2070 -0.3468 -0.8679
10109SOL    HW130943   4.625   5.615   1.467 -2.1141 -0.8783 -0.8568
10109SOL    HW230944   4.630   5.560   1.326 -1.5200 -0.4865 -0.9873
10110SOL     OW30945   3.185   4.011   4.737  0.3916 -0.1896  0.3618
10110SOL    HW130946   3.157   3.954   4.665 -0.2698 -1.1605  1.3476
10110SOL    HW230947   3.227   3.952   4.800  0.8845  0.6195  0.8130
10111SOL     OW30948   4.178   0.458   5.355  0.1141 -0.6688  0.6716
10111SOL    HW130949   4.180   0.446   5.260  2.3499  0.8504  0.4414
10111SOL    HW230950   4.107   0.522   5.369  1.7261  1.4785 -0.3983
10112SOL     OW30951   4.069   3.571   4.169  0.0922 -0.1168  0.0503
10112SOL    HW130952   4.125   3.538   4.099 -0.2263 -0.2862 -0.1289
10112SOL    HW230953   3.998   3.616   4.124 -1.3634 -2.1953  0.1591
10113SOL     OW30954   3.817   3.036   3.555 -0.0914 -0.0393 -0.0160
10113SOL    HW130955   3.756   3.109   3.555 -0.4942 -0.3641 -0.6610
10113SOL    HW230956   3.900   3.073   3.523 -0.4434  0.0277 -0.8782
10114SOL     OW30957   6.622   4.367   2.883  0.4397 -0.2569 -0.0428
10114SOL    HW130958   6.696   4.346   2.826  0.0758 -2.1144  0.1251
10114SOL    HW230959   6.638   4.317   2.963 -1.1819 -0.9931 -0.1471
10115SOL     OW30960   6.589   1.615   1.967 -0.2115 -0.0349  0.0420
10115SOL    HW130961   6.525   1.545   1.952 -1.4640  1.2378 -0.7766
10115SOL    HW230962   6.587   1.630   2.061 -0.0056 -0.9994  0.2149
10116SOL     OW30963   2.824   7.179   2.692  0.1354  0.1912  0.1906
10116SOL    HW130964   2.860   7.095   2.665 -0.0342  0.5717 -1.2930
10116SOL    HW230965   2.731   7.161   2.709  0.1450  0.0416  0.0780
10117SOL     OW30966   3.331   0.904   1.520 -0.1392  0.0249  0.1148
10117SOL    HW130967   3.254   0.959   1.530 -0.3072  0.1500 -1.5278
10117SOL    HW230968   3.306   0.820   1.558 -0.8860  0.2335  0.0992
10118SOL     OW30969   3.997   6.700   4.955 -0.1125  0.0307  0.3804
10118SOL    HW130970   4.071   6.654   4.993 -0.2238 -1.7074 -1.3310
10118SOL    HW230971   3.925   6.637   4.960 -0.8959  0.8803  0.0385
10119SOL     OW30972   0.609   2.629   3.748 -0.3905  0.2304 -0.2161
10119SOL    HW130973   0.583   2.587   3.831 -1.9779  1.4366 -0.0575
10119SOL    HW230974   0.626   2.720   3.771 -0.8635  0.5848 -1.2072
10120SOL     OW30975   5.196   0.744   6.489  0.4291 -0.0812  0.3814
10120SOL    HW130976   5.200   0.764   6.582  0.3017 -0.8357  0.5573
10120SOL    HW230977   5.180   0.828   6.446 -0.7396  0.0846  1.1353
10121SOL     OW30978   5.040   3.702   3.293  0.0089 -0.0468 -0.0391
10121SOL    HW130979   5.005   3.742   3.213 -1.3513  0.2482  0.6682
10121SOL    HW230980   5.012   3.761   3.363  0.8060 -0.5285  0.6997
10122SOL     OW30981   1.726   2.497   3.836  0.1812  0.1382  0.1962
10122SOL    HW130982   1.729   2.488   3.741 -0.9743  1.5307 -0.0069
10122SOL    HW230983   1.678   2.420   3.867  0.7395 -0.4242 -0.3116
10123SOL     OW30984   5.299   6.065   1.052  0.1725 -0.4983 -0.1554
10123SOL    HW130985   5.381   6.074   1.100  0.7776 -1.6286 -0.9486
10123SOL    HW230986   5.257   5.988   1.090 -0.5364  0.0623  0.2340
10124SOL     OW30987   3.394   2.820   6.343 -0.0434  0.2294  0.4401
10124SOL    HW130988   3.388   2.742   6.398  0.9065  0.0124  0.2466
10124SOL    HW230989   3.443   2.793   6.266  0.8213  1.1499  0.6438
10125SOL     OW30990   5.648   0.825   2.507 -1.1791  0.2524 -0.2498
10125SOL    HW130991   5.582   0.843   2.574 -0.7980  0.7006  0.0081
10125SOL    HW230992   5.634   0.733   2.484 -1.1826  0.0345  0.5866
10126SOL     OW30993   4.772   4.338   1.282  0.9849  0.1774 -0.0451
10126SOL    HW130994   4.805   4.287   1.208 -0.6323 -2.0688  0.6718
10126SOL    HW230995   4.804   4.291   1.360 -1.7363 -0.6871  0.6430
10127SOL     OW30996   3.897   3.886   1.495  0.1483  0.3122 -0.2005
10127SOL    HW130997   3.983   3.869   1.534  0.6099 -0.2460 -1.4247
10127SOL    HW230998   3.910   3.965   1.442  0.0625 -0.0872 -0.8306
10128SOL     OW30999   5.900   1.566   4.750 -0.2782 -0.6607 -0.0760
10128SOL    HW131000   5.917   1.509   4.675 -1.1087 -1.6124  0.4319
10128SOL    HW231001   5.810   1.596   4.738  0.1360  0.5331 -0.3168
10129SOL     OW31002   3.362   4.645   0.192 -0.4186 -0.1635 -0.1369
10129SOL    HW131003   3.414   4.617   0.116 -0.3966 -0.0275 -0.1729
10129SOL    HW231004   3.311   4.568   0.216 -0.4827 -0.1845 -0.3376
10130SOL     OW31005   3.329   4.416   2.909 -0.3835  0.6577 -0.1245
10130SOL    HW131006   3.269   4.416   2.834 -0.5716  1.4184  0.0199
10130SOL    HW231007   3.337   4.323   2.932 -2.2739  0.5745  0.4404
10131SOL     OW31008   5.013   3.419   3.302 -0.1136 -0.4242  0.1824
10131SOL    HW131009   4.953   3.415   3.376  1.3671  1.2285  1.5862
10131SOL    HW231010   5.035   3.512   3.295 -1.1273 -0.3311 -3.1593
10132SOL     OW31011   3.396   4.465   3.600  0.2485 -0.7658 -0.3669
10132SOL    HW131012   3.450   4.530   3.555  0.9626  0.4087  2.0088
10132SOL    HW231013   3.454   4.428   3.666 -1.6786  0.3045  2.0570
10133SOL     OW31014   6.063   6.689   6.558 -0.2708  0.6188  0.1040
10133SOL    HW131015   6.105   6.767   6.522  0.5979  0.1565  0.1111
10133SOL    HW231016   6.105   6.677   6.643  0.4079 -0.5074 -0.3795
10134SOL     OW31017   6.605   6.085   2.962 -0.0700 -0.0578 -0.0440
10134SOL    HW131018   6.574   6.156   2.905 -0.1062 -0.5176 -0.6054
10134SOL    HW231019   6.528   6.028   2.972 -0.0170 -0.0648  0.3384
10135SOL     OW31020   2.158   6.800   1.455 -0.3151  0.5595  0.0300
10135SOL    HW131021   2.065   6.779   1.454 -0.2689  0.3239  0.5049
10135SOL    HW231022   2.191   6.758   1.535  0.7506 -1.8429 -1.5503
10136SOL     OW31023   7.217   2.038   1.190  0.0215  0.2192  0.3279
10136SOL    HW131024   7.221   2.107   1.123  1.2784 -1.3253 -1.2707
10136SOL    HW231025   7.174   1.965   1.146  0.0937 -0.5481  1.4986
10137SOL     OW31026   0.892   2.422   1.917  0.5220  0.9742  0.2463
10137SOL    HW131027   0.953   2.368   1.867 -0.5072  0.4557 -0.4809
10137SOL    HW231028   0.825   2.447   1.854 -2.1466 -1.6665  1.8009
10138SOL     OW31029   6.907   5.910   6.841  0.3120 -0.1813 -0.0871
10138SOL    HW131030   6.868   5.996   6.853  2.2290  0.5602  1.4297
10138SOL    HW231031   6.956   5.917   6.759  0.3413  0.1234 -0.0431
10139SOL     OW31032   4.879   0.157   3.253  0.2438 -0.9853  0.2487
10139SOL    HW131033   4.912   0.140   3.341  1.6187  0.8191  0.1229
10139SOL    HW231034   4.921   0.090   3.198  0.9444 -0.8834  0.6529
10140SOL     OW31035   0.041   5.862   1.618  0.1027  0.1737 -0.3322
10140SOL    HW131036  -0.008   5.800   1.672  2.2084 -1.1929  0.1214
10140SOL    HW231037   0.109   5.809   1.577  0.1819  1.6849 -2.2869
10141SOL     OW31038   2.359   0.283   3.122  0.7176 -0.2805 -0.1845
10141SOL    HW131039   2.381   0.193   3.148  0.1403 -1.1779 -2.5120
10141SOL    HW231040   2.306   0.316   3.194  2.5809 -1.0477  1.6571
10142SOL     OW31041   4.569   4.102   6.436  0.1867  0.1115 -0.2103
10142SOL    HW131042   4.502   4.163   6.404 -1.4320 -2.0744 -1.1751
10142SOL    HW231043   4.526   4.055   6.507  0.3882 -1.8282 -1.3127
10143SOL     OW31044   6.647   2.313   3.175  0.4292 -0.3410  0.6799
10143SOL    HW131045   6.695   2.328   3.093 -0.9995 -1.4841 -0.4186
10143SOL    HW231046   6.661   2.393   3.227 -0.0128  1.1457 -1.3750
10144SOL     OW31047   2.853   2.491   5.660  0.2800  0.9283  0.3976
10144SOL    HW131048   2.822   2.571   5.617 -1.1228 -0.5242 -1.4677
10144SOL    HW231049   2.948   2.493   5.650  0.1934  1.9661 -0.3391
10145SOL     OW31050   2.623   5.236   0.426 -0.1072 -0.3443 -0.2215
10145SOL    HW131051   2.676   5.158   0.445 -1.1431 -0.8194  0.8749
10145SOL    HW231052   2.676   5.286   0.364  1.4640 -0.9753  0.5324
10146SOL     OW31053   4.117   5.855   2.748  0.0842 -0.2347  0.3583
10146SOL    HW131054   4.036   5.896   2.777  0.4450  0.6044  0.1829
10146SOL    HW231055   4.094   5.762   2.740 -1.2291  0.1775 -1.0180
10147SOL     OW31056   6.904   1.582   2.670 -0.8931 -0.6817 -0.5466
10147SOL    HW131057   6.857   1.528   2.607 -1.9643  0.1269 -0.4703
10147SOL    HW231058   6.838   1.641   2.706 -0.2427 -0.9106  1.1221
10148SOL     OW31059   4.997   1.775   3.067  0.4391 -0.1290 -0.1872
10148SOL    HW131060   5.030   1.688   3.042  0.0920 -0.2880 -0.1007
10148SOL    HW231061   4.936   1.799   2.997  0.3480 -0.0633 -0.0853
10149SOL     OW31062   3.869   7.077   6.992 -0.5452  0.5262 -0.0483
10149SOL    HW131063   3.944   7.019   6.983 -1.9027 -1.1292 -1.2620
10149SOL    HW231064   3.830   7.053   7.076  0.9207  2.3044  1.2513
10150SOL     OW31065   2.301   1.537   7.040 -0.2366  0.0417  0.1262
10150SOL    HW131066   2.396   1.534   7.035 -0.1453 -2.4454  1.7616
10150SOL    HW231067   2.282   1.570   7.127 -0.9531  1.6520 -0.5896
10151SOL     OW31068   3.735   1.720   5.924  0.6203  1.1736  0.1430
10151SOL    HW131069   3.817   1.752   5.887  0.2298  2.4705  0.3337
10151SOL    HW231070   3.667   1.762   5.871  0.0446 -0.8020 -0.7878
10152SOL     OW31071   0.365   0.890   7.195  0.6910 -0.3297 -0.2301
10152SOL    HW131072   0.289   0.946   7.177  0.3444 -0.1739  1.5718
10152SOL    HW231073   0.437   0.951   7.210  1.3157 -0.4802 -2.2577
10153SOL     OW31074   1.614   3.379   4.656 -0.2263  0.0382  0.2462
10153SOL    HW131075   1.657   3.460   4.630  1.4463 -0.8368  0.1448
10153SOL    HW231076   1.541   3.370   4.595 -0.4742  1.4642  0.2910
10154SOL     OW31077   4.611   0.394   1.592  0.3119  0.5217  0.3217
10154SOL    HW131078   4.655   0.410   1.675  2.1986 -1.1264 -0.2943
10154SOL    HW231079   4.519   0.383   1.615  0.0853  3.9350  1.6686
10155SOL     OW31080   5.277   6.831   4.118 -0.6141 -0.1070 -0.3934
10155SOL    HW131081   5.348   6.828   4.182 -1.3007 -0.4062  0.3758
10155SOL    HW231082   5.197   6.836   4.171 -1.1423  0.8648 -1.2460
10156SOL     OW31083   2.966   5.251   2.221 -0.1875 -0.3800  0.2490
10156SOL    HW131084   3.014   5.326   2.256  0.5908 -0.3801 -0.7904
10156SOL    HW231085   2.887   5.289   2.184 -0.5503 -0.2688  1.1053
10157SOL     OW31086   2.707   0.541   4.109  0.5980  0.1133  0.3130
10157SOL    HW131087   2.788   0.591   4.117  0.7850  0.0300 -0.8324
10157SOL    HW231088   2.736   0.450   4.103  0.3790  0.0280  0.5533
10158SOL     OW31089   1.503   7.224   2.968  0.7459  0.1304 -0.9812
10158SOL    HW131090   1.556   7.158   3.013 -0.6713  0.6667  1.7391
10158SOL    HW231091   1.563   7.298   2.957  1.2400 -0.1172 -0.1273
10159SOL     OW31092   1.720   6.954   3.586  0.0870  0.0993  0.5603
10159SOL    HW131093   1.687   6.868   3.559 -1.1701  0.4975  0.7304
10159SOL    HW231094   1.666   6.977   3.662 -0.0390  1.3010  0.1333
10160SOL     OW31095   6.979   6.197   1.866  0.2471  0.3501  0.2335
10160SOL    HW131096   6.971   6.125   1.928  0.9008  0.7864  0.8409
10160SOL    HW231097   7.048   6.169   1.806 -0.1395  0.0777 -0.0821
10161SOL     OW31098   2.421   1.719   5.477  0.2351 -0.4523 -0.3120
10161SOL    HW131099   2.360   1.765   5.420  0.0138 -1.1792 -0.6655
10161SOL    HW231100   2.502   1.714   5.426  1.0760  1.6917  0.6449
10162SOL     OW31101   1.900   6.572   1.852 -0.3748  0.3740 -0.2715
10162SOL    HW131102   1.863   6.569   1.763 -0.5669 -0.6140 -0.1591
10162SOL    HW231103   1.884   6.486   1.888  0.5808  0.4538  0.3819
10163SOL     OW31104   2.342   0.912   6.047 -0.2453 -0.4619 -0.4801
10163SOL    HW131105   2.290   0.992   6.056 -0.3919 -0.6313  0.2065
10163SOL    HW231106   2.282   0.850   6.004  0.0047 -0.0854 -1.4030
10164SOL     OW31107   0.702   4.630   2.103 -0.1445  0.1376 -0.2680
10164SOL    HW131108   0.790   4.629   2.141 -0.7880  2.0951  1.4646
10164SOL    HW231109   0.649   4.579   2.165 -1.1444  3.1171  1.5634
10165SOL     OW31110   4.301   7.246   4.348  0.2978 -0.0488  0.6508
10165SOL    HW131111   4.238   7.297   4.399 -0.9095 -0.1617 -0.6575
10165SOL    HW231112   4.274   7.155   4.362 -0.4590 -0.0501 -0.6539
10166SOL     OW31113   6.377   1.414   6.749  0.1900  0.3606 -0.1295
10166SOL    HW131114   6.422   1.362   6.683  0.0081 -0.9283  0.7243
10166SOL    HW231115   6.291   1.432   6.711  0.7229  1.2141 -0.9807
10167SOL     OW31116   6.718   6.689   1.695  0.0819  0.3705 -0.1530
10167SOL    HW131117   6.743   6.758   1.632 -1.5915 -0.6641 -2.0881
10167SOL    HW231118   6.739   6.607   1.650 -0.1192 -0.4032  1.1318
10168SOL     OW31119   3.056   5.154   2.658 -0.2519  0.5503  0.3434
10168SOL    HW131120   3.027   5.074   2.614 -0.7454  0.9481 -0.0678
10168SOL    HW231121   3.084   5.125   2.744 -0.1568 -0.1088  0.0964
10169SOL     OW31122   1.509   6.609   6.319 -0.2576  0.2388  0.4927
10169SOL    HW131123   1.498   6.521   6.355 -0.0674 -0.2625 -0.6434
10169SOL    HW231124   1.603   6.622   6.315 -0.2626  0.0693 -0.3194
10170SOL     OW31125   6.185   5.135   5.259  0.2448  0.4435 -0.2169
10170SOL    HW131126   6.227   5.203   5.310  0.3332  1.7903 -2.0016
10170SOL    HW231127   6.097   5.127   5.297 -0.5347  3.0977 -1.2196
10171SOL     OW31128   6.818   1.255   2.762 -0.0195 -0.5441  0.0870
10171SOL    HW131129   6.730   1.282   2.786  0.2556 -0.9650  1.6381
10171SOL    HW231130   6.875   1.321   2.801  0.3974 -0.5947 -0.4205
10172SOL     OW31131   0.107   1.190   0.244  0.4968  0.4000 -0.5405
10172SOL    HW131132   0.070   1.168   0.329  1.0439 -0.3838 -0.4950
10172SOL    HW231133   0.131   1.282   0.251 -0.7301  0.7142 -0.3207
10173SOL     OW31134   6.024   5.180   6.695 -0.4658  0.2216 -0.0919
10173SOL    HW131135   6.104   5.138   6.664 -0.2179 -0.9325  1.9088
10173SOL    HW231136   5.962   5.169   6.623  0.5324 -0.8188 -0.8382
10174SOL     OW31137   2.424   2.025   6.632 -0.0098  0.1404  0.8007
10174SOL    HW131138   2.456   1.957   6.573 -2.1413 -0.2497  0.0202
10174SOL    HW231139   2.422   1.984   6.718  0.4183 -0.1943  0.6535
10175SOL     OW31140   5.397   0.212   4.890 -0.4325 -0.1367  0.1656
10175SOL    HW131141   5.371   0.234   4.980 -1.0468  0.6697 -0.1965
10175SOL    HW231142   5.409   0.296   4.847 -0.8847 -0.5091 -0.7204
10176SOL     OW31143   6.434   3.932   4.889  0.7033  0.2677  0.1914
10176SOL    HW131144   6.351   3.946   4.843  0.3095 -1.9534  0.1132
10176SOL    HW231145   6.410   3.935   4.982 -0.1099 -3.0242  0.2164
10177SOL     OW31146   1.527   1.543   2.872  0.2917 -0.1562 -0.3097
10177SOL    HW131147   1.455   1.483   2.889 -0.4034  0.6255 -0.4295
10177SOL    HW231148   1.592   1.522   2.939 -0.2828 -0.4924  0.1485
10178SOL     OW31149   6.537   1.513   1.174 -0.2961 -1.3768 -0.2003
10178SOL    HW131150   6.559   1.441   1.234 -0.7581 -2.2273 -1.0265
10178SOL    HW231151   6.622   1.541   1.139  0.0117 -0.6718  1.0405
10179SOL     OW31152   1.922   1.709   2.371  0.1888  0.1547 -0.2301
10179SOL    HW131153   1.913   1.736   2.279  1.3019 -0.1011 -0.4342
10179SOL    HW231154   1.875   1.626   2.376 -2.4081  1.5617  0.1647
10180SOL     OW31155   3.059   2.589   3.633  0.4817 -0.0892  0.1917
10180SOL    HW131156   2.998   2.534   3.584  0.2535 -0.0078  0.3790
10180SOL    HW231157   3.143   2.544   3.626 -0.0948 -1.6123  2.0616
10181SOL     OW31158   5.293   6.833   3.412 -0.3403 -1.4273  0.0870
10181SOL    HW131159   5.326   6.915   3.374 -1.7668  0.3578  2.4331
10181SOL    HW231160   5.237   6.796   3.343  1.4608 -1.2510 -1.5553
10182SOL     OW31161   3.421   4.336   5.882  0.0649 -0.2945  0.4155
10182SOL    HW131162   3.350   4.366   5.825 -0.1689  0.2186  0.9690
10182SOL    HW231163   3.432   4.406   5.946  0.6676 -0.6409  0.7003
10183SOL     OW31164   7.215   4.284   3.786 -0.3694 -1.0777 -0.8209
10183SOL    HW131165   7.203   4.229   3.710 -2.5555 -1.7925 -0.0289
10183SOL    HW231166   7.228   4.223   3.859 -0.4790 -0.4922 -0.2939
10184SOL     OW31167   0.437   4.321   1.175  0.0009 -0.8791  0.1102
10184SOL    HW131168   0.368   4.300   1.111 -0.5465  0.8899  0.0741
10184SOL    HW231169   0.518   4.312   1.125 -0.3757 -0.2153 -0.6507
10185SOL     OW31170   3.627   6.930   1.352 -0.0961 -0.4086  0.4450
10185SOL    HW131171   3.535   6.923   1.329 -0.3857  0.7820  1.1472
10185SOL    HW231172   3.627   6.950   1.445  0.8490  0.1105  0.3469
10186SOL     OW31173   6.186   5.793   1.179  0.3668 -0.1350  0.0963
10186SOL    HW131174   6.142   5.724   1.130 -0.8883 -1.4336  2.8792
10186SOL    HW231175   6.267   5.809   1.130 -0.2655 -2.1120 -1.7234
10187SOL     OW31176   5.361   0.153   4.317  0.4464 -0.9103 -0.0296
10187SOL    HW131177   5.425   0.223   4.309  0.7575 -0.9874  1.5156
10187SOL    HW231178   5.300   0.184   4.384 -2.2540 -0.0391 -2.6810
10188SOL     OW31179   3.970   0.938   6.017 -0.4576  0.4949 -0.5853
10188SOL    HW131180   3.909   0.878   5.974 -1.1643  1.1145 -0.4855
10188SOL    HW231181   3.996   0.999   5.948 -0.1924  0.4194 -0.5523
10189SOL     OW31182   5.205   1.092   0.989 -1.0430 -0.4453 -0.0118
10189SOL    HW131183   5.160   1.094   1.074 -2.2881  2.9093 -0.5668
10189SOL    HW231184   5.297   1.106   1.010 -1.2030 -0.6415  0.8510
10190SOL     OW31185   3.174   1.685   1.618 -0.1550 -0.0684 -0.1686
10190SOL    HW131186   3.093   1.728   1.645  0.6492  0.8014  0.9654
10190SOL    HW231187   3.244   1.738   1.656  0.9580 -0.8740 -0.9999
10191SOL     OW31188   5.717   5.144   1.145  0.5518 -0.4083 -0.0927
10191SOL    HW131189   5.691   5.234   1.126  0.7670 -0.5663 -1.1776
10191SOL    HW231190   5.635   5.094   1.140  0.3129 -0.1855  1.2005
10192SOL     OW31191   3.967   3.295   5.745  0.3866  0.2265 -0.1884
10192SOL    HW131192   3.876   3.281   5.721 -0.1908  1.0675  1.3156
10192SOL    HW231193   3.982   3.237   5.820  0.6333  1.1156  0.4753
10193SOL     OW31194   6.387   7.037   0.514 -0.1413  0.1084  0.1585
10193SOL    HW131195   6.336   7.087   0.578  0.3926  3.3798 -1.7324
10193SOL    HW231196   6.476   7.072   0.521 -0.1340  0.8573 -2.4759
10194SOL     OW31197   5.940   5.107   1.393 -0.3510 -0.0642  0.1079
10194SOL    HW131198   5.931   5.031   1.336  0.8534  0.1579 -0.4032
10194SOL    HW231199   5.906   5.078   1.478 -0.9438 -0.8031 -0.3732
10195SOL     OW31200   1.884   4.001   6.351  0.0460  0.5309  0.1167
10195SOL    HW131201   1.930   4.062   6.295 -0.6896  0.8244 -0.1814
10195SOL    HW231202   1.794   4.032   6.352 -0.0194  0.3583  1.2225
10196SOL     OW31203   1.626   1.151   7.089 -0.7936  0.4871 -0.1250
10196SOL    HW131204   1.697   1.089   7.076 -0.5911 -0.0253  2.7286
10196SOL    HW231205   1.663   1.218   7.147 -1.8913  1.6518 -0.7209
10197SOL     OW31206   5.677   3.867   6.703  0.2797  0.1840 -0.0198
10197SOL    HW131207   5.598   3.848   6.754  0.0210  0.9689 -0.1108
10197SOL    HW231208   5.685   3.794   6.643  0.5627 -0.7428  1.1104
10198SOL     OW31209   5.872   1.423   6.197 -0.2216 -0.1460 -0.5342
10198SOL    HW131210   5.918   1.356   6.147  0.8092 -0.3462  0.6256
10198SOL    HW231211   5.933   1.497   6.201 -1.8150  1.3915 -2.8247
10199SOL     OW31212   4.264   5.755   7.103 -0.3752  0.2030  0.1774
10199SOL    HW131213   4.215   5.830   7.136 -0.4875  0.7714 -1.1838
10199SOL    HW231214   4.212   5.725   7.028  0.6855  0.0250 -0.5049
10200SOL     OW31215   2.785   0.739   4.370 -0.5932  0.1655  0.5133
10200SOL    HW131216   2.722   0.811   4.377 -1.4519 -0.5779  0.5549
10200SOL    HW231217   2.814   0.741   4.279  0.1681  1.1944  0.7604
10201SOL     OW31218   5.393   3.954   4.183  0.0062  0.0608 -0.1604
10201SOL    HW131219   5.396   3.858   4.176 -0.1433  0.0327  0.1647
10201SOL    HW231220   5.324   3.980   4.122 -0.0504 -0.0488 -0.1447
10202SOL     OW31221   5.433   1.296   6.763 -1.1251  0.0895  0.2389
10202SOL    HW131222   5.446   1.349   6.841  1.4913  1.5792 -1.0616
10202SOL    HW231223   5.461   1.353   6.691 -0.9873 -2.0812 -1.5242
10203SOL     OW31224   6.114   5.891   4.327  0.0484 -0.0508  0.3795
10203SOL    HW131225   6.139   5.971   4.373  0.1394 -0.1341  0.4749
10203SOL    HW231226   6.068   5.839   4.393  0.5159 -0.3381  0.4865
10204SOL     OW31227   4.060   6.040   5.269  0.0282  0.1125  0.2833
10204SOL    HW131228   4.085   6.036   5.177  1.6029 -1.0364  0.7227
10204SOL    HW231229   3.980   5.987   5.274  0.4265 -0.5621 -0.2805
10205SOL     OW31230   4.383   1.796   0.249 -0.0327  0.6963 -0.2512
10205SOL    HW131231   4.404   1.836   0.333 -0.2651  0.2913  0.0073
10205SOL    HW231232   4.412   1.705   0.258 -1.3053  0.2719 -0.0902
10206SOL     OW31233   0.851   0.617   3.376  0.1087 -0.7264  0.1129
10206SOL    HW131234   0.907   0.638   3.451 -2.0292  2.3060  1.0494
10206SOL    HW231235   0.762   0.638   3.405 -1.5119 -4.2842 -1.6771
10207SOL     OW31236   2.183   0.218   1.331 -0.1598 -0.0737 -0.3506
10207SOL    HW131237   2.124   0.160   1.378 -0.6648  0.8559  0.2051
10207SOL    HW231238   2.126   0.261   1.266  0.4699 -1.1460 -1.6647
10208SOL     OW31239   5.854   6.515   5.361  0.8753  0.6261 -0.0881
10208SOL    HW131240   5.779   6.485   5.412  1.2344 -0.4413 -0.1758
10208SOL    HW231241   5.893   6.435   5.326  0.8371  1.3176 -1.7720
10209SOL     OW31242   0.028   3.229   5.990 -0.1422  0.0577  0.2435
10209SOL    HW131243   0.100   3.225   5.927 -0.0804 -0.2425  0.3337
10209SOL    HW231244  -0.050   3.247   5.937  0.1309  1.3258  0.2413
10210SOL     OW31245   5.000   1.413   4.355  0.3049 -0.6567  0.1537
10210SOL    HW131246   4.908   1.440   4.352  0.3063 -0.6662 -0.0023
10210SOL    HW231247   5.047   1.489   4.320  0.3017 -0.8957 -0.3766
10211SOL     OW31248   4.017   5.931   5.782 -0.3419  0.4213 -0.9184
10211SOL    HW131249   4.023   6.020   5.747 -0.4117  0.4950 -0.7424
10211SOL    HW231250   3.936   5.896   5.745  0.2190  0.0645 -1.8237
10212SOL     OW31251   1.150   0.524   2.433  0.4421 -0.1706 -0.2049
10212SOL    HW131252   1.241   0.501   2.411  0.5095 -1.0561  0.9057
10212SOL    HW231253   1.154   0.616   2.458  1.1705 -0.3671  0.4510
10213SOL     OW31254   3.944   5.234   5.782 -0.0090 -0.0090  0.3778
10213SOL    HW131255   3.920   5.143   5.763  0.6012  0.4665 -3.3174
10213SOL    HW231256   4.035   5.229   5.811  0.5907 -0.4923 -1.4825
10214SOL     OW31257   0.239   0.740   2.666 -0.6434 -0.1594  0.0129
10214SOL    HW131258   0.148   0.720   2.642 -0.8943 -0.5578  1.2442
10214SOL    HW231259   0.262   0.674   2.731  0.6059 -0.1727 -0.4201
10215SOL     OW31260   2.848   6.032   5.196  0.4107  0.0092 -0.4939
10215SOL    HW131261   2.794   6.057   5.122 -0.0273  2.1737  0.4786
10215SOL    HW231262   2.936   6.061   5.173  0.3035  0.5441 -0.2327
10216SOL     OW31263   4.299   5.555   1.891  0.2471 -0.2910  0.5103
10216SOL    HW131264   4.344   5.628   1.849 -0.0143 -0.4138  0.0145
10216SOL    HW231265   4.357   5.528   1.962  0.6364 -0.0141  0.2954
10217SOL     OW31266   5.141   6.571   2.819  0.2782 -0.2208 -0.0039
10217SOL    HW131267   5.080   6.517   2.769 -0.6805  1.7841 -1.1254
10217SOL    HW231268   5.228   6.545   2.788 -0.1671 -1.0020 -0.6171
10218SOL     OW31269   5.161   1.210   5.776  0.0204 -0.0515 -0.0123
10218SOL    HW131270   5.130   1.231   5.864 -2.1543  3.1391 -1.3553
10218SOL    HW231271   5.240   1.263   5.766  0.4538 -0.6666  0.0990
10219SOL     OW31272   1.018   4.492   4.506  0.0405  0.3268  0.3466
10219SOL    HW131273   0.989   4.570   4.459  0.4561 -0.6250 -1.5674
10219SOL    HW231274   1.097   4.520   4.553 -0.7372  1.4590  1.0229
10220SOL     OW31275   4.078   6.740   1.303 -0.0571  0.9570 -0.5355
10220SOL    HW131276   4.043   6.698   1.224 -1.4530 -2.2741  1.5789
10220SOL    HW231277   4.005   6.740   1.364  2.0472 -0.9949  2.2454
10221SOL     OW31278   2.384   0.558   1.292 -0.1233 -0.6511  0.4188
10221SOL    HW131279   2.367   0.552   1.386 -0.0582 -0.5660  0.4364
10221SOL    HW231280   2.386   0.652   1.274  0.1704 -0.6616  0.3910
10222SOL     OW31281   5.389   7.017   1.765 -0.2662 -0.0528  0.8056
10222SOL    HW131282   5.409   7.110   1.757  1.6578 -0.3785  1.3243
10222SOL    HW231283   5.404   6.997   1.858  0.3859 -1.0709  0.5034
10223SOL     OW31284   6.856   4.838   1.462  0.1214 -0.4974 -0.7693
10223SOL    HW131285   6.942   4.819   1.501 -0.0032  0.5806  0.0781
10223SOL    HW231286   6.818   4.904   1.520 -0.6630  0.1304 -1.9694
10224SOL     OW31287   6.523   5.460   5.938 -0.1693 -0.4543 -0.1767
10224SOL    HW131288   6.526   5.556   5.939 -0.1885 -0.4516  1.2691
10224SOL    HW231289   6.572   5.434   6.016 -1.3882 -1.5877  0.2327
10225SOL     OW31290   5.350   7.070   0.349 -0.6297  0.7610  0.3098
10225SOL    HW131291   5.436   7.087   0.309 -0.5929  0.1175  0.1063
10225SOL    HW231292   5.358   7.104   0.438  0.5964 -1.2243  1.0359
10226SOL     OW31293   2.212   6.150   6.081 -0.1107 -0.5942 -0.1729
10226SOL    HW131294   2.282   6.117   6.137  0.3222 -0.0667 -0.3898
10226SOL    HW231295   2.251   6.225   6.036 -0.6423 -0.6365 -0.7187
10227SOL     OW31296   5.476   4.420   1.021  0.6123  0.0214  0.3056
10227SOL    HW131297   5.451   4.497   1.072 -0.1770  0.7610 -1.1218
10227SOL    HW231298   5.441   4.346   1.071 -0.1003  0.7117  0.8592
10228SOL     OW31299   5.526   3.191   7.086 -0.3590  0.1590  0.1378
10228SOL    HW131300   5.616   3.178   7.057 -0.8203 -0.0041 -1.3104
10228SOL    HW231301   5.519   3.141   7.167  0.8798  0.2670  0.3181
10229SOL     OW31302   7.164   3.609   2.753  0.3664 -0.4841  0.1217
10229SOL    HW131303   7.122   3.695   2.754 -1.3593 -1.2900  0.1320
10229SOL    HW231304   7.127   3.566   2.676  0.9105 -1.3609  0.3397
10230SOL     OW31305   2.623   2.946   1.493 -0.4177  0.0842  0.3890
10230SOL    HW131306   2.635   2.882   1.563  0.2747 -0.2097  0.0109
10230SOL    HW231307   2.528   2.957   1.486 -0.5346 -0.7970  0.5565
10231SOL     OW31308   4.612   2.966   6.941  0.0245  0.2665 -0.3768
10231SOL    HW131309   4.565   2.994   6.862 -0.5696  1.6450  0.4307
10231SOL    HW231310   4.681   3.031   6.952 -0.5718  0.7174  0.8264
10232SOL     OW31311   3.974   4.728   2.722 -0.0712 -0.3491 -0.5766
10232SOL    HW131312   4.020   4.687   2.649 -0.9157 -1.4169 -0.5320
10232SOL    HW231313   3.994   4.821   2.714  0.9667 -0.6200 -1.3511
10233SOL     OW31314   4.241   0.533   0.579 -0.4890  0.0376 -0.6314
10233SOL    HW131315   4.244   0.629   0.574  0.3579 -0.0337 -2.5705
10233SOL    HW231316   4.155   0.513   0.615  0.0149  1.5304  1.6620
10234SOL     OW31317   3.678   0.898   6.325 -0.2395  0.0713 -0.3618
10234SOL    HW131318   3.594   0.917   6.283 -1.1788 -0.4942  1.1843
10234SOL    HW231319   3.655   0.878   6.416  1.6503  0.6044  0.2664
10235SOL     OW31320   1.905   6.553   5.186 -0.1142 -0.3262  0.1875
10235SOL    HW131321   1.973   6.488   5.204 -0.1882 -0.7662 -1.0213
10235SOL    HW231322   1.949   6.621   5.135 -0.1367  0.3899  1.0933
10236SOL     OW31323   5.800   0.267   4.323 -0.2385 -0.2539 -0.0411
10236SOL    HW131324   5.735   0.336   4.309  0.2170 -0.2694 -2.7751
10236SOL    HW231325   5.753   0.199   4.370 -1.7066  0.4523 -0.4299
10237SOL     OW31326   7.216   2.505   2.178  0.5451 -0.4669  0.2925
10237SOL    HW131327   7.185   2.569   2.242  0.0101 -1.0829  0.6591
10237SOL    HW231328   7.156   2.431   2.187  0.3160 -0.4755 -1.0838
10238SOL     OW31329   4.571   6.328   1.335  0.1242 -0.0351  0.0516
10238SOL    HW131330   4.655   6.364   1.365 -0.4505  0.6251  0.9318
10238SOL    HW231331   4.549   6.262   1.401 -0.1840 -0.0029 -0.0208
10239SOL     OW31332   0.327   6.153   2.581  0.0350 -0.2493  0.3923
10239SOL    HW131333   0.405   6.140   2.635 -0.0529  1.0470  0.8685
10239SOL    HW231334   0.335   6.243   2.549 -0.1291 -0.8505 -1.4377
10240SOL     OW31335   7.136   4.806   1.486 -0.0061 -0.1027  0.9470
10240SOL    HW131336   7.154   4.869   1.416  0.2809 -1.2653 -0.0640
10240SOL    HW231337   7.166   4.722   1.450 -4.3777 -1.6823  0.3867
10241SOL     OW31338   5.732   3.445   1.350  0.1710 -0.4076 -0.0546
10241SOL    HW131339   5.827   3.457   1.358  0.0931  0.0424  0.1997
10241SOL    HW231340   5.700   3.530   1.317 -0.0300 -0.8494 -1.0513
10242SOL     OW31341   4.588   5.764   2.943  0.0503 -0.6181 -0.2560
10242SOL    HW131342   4.626   5.807   2.866  0.0787  0.0636  0.1252
10242SOL    HW231343   4.647   5.787   3.015 -0.1122 -1.0433  0.0139
10243SOL     OW31344   0.793   5.778   3.720  0.1368  0.3201  0.0360
10243SOL    HW131345   0.811   5.690   3.688  2.5330  0.4401  0.8527
10243SOL    HW231346   0.702   5.775   3.748  0.0206 -1.7591 -0.3901
10244SOL     OW31347   2.341   0.315   7.140 -0.1681  0.1808  0.2589
10244SOL    HW131348   2.375   0.405   7.146 -1.2898  0.5490  1.6854
10244SOL    HW231349   2.272   0.321   7.073 -0.7071  0.5665  0.8316
10245SOL     OW31350   7.092   0.837   6.471  0.4965 -0.1406  0.1240
10245SOL    HW131351   7.108   0.911   6.529 -2.5382  0.9590 -0.2778
10245SOL    HW231352   7.073   0.764   6.530  1.5892 -0.1603  0.4872
10246SOL     OW31353   0.503   4.722   0.309 -0.6446 -0.0022  0.2308
10246SOL    HW131354   0.559   4.799   0.297  1.0193 -1.2507 -0.5994
10246SOL    HW231355   0.418   4.748   0.274 -0.3828  1.7316  0.7936
10247SOL     OW31356   4.320   4.191   2.380  0.0201  0.8091 -0.1257
10247SOL    HW131357   4.280   4.168   2.464 -0.6200  0.3039 -0.5575
10247SOL    HW231358   4.249   4.183   2.317  0.5159  1.1134 -0.7281
10248SOL     OW31359   6.358   0.935   4.141 -0.0443 -0.0651 -0.0272
10248SOL    HW131360   6.273   0.979   4.138 -1.0890 -2.0061 -1.1482
10248SOL    HW231361   6.353   0.878   4.217  0.1018 -0.4385 -0.2941
10249SOL     OW31362   1.142   1.958   3.899  0.4608 -0.2019  0.1895
10249SOL    HW131363   1.108   1.869   3.914  1.8517 -0.6765  0.7167
10249SOL    HW231364   1.229   1.944   3.860  0.2319  0.9599 -0.7914
10250SOL     OW31365   3.104   2.554   5.155  0.0098 -0.6655 -0.1360
10250SOL    HW131366   3.099   2.511   5.070  0.9391  0.7365 -0.9443
10250SOL    HW231367   3.045   2.504   5.211 -1.8220 -0.7312 -1.9973
10251SOL     OW31368   5.474   7.119   4.511 -0.6716  0.3024  0.1645
10251SOL    HW131369   5.441   7.034   4.538  0.3334 -0.5195 -1.0627
10251SOL    HW231370   5.466   7.174   4.589 -1.5265 -0.8459  0.9185
10252SOL     OW31371   5.526   1.036   3.362 -0.2971  0.7140 -0.0321
10252SOL    HW131372   5.514   1.096   3.288  1.3425 -0.8570 -1.6636
10252SOL    HW231373   5.616   1.050   3.390 -0.7458  0.9257  1.3945
10253SOL     OW31374   5.791   2.114   2.615 -0.2369  0.2442 -0.1993
10253SOL    HW131375   5.844   2.055   2.563 -0.1149 -0.6183  0.8727
10253SOL    HW231376   5.712   2.064   2.635  0.0629  0.2658  1.0949
10254SOL     OW31377   3.235   0.033   4.452 -0.2930 -0.3984  0.5517
10254SOL    HW131378   3.294   0.095   4.408 -1.9408 -0.6203 -2.1976
10254SOL    HW231379   3.207   0.079   4.531  0.1405  1.5213 -0.3451
10255SOL     OW31380   3.501   0.411   2.996 -0.3170 -0.8275  0.4293
10255SOL    HW131381   3.501   0.448   2.908  0.4189 -1.7112  0.0417
10255SOL    HW231382   3.497   0.487   3.054 -2.2811 -0.2621 -0.3580
10256SOL     OW31383   0.572   5.332   4.061  0.2854 -0.0337 -0.1440
10256SOL    HW131384   0.505   5.265   4.074  0.7128 -0.5432 -0.5374
10256SOL    HW231385   0.543   5.405   4.115  0.0465 -0.6989  0.6437
10257SOL     OW31386   3.055   7.219   1.412 -0.1759  0.0672 -0.9228
10257SOL    HW131387   2.973   7.248   1.372 -0.1972  0.9084 -0.2946
10257SOL    HW231388   3.075   7.136   1.368 -1.4279 -0.2192 -0.9816
10258SOL     OW31389   5.939   4.378   0.107 -0.2333 -0.8694  0.3573
10258SOL    HW131390   5.908   4.294   0.142  1.0577 -1.2387  0.6726
10258SOL    HW231391   5.874   4.442   0.136 -2.1858 -1.9724 -1.3639
10259SOL     OW31392   3.852   2.332   4.379  0.0527  0.3285  0.3138
10259SOL    HW131393   3.760   2.352   4.396  0.8649  2.4441  2.9499
10259SOL    HW231394   3.861   2.240   4.406 -0.8385  0.8128  2.4869
10260SOL     OW31395   4.229   0.048   3.891 -0.1949 -0.0032 -0.6812
10260SOL    HW131396   4.253  -0.042   3.866  0.9166  0.1218 -0.1601
10260SOL    HW231397   4.296   0.072   3.956 -1.5967  0.5024  0.6410
10261SOL     OW31398   6.979   0.219   0.818 -0.2365  0.4613 -0.2810
10261SOL    HW131399   6.908   0.180   0.870 -0.0806  0.3643 -0.1417
10261SOL    HW231400   6.937   0.245   0.736 -0.8332  1.9698  0.4571
10262SOL     OW31401   6.091   6.852   2.291  0.0366 -0.1389 -0.3680
10262SOL    HW131402   6.182   6.875   2.272  0.2310 -2.0306 -2.0365
10262SOL    HW231403   6.074   6.774   2.238 -2.7829  0.5515 -0.6545
10263SOL     OW31404   0.843   3.719   7.116  0.2331  0.0751 -0.6266
10263SOL    HW131405   0.802   3.653   7.060  0.6906 -0.5068 -0.2926
10263SOL    HW231406   0.922   3.745   7.068  1.2408 -1.2662  0.2419
10264SOL     OW31407   6.934   2.500   3.703 -0.0502  0.7432  0.6695
10264SOL    HW131408   6.877   2.577   3.699 -0.7978  0.1551 -1.9877
10264SOL    HW231409   6.877   2.428   3.730 -0.2728  0.4447 -0.5238
10265SOL     OW31410   5.690   1.262   1.544  0.0073 -0.0498 -0.5852
10265SOL    HW131411   5.632   1.254   1.468  0.6846  1.9122 -1.3587
10265SOL    HW231412   5.725   1.351   1.539  1.2938 -0.4002  1.1672
10266SOL     OW31413   2.971   0.698   2.118 -0.2724 -0.1336  0.3909
10266SOL    HW131414   3.066   0.686   2.124  0.2795  3.0981 -0.2077
10266SOL    HW231415   2.956   0.787   2.149 -3.3705 -1.0937  2.0812
10267SOL     OW31416   6.838   3.177   0.577  0.4680  0.0056 -0.5851
10267SOL    HW131417   6.765   3.199   0.520 -0.5904  0.0730  0.7432
10267SOL    HW231418   6.826   3.085   0.598  0.0988  0.2748  0.5034
10268SOL     OW31419   2.913   2.437   3.983 -0.1609 -0.0914  0.3858
10268SOL    HW131420   2.894   2.506   3.920 -0.0861 -0.0060  0.4566
10268SOL    HW231421   2.922   2.483   4.067  1.2284 -0.0084  0.2227
10269SOL     OW31422   7.221   2.294   4.002 -0.1467  0.5242 -0.0736
10269SOL    HW131423   7.193   2.287   3.910  0.9095  1.6713 -0.5049
10269SOL    HW231424   7.205   2.207   4.038 -1.2579  0.2502 -1.1455
10270SOL     OW31425   5.344   5.898   2.715 -0.1181 -0.0325 -0.2663
10270SOL    HW131426   5.351   5.830   2.783 -3.1793  0.5826  0.8140
10270SOL    HW231427   5.404   5.869   2.647 -0.2368 -3.0879  0.7504
10271SOL     OW31428   4.489   3.665   0.311 -0.3002 -0.3622 -0.3758
10271SOL    HW131429   4.434   3.652   0.234 -1.0978  0.3562  0.0457
10271SOL    HW231430   4.552   3.732   0.284 -1.4027  0.8605 -0.0379
10272SOL     OW31431   3.169   6.153   5.590 -0.2008  0.1862 -0.4000
10272SOL    HW131432   3.074   6.151   5.603 -0.0286 -1.4934  0.9954
10272SOL    HW231433   3.191   6.065   5.560  1.3278 -0.7991  3.1394
10273SOL     OW31434   1.066   6.637   6.556 -0.0267  0.2716 -0.4012
10273SOL    HW131435   1.074   6.569   6.624 -0.0506 -0.9717 -1.5876
10273SOL    HW231436   1.156   6.662   6.536 -0.0296  0.8394  0.2615
10274SOL     OW31437   4.338   4.110   6.888 -0.2432 -0.4907 -0.4894
10274SOL    HW131438   4.248   4.136   6.870  0.2822 -0.0627 -2.7669
10274SOL    HW231439   4.364   4.165   6.962 -1.9824 -1.0260  0.6008
10275SOL     OW31440   2.748   6.622   1.266 -0.1374  0.3883 -0.0398
10275SOL    HW131441   2.841   6.604   1.281  0.1532  3.1558  2.4082
10275SOL    HW231442   2.703   6.575   1.336 -0.1149  2.2124  1.2767
10276SOL     OW31443   4.207   1.201   1.688  0.2180  0.4912  0.3506
10276SOL    HW131444   4.199   1.203   1.783 -1.5995  0.3535  0.2377
10276SOL    HW231445   4.143   1.266   1.658 -0.7710 -0.9456 -0.8154
10277SOL     OW31446   0.358   1.297   1.116 -0.5011 -0.2860 -0.3854
10277SOL    HW131447   0.390   1.357   1.048 -1.3174  0.0763 -0.4614
10277SOL    HW231448   0.264   1.314   1.120 -0.5352 -0.6557  0.4980
10278SOL     OW31449   3.198   5.860   5.789  0.2558  0.1625 -0.1501
10278SOL    HW131450   3.117   5.814   5.769 -0.6916  1.7832 -0.2454
10278SOL    HW231451   3.259   5.834   5.720 -0.8067  0.3976 -1.2137
10279SOL     OW31452   5.896   5.987   1.036 -0.2051  0.1211 -0.4754
10279SOL    HW131453   5.878   5.989   0.942  2.5324 -0.4485 -1.1022
10279SOL    HW231454   5.883   6.077   1.066  1.0159  0.7889 -1.8730
10280SOL     OW31455   1.124   2.886   1.868  0.2424 -0.1246 -0.0899
10280SOL    HW131456   1.187   2.842   1.811  0.6267  0.5609 -0.2043
10280SOL    HW231457   1.177   2.920   1.940 -0.0542  0.1305  0.0059
10281SOL     OW31458   4.149   0.565   5.941 -0.0686  0.0679  0.3483
10281SOL    HW131459   4.053   0.570   5.933 -0.0065  0.1703 -0.3835
10281SOL    HW231460   4.177   0.517   5.863  0.4047 -0.8311  1.0551
10282SOL     OW31461   1.070   5.122   2.064 -0.0112 -0.2676  0.8099
10282SOL    HW131462   1.120   5.061   2.119 -1.0268  0.1094  2.2219
10282SOL    HW231463   1.122   5.202   2.065  0.6100 -0.6524  0.1476
10283SOL     OW31464   6.197   3.034   1.446 -0.0031  0.4573  0.1685
10283SOL    HW131465   6.130   3.072   1.389 -0.7600 -1.8886 -0.6595
10283SOL    HW231466   6.266   3.007   1.386  1.9947  3.2038  1.0563
10284SOL     OW31467   1.441   3.049   2.334 -0.0749 -0.4444  0.1336
10284SOL    HW131468   1.421   2.977   2.393  1.4812  0.4615  1.8853
10284SOL    HW231469   1.502   3.012   2.271  1.3070 -0.5456  1.4688
10285SOL     OW31470   6.789   6.402   4.669 -0.0884  0.9200  0.3295
10285SOL    HW131471   6.745   6.380   4.587  0.4543  1.1957 -0.0434
10285SOL    HW231472   6.841   6.323   4.689 -0.2858  0.8214  0.4515
10286SOL     OW31473   5.529   0.248   4.563  0.0363  0.1120 -0.0468
10286SOL    HW131474   5.585   0.174   4.539 -0.5912 -0.1034 -0.9238
10286SOL    HW231475   5.538   0.309   4.489  1.0923  1.2525  0.9756
10287SOL     OW31476   6.417   2.966   1.253 -0.3035 -0.0239  0.0646
10287SOL    HW131477   6.426   2.874   1.226 -0.4019  0.2419 -0.9158
10287SOL    HW231478   6.507   2.995   1.268 -0.3158 -0.4707  1.0693
10288SOL     OW31479   2.237   6.928   0.324 -0.1329  0.0221  0.3835
10288SOL    HW131480   2.314   6.983   0.339 -0.4332 -0.0242  2.4680
10288SOL    HW231481   2.178   6.982   0.271  0.8838  0.4566 -0.3274
10289SOL     OW31482   0.901   3.447   3.089 -0.1823  0.5816 -0.1161
10289SOL    HW131483   0.878   3.361   3.056  1.1759  0.1448  0.0126
10289SOL    HW231484   0.881   3.507   3.017 -1.5752  0.2391 -0.0383
10290SOL     OW31485   3.701   6.979   3.858 -0.3827  0.1721 -0.7043
10290SOL    HW131486   3.684   6.931   3.777 -0.7156  1.1617 -1.2443
10290SOL    HW231487   3.642   6.939   3.923 -1.3666  0.4694 -1.3844
10291SOL     OW31488   5.866   1.457   0.587  0.1121  0.0414  0.2139
10291SOL    HW131489   5.890   1.532   0.534  0.5531 -0.4048 -0.2332
10291SOL    HW231490   5.771   1.453   0.582  0.1807 -0.4566 -1.2245
10292SOL     OW31491   3.956   6.623   3.285 -0.5302  0.3953  0.5528
10292SOL    HW131492   4.028   6.673   3.246 -0.6191  0.3248  0.2991
10292SOL    HW231493   3.877   6.671   3.262 -0.5067  0.9739  1.5893
10293SOL     OW31494   0.230   0.659   2.008 -0.3520  0.5237  0.4798
10293SOL    HW131495   0.194   0.738   2.049 -1.4594  0.0705  0.4151
10293SOL    HW231496   0.245   0.684   1.917  2.2209  1.5705  1.0869
10294SOL     OW31497   6.159   2.443   1.424 -0.2063  0.1862  0.2089
10294SOL    HW131498   6.133   2.482   1.507 -1.3508  0.1478 -0.1100
10294SOL    HW231499   6.108   2.491   1.358 -0.1096 -0.4865 -0.3727
10295SOL     OW31500   1.546   2.306   6.117 -0.6172  0.0247  0.0337
10295SOL    HW131501   1.554   2.219   6.078 -0.8701 -0.6294  1.3663
10295SOL    HW231502   1.452   2.322   6.120 -0.7621 -0.8539  2.1928
10296SOL     OW31503   3.317   5.306   5.514  0.0671 -0.7564  0.5387
10296SOL    HW131504   3.345   5.216   5.529 -0.6694 -1.2822 -1.0568
10296SOL    HW231505   3.363   5.357   5.581  1.2288 -2.1829  0.8736
10297SOL     OW31506   4.004   5.376   6.205 -0.3920  0.2321  0.5321
10297SOL    HW131507   3.962   5.358   6.121  1.3240 -0.3524 -0.2306
10297SOL    HW231508   3.962   5.456   6.235 -0.4256  0.9545 -1.3113
10298SOL     OW31509   4.778   3.377   5.081  0.0292  0.4008 -0.1507
10298SOL    HW131510   4.838   3.303   5.082 -1.6392 -1.0541  1.8081
10298SOL    HW231511   4.817   3.441   5.141  1.2015  0.9473 -1.4332
10299SOL     OW31512   2.844   1.093   7.189 -0.2100 -0.0976 -0.3504
10299SOL    HW131513   2.787   1.117   7.116 -1.4086  4.5625  1.7555
10299SOL    HW231514   2.924   1.144   7.176  0.0918 -0.2026  0.9415
10300SOL     OW31515   4.865   4.773   3.147 -0.1591 -0.3039 -0.4820
10300SOL    HW131516   4.949   4.788   3.104  0.5122  0.5910  1.0712
10300SOL    HW231517   4.814   4.852   3.128 -0.1089 -0.2030 -0.1967
10301SOL     OW31518   0.404   6.715   6.669  0.3746 -0.0843  0.1325
10301SOL    HW131519   0.430   6.806   6.685 -0.0576  0.1443 -0.4279
10301SOL    HW231520   0.484   6.672   6.640  0.4126  0.3093 -0.3559
10302SOL     OW31521   5.385   4.504   5.431  0.2967 -0.1769  0.1845
10302SOL    HW131522   5.432   4.447   5.493  1.6413  0.2717 -0.3905
10302SOL    HW231523   5.297   4.466   5.426  0.5480 -0.9864  1.3714
10303SOL     OW31524   3.764   4.331   3.381 -0.1416  0.2172  0.0483
10303SOL    HW131525   3.692   4.390   3.361 -0.3740  0.0561  0.4158
10303SOL    HW231526   3.739   4.288   3.462  0.3690  0.1598  0.1789
10304SOL     OW31527   6.844   1.727   0.866 -0.6997  0.3711  0.0561
10304SOL    HW131528   6.884   1.773   0.792 -0.9744 -0.4547 -0.6281
10304SOL    HW231529   6.765   1.777   0.886 -0.6501  0.5767 -0.2550
10305SOL     OW31530   3.186   3.887   5.383 -0.3774 -0.5129  0.1792
10305SOL    HW131531   3.276   3.871   5.411  0.5171  2.6276 -0.5473
10305SOL    HW231532   3.148   3.939   5.454 -1.4377 -1.2797  0.1871
10306SOL     OW31533   4.350   0.786   1.594  0.6828  0.1161 -0.1189
10306SOL    HW131534   4.400   0.805   1.515  1.3235  0.8943  0.4594
10306SOL    HW231535   4.307   0.703   1.575  0.3378  0.5794 -1.5116
10307SOL     OW31536   7.156   4.240   2.655  0.0144  0.0810 -0.1087
10307SOL    HW131537   7.217   4.175   2.622 -2.1002 -2.2858  0.3171
10307SOL    HW231538   7.189   4.264   2.742  1.4495  0.5210 -0.7564
10308SOL     OW31539   1.937   3.406   7.003  0.8737  0.2356 -0.4235
10308SOL    HW131540   1.868   3.340   7.010  1.8822 -0.8289 -0.3065
10308SOL    HW231541   1.987   3.396   7.083  0.8004  1.4467 -0.2087
10309SOL     OW31542   1.163   5.708   0.139  0.1991 -0.1848  0.3499
10309SOL    HW131543   1.082   5.748   0.173  0.2330  1.1979 -1.0731
10309SOL    HW231544   1.138   5.619   0.117 -0.9981  0.2648 -0.2000
10310SOL     OW31545   7.195   6.019   5.656  0.0212 -0.6842 -0.1471
10310SOL    HW131546   7.277   6.047   5.698 -0.1429  0.9991 -0.8428
10310SOL    HW231547   7.223   5.975   5.576  0.2598  0.3097 -0.6250
10311SOL     OW31548   0.845   0.292   0.423 -0.2135 -0.3823 -0.4116
10311SOL    HW131549   0.808   0.248   0.500 -0.6328 -0.9414 -0.9332
10311SOL    HW231550   0.842   0.227   0.353 -0.0709  0.2043 -0.9744
10312SOL     OW31551   1.933   4.164   3.412  0.4530  0.3678  0.4060
10312SOL    HW131552   1.905   4.168   3.503 -0.5477 -0.6831  0.1705
10312SOL    HW231553   1.854   4.185   3.362  0.9802  0.8912 -0.2259
10313SOL     OW31554   3.440   3.307   5.697  0.0953  0.9729 -0.6694
10313SOL    HW131555   3.480   3.243   5.756 -3.8235 -0.4426  0.7927
10313SOL    HW231556   3.449   3.391   5.742  1.2749  0.7091 -0.3807
10314SOL     OW31557   6.499   0.062   6.386 -0.2025  0.0396 -0.4097
10314SOL    HW131558   6.425   0.051   6.326 -2.1526 -0.6428  1.9387
10314SOL    HW231559   6.533  -0.026   6.398 -0.5336  0.0041  0.2966
10315SOL     OW31560   2.603   2.973   3.509  0.7233  0.3416 -0.1194
10315SOL    HW131561   2.562   2.917   3.444  1.6292 -0.3243 -0.1335
10315SOL    HW231562   2.619   2.916   3.584 -0.8679  1.2334  0.9633
10316SOL     OW31563   4.379   5.850   3.933 -0.2943  0.1042 -0.3890
10316SOL    HW131564   4.317   5.778   3.926  0.3004 -0.9017  2.8208
10316SOL    HW231565   4.466   5.808   3.933  0.0514  0.7053  1.7233
10317SOL     OW31566   4.332   0.870   1.927  0.1387 -0.3012  0.4514
10317SOL    HW131567   4.239   0.882   1.906  0.5687  2.1979 -0.3295
10317SOL    HW231568   4.378   0.885   1.844  1.3248 -0.2804  1.0873
10318SOL     OW31569   2.792   6.399   1.055  0.1694  0.0183 -0.4132
10318SOL    HW131570   2.752   6.377   1.140  0.3167  0.6261 -0.1796
10318SOL    HW231571   2.872   6.446   1.078  0.2229  0.1678 -0.8915
10319SOL     OW31572   0.347   6.353   0.298  0.2994  0.3078 -0.1516
10319SOL    HW131573   0.407   6.408   0.247  0.5125  3.2438  2.8395
10319SOL    HW231574   0.260   6.375   0.265  0.4991  1.2665 -0.0725
10320SOL     OW31575   3.018   6.863   3.181 -0.1799 -0.0996 -0.4007
10320SOL    HW131576   3.002   6.952   3.152  1.3553  0.4370  0.2743
10320SOL    HW231577   3.113   6.850   3.170 -0.0899 -1.0394  1.0886
10321SOL     OW31578   5.853   6.502   2.333 -0.3115 -0.2845  0.2443
10321SOL    HW131579   5.848   6.529   2.425 -0.5631 -0.6410  0.3388
10321SOL    HW231580   5.936   6.538   2.302 -0.0224 -0.5185  0.7277
10322SOL     OW31581   4.032   2.164   4.893 -0.7577  0.1253 -0.2070
10322SOL    HW131582   4.064   2.223   4.825  1.1786 -0.4464  0.1261
10322SOL    HW231583   3.944   2.139   4.865  0.0148 -0.1490 -2.5628
10323SOL     OW31584   4.519   1.898   6.052 -0.2150  0.0941  0.2779
10323SOL    HW131585   4.436   1.909   6.098 -0.3725  1.4541 -0.2751
10323SOL    HW231586   4.543   1.807   6.066 -0.3854  0.3742  2.8027
10324SOL     OW31587   3.083   2.800   0.453 -0.0279  0.6211  0.0899
10324SOL    HW131588   3.080   2.711   0.488 -1.9494  1.2452  1.7021
10324SOL    HW231589   3.176   2.824   0.456  0.2871 -0.6253  1.5311
10325SOL     OW31590   5.689   4.710   1.093 -0.3880 -0.1076 -0.0167
10325SOL    HW131591   5.728   4.738   1.175  0.8586 -0.5653 -0.4255
10325SOL    HW231592   5.599   4.687   1.115 -0.2840  0.4798  1.0659
10326SOL     OW31593   1.742   2.097   0.779  0.2761 -0.2504 -1.0292
10326SOL    HW131594   1.753   2.174   0.723  0.2596 -0.6294 -1.5562
10326SOL    HW231595   1.720   2.026   0.719  2.2355 -1.1299 -0.7942
10327SOL     OW31596   5.119   0.772   3.372  0.1179  0.3240 -0.3811
10327SOL    HW131597   5.106   0.693   3.424 -0.8522  1.2191  0.7878
10327SOL    HW231598   5.170   0.830   3.430  0.3046  0.7866 -0.9991
10328SOL     OW31599   4.232   5.602   4.006  0.1298 -0.2769 -0.4781
10328SOL    HW131600   4.180   5.573   4.080  0.7585 -0.5403 -0.1302
10328SOL    HW231601   4.190   5.562   3.930 -0.5236  0.0037 -0.2724
10329SOL     OW31602   3.042   3.253   1.213  0.5928 -0.5691  0.1249
10329SOL    HW131603   3.064   3.280   1.124  0.3267  0.8824  0.4888
10329SOL    HW231604   3.127   3.228   1.251  0.6696 -1.4963 -0.6120
10330SOL     OW31605   4.997   4.410   1.629  0.2494 -0.5590  0.4544
10330SOL    HW131606   5.001   4.470   1.555  0.3890 -0.2247  0.7323
10330SOL    HW231607   4.939   4.340   1.599  0.0935 -0.2958  0.1250
10331SOL     OW31608   2.270   1.079   2.238  0.3635 -0.1345  0.4935
10331SOL    HW131609   2.348   1.134   2.244 -1.0361  2.0773 -0.1273
10331SOL    HW231610   2.220   1.100   2.316 -1.1777  1.2024 -0.7690
10332SOL     OW31611   2.510   4.994   7.086 -0.6407  0.6213 -0.3252
10332SOL    HW131612   2.430   5.003   7.035 -0.0156  0.3951 -1.3776
10332SOL    HW231613   2.570   5.058   7.047 -0.1280  0.3906  0.0796
10333SOL     OW31614   5.123   4.148   5.345 -0.0119 -0.2012  0.1216
10333SOL    HW131615   5.028   4.151   5.338  0.0135 -0.0151 -0.1525
10333SOL    HW231616   5.142   4.193   5.428 -0.2165 -1.0945  0.6662
10334SOL     OW31617   1.470   5.255   5.893 -0.0912  0.5450 -0.0337
10334SOL    HW131618   1.490   5.193   5.824  3.0560 -0.0830  1.2912
10334SOL    HW231619   1.391   5.219   5.935  0.7857 -1.7767 -0.2263
10335SOL     OW31620   3.173   3.289   1.542 -0.3108  0.1172  0.0208
10335SOL    HW131621   3.082   3.258   1.543  0.2496 -1.6866 -0.6932
10335SOL    HW231622   3.198   3.285   1.450  1.0294 -1.1717  0.4010
10336SOL     OW31623   0.109   1.005   5.305 -0.9273  0.3132 -0.4101
10336SOL    HW131624   0.105   1.085   5.358 -1.1006  0.6259 -0.8847
10336SOL    HW231625   0.154   0.941   5.360  0.9268  1.2834 -0.6942
10337SOL     OW31626   7.109   6.218   0.116 -0.5169 -0.1667  0.0641
10337SOL    HW131627   7.041   6.255   0.172 -0.3109 -0.1326  0.2904
10337SOL    HW231628   7.061   6.186   0.039 -0.4013  3.3211 -1.6312
10338SOL     OW31629   1.494   5.698   0.939 -0.2530 -0.0414 -0.1398
10338SOL    HW131630   1.523   5.714   1.029 -0.6757  0.9833 -0.1767
10338SOL    HW231631   1.532   5.769   0.889  1.5240 -1.6116 -1.1303
10339SOL     OW31632   1.234   6.877   2.094 -0.0646 -0.1603  0.2892
10339SOL    HW131633   1.288   6.864   2.172 -1.9423 -1.8463  1.4132
10339SOL    HW231634   1.212   6.789   2.065  0.0577  0.4592 -1.7828
10340SOL     OW31635   5.078   3.848   6.932  0.3227 -0.1326 -0.1796
10340SOL    HW131636   5.074   3.940   6.906  1.5167 -0.0979 -0.2700
10340SOL    HW231637   4.988   3.817   6.921 -0.0376  0.9432 -0.4283
10341SOL     OW31638   1.104   4.222   6.004 -0.1940  0.4469 -0.0779
10341SOL    HW131639   1.032   4.181   5.956  1.3496 -2.0913 -0.3888
10341SOL    HW231640   1.175   4.228   5.940  0.6225  0.7441  0.8323
10342SOL     OW31641   6.237   3.400   2.966 -0.3240  0.1690 -0.4397
10342SOL    HW131642   6.264   3.385   3.056  0.7038 -0.8278 -0.8951
10342SOL    HW231643   6.313   3.439   2.924 -0.9031  0.9253 -0.8039
10343SOL     OW31644   1.189   1.227   1.238 -0.1948  0.0822 -1.0528
10343SOL    HW131645   1.203   1.322   1.237 -1.0645  0.2367 -0.0304
10343SOL    HW231646   1.097   1.216   1.262  0.0960 -1.0364 -0.3665
10344SOL     OW31647   4.783   2.656   1.639  0.1005 -0.4949 -0.0874
10344SOL    HW131648   4.753   2.719   1.705 -0.6376  1.7060 -2.3480
10344SOL    HW231649   4.857   2.699   1.596 -0.9242 -0.7365 -2.2314
10345SOL     OW31650   2.842   2.129   3.500 -0.3079  0.8758 -0.3904
10345SOL    HW131651   2.817   2.176   3.579  0.1565  1.3629 -0.5259
10345SOL    HW231652   2.908   2.066   3.529  0.8366  1.9456 -0.5850
10346SOL     OW31653   4.722   5.983   0.381  0.9240 -0.6376 -0.3037
10346SOL    HW131654   4.726   5.901   0.332 -2.0957 -1.2799  0.2739
10346SOL    HW231655   4.651   6.032   0.338  1.0176  0.5812  0.8792
10347SOL     OW31656   3.379   6.296   5.691 -0.0068 -0.1677  0.3493
10347SOL    HW131657   3.303   6.261   5.643  0.4803 -2.5499  1.1469
10347SOL    HW231658   3.378   6.247   5.773  1.5291  0.8666  1.0034
10348SOL     OW31659   2.630   4.399   3.625  0.0408  0.1504 -0.1639
10348SOL    HW131660   2.719   4.392   3.590 -0.0040 -0.3908 -0.1793
10348SOL    HW231661   2.573   4.397   3.548 -0.2033 -3.4378 -0.0498
10349SOL     OW31662   3.349   5.055   5.481 -0.2981  0.4577  0.5411
10349SOL    HW131663   3.355   5.018   5.393  2.1730 -0.3887  0.9967
10349SOL    HW231664   3.271   5.014   5.519 -0.2535 -0.7249 -0.5766
10350SOL     OW31665   4.089   4.847   1.765 -0.0746 -0.5593  0.2573
10350SOL    HW131666   3.994   4.846   1.753 -0.2800  1.5304  1.2864
10350SOL    HW231667   4.118   4.928   1.722  1.2652 -1.1756 -0.0604
10351SOL     OW31668   1.717   6.739   0.456  0.0092 -0.0709  0.1020
10351SOL    HW131669   1.747   6.796   0.384  3.2494  1.3529  2.3422
10351SOL    HW231670   1.747   6.652   0.431  0.3828  0.2576 -0.6646
10352SOL     OW31671   3.431   4.934   7.041  0.4803  0.0414 -0.4473
10352SOL    HW131672   3.362   4.930   6.974 -1.0585  1.0593  1.0129
10352SOL    HW231673   3.511   4.915   6.993 -0.2683  2.6119 -3.0266
10353SOL     OW31674   4.063   2.820   5.666 -0.1168  0.3471  0.1321
10353SOL    HW131675   3.972   2.803   5.691 -0.9285  0.6813 -2.3649
10353SOL    HW231676   4.075   2.913   5.681  1.2207 -0.2729  4.3285
10354SOL     OW31677   4.595   3.881   0.957  0.4158 -0.2593 -0.0622
10354SOL    HW131678   4.571   3.861   0.866  0.6458  0.0098 -0.1830
10354SOL    HW231679   4.542   3.821   1.009  0.1323 -0.2797 -0.3666
10355SOL     OW31680   3.214   4.411   5.711 -0.3916 -0.4017  0.1348
10355SOL    HW131681   3.130   4.371   5.690 -0.9647 -0.0631  1.6418
10355SOL    HW231682   3.277   4.367   5.654 -1.6406 -0.3371 -1.3487
10356SOL     OW31683   0.195   3.618   4.737 -0.2530 -0.3176 -0.6291
10356SOL    HW131684   0.175   3.701   4.781 -0.8761  0.9998 -3.1995
10356SOL    HW231685   0.233   3.644   4.653 -2.4153 -2.5352 -2.4441
10357SOL     OW31686   3.534   2.063   4.197 -0.4565 -0.2946  0.2558
10357SOL    HW131687   3.613   2.052   4.250 -1.4233  1.6339  2.2475
10357SOL    HW231688   3.477   2.118   4.250 -1.9081  0.9792 -2.4404
10358SOL     OW31689   4.072   5.083   0.265  0.0134  0.5547 -0.5112
10358SOL    HW131690   3.989   5.111   0.225  0.0496  0.8663 -0.3732
10358SOL    HW231691   4.136   5.093   0.195 -0.3834 -1.6228 -1.2636
10359SOL     OW31692   6.401   0.720   4.625 -0.4244  0.2813 -0.1266
10359SOL    HW131693   6.374   0.752   4.539  0.5097  0.9508 -0.1890
10359SOL    HW231694   6.451   0.792   4.663 -1.4944  0.3120  1.3246
10360SOL     OW31695   5.196   6.776   6.125 -0.0423  1.2009  0.4346
10360SOL    HW131696   5.219   6.818   6.208 -0.7653  1.2314  0.6319
10360SOL    HW231697   5.100   6.771   6.127 -0.2093  2.7824 -1.1596
10361SOL     OW31698   2.456   2.126   3.483 -0.2067 -0.0914 -0.0270
10361SOL    HW131699   2.391   2.066   3.519  0.0932 -0.9561 -0.9027
10361SOL    HW231700   2.540   2.086   3.504 -0.0081 -0.0725 -0.7422
10362SOL     OW31701   1.820   3.116   2.368  0.3451 -0.2818 -0.2328
10362SOL    HW131702   1.747   3.105   2.429 -1.3469 -1.7409 -2.3400
10362SOL    HW231703   1.795   3.192   2.315  1.1395  0.1629  0.0236
10363SOL     OW31704   0.694   2.341   0.614  0.1987  0.0657 -0.4710
10363SOL    HW131705   0.723   2.297   0.694 -0.4377  0.9902  0.2924
10363SOL    HW231706   0.624   2.286   0.580 -1.5042  1.0854  1.1922
10364SOL     OW31707   3.552   4.166   1.928 -0.2152 -0.0729 -0.2706
10364SOL    HW131708   3.498   4.163   2.007 -1.6228  1.4969 -1.0984
10364SOL    HW231709   3.583   4.257   1.924 -0.6706  0.0403 -1.8099
10365SOL     OW31710   2.164   5.984   4.918 -0.0909  0.3495  0.3068
10365SOL    HW131711   2.192   6.047   4.852  2.4596 -0.9474  0.0118
10365SOL    HW231712   2.244   5.960   4.964 -0.9507 -2.4117  0.5936
10366SOL     OW31713   1.997   1.220   5.239 -0.7661 -0.5625  0.2199
10366SOL    HW131714   1.932   1.200   5.306 -0.9975 -0.8307 -0.0840
10366SOL    HW231715   2.022   1.311   5.256 -2.5862  0.1726 -0.8015
10367SOL     OW31716   2.971   2.910   7.210  0.1231  0.3429  0.3613
10367SOL    HW131717   3.017   2.834   7.175  1.2879  1.1846 -0.0249
10367SOL    HW231718   3.019   2.933   7.289 -1.8780 -0.9234  2.0306
10368SOL     OW31719   2.233   4.705   4.835 -0.5100  0.1745  0.7259
10368SOL    HW131720   2.301   4.651   4.795  0.4499  0.8353  1.3971
10368SOL    HW231721   2.234   4.786   4.784 -0.7622  0.2059  0.7688
10369SOL     OW31722   4.460   0.057   4.120  0.0234  0.5005  0.0258
10369SOL    HW131723   4.426   0.046   4.209 -0.6245 -1.0784 -0.3698
10369SOL    HW231724   4.550   0.088   4.131  0.0377  0.0536  1.2361
10370SOL     OW31725   4.163   3.359   4.755  0.0988  0.5342  0.0753
10370SOL    HW131726   4.213   3.315   4.687 -1.2950 -0.6992 -0.2066
10370SOL    HW231727   4.074   3.366   4.720 -0.4755  0.5783  1.4507
10371SOL     OW31728   2.497   3.526   3.356  0.1528 -0.2313  0.0889
10371SOL    HW131729   2.440   3.477   3.416 -1.1264  1.4096  0.3033
10371SOL    HW231730   2.456   3.516   3.270 -0.5941  1.0479  0.2614
10372SOL     OW31731   6.339   0.581   1.018 -0.2836 -0.4680  0.3091
10372SOL    HW131732   6.384   0.508   1.060  1.0715 -0.3415 -0.8212
10372SOL    HW231733   6.367   0.658   1.067 -0.4319 -0.5465  0.5159
10373SOL     OW31734   3.957   2.686   2.232 -0.6756  0.0912 -0.1072
10373SOL    HW131735   3.968   2.648   2.319  0.9466  0.2383 -0.2257
10373SOL    HW231736   3.945   2.611   2.174  0.2500 -0.1186 -0.0291
10374SOL     OW31737   0.749   6.368   0.516 -0.1701 -0.2354  0.0237
10374SOL    HW131738   0.822   6.429   0.520  0.7969 -1.1647 -2.0502
10374SOL    HW231739   0.671   6.424   0.512  0.7217  0.9856 -2.7058
10375SOL     OW31740   3.862   5.983   6.039 -0.2290 -0.1882 -0.2872
10375SOL    HW131741   3.952   5.988   6.006 -0.5529  1.9700 -1.0151
10375SOL    HW231742   3.834   5.893   6.020  1.2699 -0.4441 -1.4584
10376SOL     OW31743   7.178   6.862   2.224  0.7815  0.3473  0.0037
10376SOL    HW131744   7.243   6.792   2.222  1.3543  0.8467  0.8471
10376SOL    HW231745   7.156   6.876   2.131  4.6551  2.6790 -0.8005
10377SOL     OW31746   5.530   5.805   3.317  0.4162  0.4190  0.1981
10377SOL    HW131747   5.575   5.720   3.309 -0.2140  0.1280 -0.3499
10377SOL    HW231748   5.506   5.811   3.409  1.4627  0.5240  0.4777
10378SOL     OW31749   4.848   6.682   1.510  0.5021 -0.1512  0.6436
10378SOL    HW131750   4.918   6.747   1.499 -0.0180  0.4077  0.5690
10378SOL    HW231751   4.767   6.732   1.498  0.0992 -1.3670 -2.5943
10379SOL     OW31752   2.854   4.290   0.933 -0.6919 -0.4055 -0.5144
10379SOL    HW131753   2.861   4.250   0.847  0.2804 -0.6268 -0.3404
10379SOL    HW231754   2.773   4.254   0.970  0.1615 -2.2616 -0.3442
10380SOL     OW31755   2.548   7.045   5.958  0.5588  0.3638 -0.1338
10380SOL    HW131756   2.542   6.977   5.890  1.3459 -0.3026  0.4271
10380SOL    HW231757   2.640   7.072   5.955  0.1563  1.7411 -0.6397
10381SOL     OW31758   0.762   5.151   4.114  0.1810 -0.1716  0.4152
10381SOL    HW131759   0.835   5.213   4.120 -0.1634  0.1372  1.8186
10381SOL    HW231760   0.684   5.207   4.102  0.0516 -0.4360  0.0056
10382SOL     OW31761   0.147   3.331   0.759  0.4300 -0.2134  0.3277
10382SOL    HW131762   0.119   3.357   0.847 -0.1345 -0.1772  0.1467
10382SOL    HW231763   0.073   3.279   0.725  0.3450  0.3523 -0.3798
10383SOL     OW31764   1.692   6.694   6.642  0.2406 -0.5712  0.6138
10383SOL    HW131765   1.676   6.778   6.600  0.3416 -0.4833  0.7529
10383SOL    HW231766   1.781   6.670   6.614  0.3693 -0.4357  0.9128
10384SOL     OW31767   2.443   0.523   6.836  0.3059  0.1770 -0.2247
10384SOL    HW131768   2.472   0.611   6.812 -1.1742  1.1114  1.1909
10384SOL    HW231769   2.407   0.487   6.756 -0.9619  1.6930 -0.3814
10385SOL     OW31770   0.604   1.496   5.783 -0.2803  0.0901  0.3398
10385SOL    HW131771   0.687   1.470   5.823  0.7963  1.2204 -1.0455
10385SOL    HW231772   0.570   1.566   5.839  0.2688  0.3686  0.3258
10386SOL     OW31773   0.206   4.150   5.139 -0.6329  0.4899  0.1336
10386SOL    HW131774   0.298   4.176   5.141 -0.2698 -0.7909  1.4129
10386SOL    HW231775   0.198   4.097   5.060  0.3659 -1.4193  1.2215
10387SOL     OW31776   3.373   4.265   3.917  0.0302 -0.2581 -0.0627
10387SOL    HW131777   3.402   4.211   3.990  1.5865  1.4721  0.6973
10387SOL    HW231778   3.454   4.306   3.884 -0.6252 -0.8905 -2.7052
10388SOL     OW31779   6.797   4.342   5.137 -0.5349 -0.4723  0.5058
10388SOL    HW131780   6.730   4.374   5.077  0.8188  2.8014  0.4959
10388SOL    HW231781   6.751   4.327   5.219 -1.4932  0.5002  0.1685
10389SOL     OW31782   4.040   3.529   5.611  0.7530  0.1746  0.0172
10389SOL    HW131783   3.993   3.531   5.694 -0.1194  0.4532 -0.4737
10389SOL    HW231784   4.059   3.437   5.596 -1.3230 -0.1873 -0.6952
10390SOL     OW31785   7.030   0.461   0.368 -0.3861  0.2695  0.2649
10390SOL    HW131786   7.078   0.464   0.451  1.0071  0.0427 -0.4999
10390SOL    HW231787   7.037   0.550   0.334  0.0168  0.0882 -0.1315
10391SOL     OW31788   4.416   5.604   2.797  0.0180 -0.0321  0.2402
10391SOL    HW131789   4.332   5.619   2.839  0.3295 -0.6848  1.1226
10391SOL    HW231790   4.479   5.653   2.851  0.1429  0.9441 -0.7539
10392SOL     OW31791   3.459   0.638   6.142 -0.1033 -0.4953 -0.4180
10392SOL    HW131792   3.466   0.613   6.235  0.8645  2.0216  0.2765
10392SOL    HW231793   3.369   0.618   6.118 -0.3153 -1.3770  1.0113
10393SOL     OW31794   4.153   1.528   5.114  0.0705 -0.5540 -0.0037
10393SOL    HW131795   4.216   1.566   5.053  0.7837 -1.7676 -0.0469
10393SOL    HW231796   4.107   1.462   5.063  0.5283 -1.4327  0.6951
10394SOL     OW31797   6.824   2.808   4.934 -0.0743 -0.6986 -0.1465
10394SOL    HW131798   6.885   2.870   4.893 -0.7769  2.3594  2.9170
10394SOL    HW231799   6.740   2.825   4.892  0.3504 -2.1403 -1.6752
10395SOL     OW31800   1.541   1.267   6.284  0.7963 -0.5039  0.0692
10395SOL    HW131801   1.544   1.319   6.364  3.2807  3.8433 -2.4410
10395SOL    HW231802   1.457   1.221   6.288  0.0350  0.8394  4.2731
10396SOL     OW31803   2.818   2.294   0.325 -0.2972 -0.3192  0.2238
10396SOL    HW131804   2.795   2.221   0.267 -1.5350  0.1896  0.0252
10396SOL    HW231805   2.762   2.366   0.295  1.1226  0.8079  0.2165
10397SOL     OW31806   6.768   1.659   6.035  0.6968 -0.1734 -0.4399
10397SOL    HW131807   6.746   1.683   5.945  0.2324  2.0485  0.2220
10397SOL    HW231808   6.698   1.598   6.060 -1.7027  2.4526 -0.2544
10398SOL     OW31809   0.871   5.798   1.866 -0.8081 -0.3270  0.0588
10398SOL    HW131810   0.961   5.815   1.839 -0.5146 -1.1658  0.5022
10398SOL    HW231811   0.849   5.714   1.827 -1.6029  0.1271 -0.5119
10399SOL     OW31812   3.528   3.607   0.385 -0.5318 -0.4226 -0.1148
10399SOL    HW131813   3.442   3.571   0.405 -0.5801 -1.7917 -2.5171
10399SOL    HW231814   3.585   3.574   0.455 -1.3273 -2.1794 -0.2596
10400SOL     OW31815   6.402   4.155   7.097 -0.0229  0.3404  0.6317
10400SOL    HW131816   6.409   4.247   7.123 -0.5864  0.6001 -0.0913
10400SOL    HW231817   6.325   4.123   7.145 -0.1449  0.3957  0.4737
10401SOL     OW31818   3.351   4.918   6.466 -0.2431  0.1321 -0.4579
10401SOL    HW131819   3.280   4.855   6.468  0.6192 -0.8717 -0.4023
10401SOL    HW231820   3.359   4.949   6.556  1.2963 -1.9979  0.2094
10402SOL     OW31821   3.412   1.013   3.280  0.1516 -0.2437 -0.0337
10402SOL    HW131822   3.393   1.107   3.278  0.9559 -0.0609  0.1888
10402SOL    HW231823   3.340   0.975   3.331 -1.0320  0.0136 -1.4529
10403SOL     OW31824   3.759   2.156   3.706  0.1323 -0.3583 -0.0714
10403SOL    HW131825   3.831   2.110   3.748 -0.2530 -2.9829 -2.0676
10403SOL    HW231826   3.684   2.143   3.765  0.4225 -0.8721  0.1854
10404SOL     OW31827   2.520   0.960   5.652  0.9433  0.0609  0.1568
10404SOL    HW131828   2.425   0.952   5.645  1.0147 -1.8995  0.7679
10404SOL    HW231829   2.546   1.008   5.574 -0.2409 -2.5707 -2.0454
10405SOL     OW31830   5.179   4.474   2.194  0.8754 -0.1583  0.0714
10405SOL    HW131831   5.185   4.390   2.148 -0.3625  0.1047 -0.6153
10405SOL    HW231832   5.160   4.450   2.285  1.8696 -0.6429  0.1721
10406SOL     OW31833   3.366   1.835   1.712  0.2036 -0.0335 -0.0268
10406SOL    HW131834   3.428   1.843   1.786  0.0318 -0.0043  0.1145
10406SOL    HW231835   3.421   1.810   1.638  0.6172  1.5257 -0.2742
10407SOL     OW31836   1.877   2.299   3.052 -0.0592 -0.1558  0.5796
10407SOL    HW131837   1.874   2.236   2.980 -1.9180  0.6734 -0.1233
10407SOL    HW231838   1.810   2.270   3.113 -0.1835  0.5251  0.7809
10408SOL     OW31839   2.566   3.508   5.541  0.0243 -0.3263 -0.1328
10408SOL    HW131840   2.530   3.576   5.597 -1.6149 -0.3977 -1.0325
10408SOL    HW231841   2.530   3.527   5.454  2.1923 -0.4233 -1.1138
10409SOL     OW31842   5.144   0.007   5.996 -0.5137  0.1713 -0.1092
10409SOL    HW131843   5.223   0.059   6.011  0.6676 -1.2859 -0.9312
10409SOL    HW231844   5.073   0.070   5.996  0.4768  1.4045  1.8944
10410SOL     OW31845   3.284   2.777   1.040  0.2088  0.1076  0.1069
10410SOL    HW131846   3.315   2.832   0.969  0.9782  0.0334  0.3697
10410SOL    HW231847   3.220   2.718   1.000 -0.8144  1.3439 -0.1278
10411SOL     OW31848   3.283   7.216   2.396  0.4130  0.3151  0.2314
10411SOL    HW131849   3.321   7.132   2.418 -0.3746  0.4753  2.5086
10411SOL    HW231850   3.239   7.244   2.477  1.0022  3.0953 -0.3094
10412SOL     OW31851   5.188   2.067   5.947 -0.9055 -0.4227  0.5012
10412SOL    HW131852   5.199   2.048   6.040 -2.1291  2.9495  1.4983
10412SOL    HW231853   5.233   2.151   5.934 -1.5898 -0.3235 -1.7002
10413SOL     OW31854   3.472   5.784   6.581  0.4256 -0.9139  0.3242
10413SOL    HW131855   3.416   5.709   6.564 -0.5343 -0.7478  2.3993
10413SOL    HW231856   3.542   5.750   6.636  2.1368 -1.0056 -1.8021
10414SOL     OW31857   4.317   5.861   4.413  0.3683  0.1414 -0.6760
10414SOL    HW131858   4.371   5.921   4.361  1.2791 -0.2938 -0.2527
10414SOL    HW231859   4.235   5.855   4.365 -0.4361  3.0600  0.1343
10415SOL     OW31860   5.709   4.147   2.125 -0.2220 -0.0926 -0.3906
10415SOL    HW131861   5.710   4.082   2.195  0.0415  1.4863  1.1168
10415SOL    HW231862   5.772   4.113   2.061 -0.0228 -1.2625  0.3884
10416SOL     OW31863   3.237   7.018   2.996  0.4989  0.2117 -0.3024
10416SOL    HW131864   3.287   7.048   3.072 -1.3655  2.7561  0.0677
10416SOL    HW231865   3.288   7.047   2.921  1.2916 -0.4011 -0.0120
10417SOL     OW31866   5.818   2.358   1.181 -0.0401 -0.2622  0.3486
10417SOL    HW131867   5.795   2.448   1.156  0.5254 -0.1775  0.1346
10417SOL    HW231868   5.902   2.342   1.139 -0.6482 -1.2823 -0.5272
10418SOL     OW31869   2.225   4.592   3.939  0.2565 -0.2974  0.0167
10418SOL    HW131870   2.269   4.578   4.023  0.0962  0.7525  0.2872
10418SOL    HW231871   2.276   4.660   3.896 -0.3544  0.0251 -0.2144
10419SOL     OW31872   1.843   1.871   5.839  0.4592 -0.3561  0.5381
10419SOL    HW131873   1.887   1.786   5.832 -0.6094 -0.8353 -0.8519
10419SOL    HW231874   1.849   1.909   5.752 -0.8369  0.0963  0.6269
10420SOL     OW31875   6.374   2.525   4.096 -0.2806 -0.1179  0.0772
10420SOL    HW131876   6.437   2.494   4.032  0.0873  0.4741  0.1447
10420SOL    HW231877   6.342   2.608   4.061  0.3102  0.4729  0.8963
10421SOL     OW31878   5.782   0.376   0.197  0.4073 -0.0937  1.3151
10421SOL    HW131879   5.763   0.378   0.103 -0.5848 -1.0527  1.4835
10421SOL    HW231880   5.835   0.454   0.211  0.0069  0.4397  0.0797
10422SOL     OW31881   1.795   3.426   5.489 -0.4403 -0.4494  0.2787
10422SOL    HW131882   1.827   3.514   5.467  0.2130 -0.7237  0.0998
10422SOL    HW231883   1.873   3.380   5.520 -0.9527 -0.6988  1.2207
10423SOL     OW31884   4.342   7.114   3.112 -0.2474  0.5778 -0.2977
10423SOL    HW131885   4.318   7.119   3.204  0.7553  0.7948 -0.0367
10423SOL    HW231886   4.379   7.200   3.092  0.0416  0.3498 -0.7634
10424SOL     OW31887   6.540   1.243   2.865 -0.5013 -0.4626 -0.3973
10424SOL    HW131888   6.448   1.220   2.852 -0.7982  1.2992 -1.7960
10424SOL    HW231889   6.540   1.308   2.935 -0.5013  0.5319 -1.2981
10425SOL     OW31890   3.269   4.462   2.338 -0.5998 -0.5647  0.6218
10425SOL    HW131891   3.281   4.553   2.310 -0.0159 -0.0154  2.4924
10425SOL    HW231892   3.176   4.454   2.357 -0.4151  0.1045  1.8720
10426SOL     OW31893   2.946   6.265   2.686 -0.4675 -0.6655  0.1172
10426SOL    HW131894   2.853   6.259   2.707 -0.4703  0.2297  0.4022
10426SOL    HW231895   2.991   6.238   2.766 -0.4673 -1.9473 -0.2941
10427SOL     OW31896   6.190   4.497   4.202 -0.1091  0.6361 -0.5628
10427SOL    HW131897   6.245   4.571   4.175  1.0063 -0.1699 -0.5786
10427SOL    HW231898   6.188   4.439   4.126  0.5967 -0.2373  0.0621
10428SOL     OW31899   3.581   6.501   3.114 -0.3603 -0.0545  0.0530
10428SOL    HW131900   3.657   6.445   3.097 -0.4284 -0.0678 -0.2101
10428SOL    HW231901   3.586   6.569   3.046 -1.4571 -0.9482 -0.9527
10429SOL     OW31902   1.189   5.031   4.832  0.3878  0.0836 -0.1421
10429SOL    HW131903   1.250   5.104   4.820  1.0232  0.3770  3.6720
10429SOL    HW231904   1.215   4.967   4.766  1.6082  2.1493 -1.7966
10430SOL     OW31905   1.372   4.264   3.425  0.0026  0.5767 -0.3263
10430SOL    HW131906   1.320   4.331   3.470 -0.0193  1.1059 -1.1236
10430SOL    HW231907   1.316   4.187   3.425 -1.0967  1.3273 -1.7659
10431SOL     OW31908   2.924   2.794   6.153  0.3159 -0.1361  0.1142
10431SOL    HW131909   3.009   2.834   6.133 -0.2325  2.2103  2.0939
10431SOL    HW231910   2.872   2.809   6.074  1.2341 -0.1030 -0.4998
10432SOL     OW31911   5.845   2.018   0.119  0.0889 -0.3487  0.7706
10432SOL    HW131912   5.830   2.094   0.176  1.4860  1.2340 -0.8718
10432SOL    HW231913   5.923   1.977   0.155 -0.4647 -0.8337  1.4502
10433SOL     OW31914   1.772   0.677   6.431 -0.3562 -0.4139  0.3341
10433SOL    HW131915   1.816   0.605   6.385 -1.0743 -0.8821  0.3624
10433SOL    HW231916   1.815   0.756   6.399 -0.7759 -0.7297 -1.0802
10434SOL     OW31917   1.711   6.011   2.931  0.5481 -0.1884 -0.1884
10434SOL    HW131918   1.618   6.008   2.911  0.2789  0.8765  0.8035
10434SOL    HW231919   1.748   5.935   2.885 -0.7140 -0.3393 -0.9972
10435SOL     OW31920   5.436   4.289   5.865  0.2372 -0.3943  0.4529
10435SOL    HW131921   5.470   4.378   5.853  2.0286 -0.8229  1.8802
10435SOL    HW231922   5.384   4.293   5.945 -0.1860 -0.5193  0.1894
10436SOL     OW31923   4.259   3.788   7.206 -0.5182  0.3303 -0.4074
10436SOL    HW131924   4.228   3.706   7.245  1.5793 -0.4197 -0.1838
10436SOL    HW231925   4.279   3.844   7.281 -0.0140  0.2632 -0.4850
10437SOL     OW31926   5.887   1.156   2.516 -0.1809  0.0098 -0.3719
10437SOL    HW131927   5.798   1.187   2.531  0.1230  0.9698 -0.4647
10437SOL    HW231928   5.877   1.081   2.457 -0.9717 -0.3886  0.2437
10438SOL     OW31929   3.991   3.607   2.141  0.3325 -0.1501  0.1999
10438SOL    HW131930   4.001   3.701   2.159 -1.6769  0.2206 -0.3136
10438SOL    HW231931   4.077   3.580   2.107  0.3253  2.0851 -1.9209
10439SOL     OW31932   4.438   2.594   3.329  0.1902 -0.0229  0.0527
10439SOL    HW131933   4.456   2.688   3.331 -0.1303  0.0409 -0.0059
10439SOL    HW231934   4.502   2.556   3.390 -0.7357  0.4243  1.3499
10440SOL     OW31935   6.300   0.060   2.228  0.1734  0.1031  0.4177
10440SOL    HW131936   6.288   0.089   2.319 -0.8564  0.1605  0.2712
10440SOL    HW231937   6.259   0.128   2.175  0.6903  0.0251 -0.0934
10441SOL     OW31938   7.182   6.907   1.288 -0.5155  0.1027  0.0419
10441SOL    HW131939   7.134   6.927   1.369 -0.0915 -1.0669  0.6094
10441SOL    HW231940   7.270   6.886   1.317 -0.0765  0.6643 -0.8443
10442SOL     OW31941   6.997   0.430   5.290  0.0836  0.2466 -0.2064
10442SOL    HW131942   6.916   0.414   5.339  0.4238 -0.0689  0.2662
10442SOL    HW231943   7.047   0.349   5.300  0.5613  0.5273 -0.2881
10443SOL     OW31944   4.281   1.420   3.771  0.1893  0.3518  0.7266
10443SOL    HW131945   4.277   1.454   3.860 -2.0789 -0.2739  0.9421
10443SOL    HW231946   4.199   1.372   3.761  1.7049 -2.1752 -0.6824
10444SOL     OW31947   4.567   6.870   2.161  0.4333  0.0363 -0.0636
10444SOL    HW131948   4.658   6.845   2.146  0.8569  1.1481  0.5540
10444SOL    HW231949   4.536   6.809   2.228  0.9557  0.1515  0.2854
10445SOL     OW31950   0.702   3.331   4.327 -0.2219  0.4582  0.0909
10445SOL    HW131951   0.789   3.370   4.333  0.0625 -0.1920  0.3915
10445SOL    HW231952   0.702   3.287   4.242  0.0420 -0.1967  0.4153
10446SOL     OW31953   4.989   2.897   4.288  0.0427 -0.1289  0.2303
10446SOL    HW131954   4.894   2.903   4.297 -0.0011 -0.0377 -0.2541
10446SOL    HW231955   5.010   2.807   4.312 -0.3114 -0.4983 -0.8028
10447SOL     OW31956   0.752   6.571   4.832  0.6365  0.0015  0.0811
10447SOL    HW131957   0.815   6.638   4.809  1.2325  0.2970  2.3075
10447SOL    HW231958   0.774   6.496   4.776  1.9176  0.6465 -0.2999
10448SOL     OW31959   1.372   4.371   5.640  0.1112  0.0944  0.2398
10448SOL    HW131960   1.321   4.446   5.612  0.1900  0.7357  1.7036
10448SOL    HW231961   1.459   4.406   5.660  1.0312 -0.8912 -1.7203
10449SOL     OW31962   4.933   5.219   0.569 -0.1029 -0.1414  0.1168
10449SOL    HW131963   5.006   5.265   0.527  0.2877 -1.3056 -0.5296
10449SOL    HW231964   4.951   5.228   0.663  1.9927 -2.0335 -0.0122
10450SOL     OW31965   0.952   1.624   7.235  0.1615 -0.4659  0.0847
10450SOL    HW131966   1.041   1.659   7.232 -1.4317  4.1933 -0.8933
10450SOL    HW231967   0.929   1.626   7.328  0.8857 -1.3092  0.2963
10451SOL     OW31968   3.232   3.565   2.198 -0.0841 -0.9276 -0.4199
10451SOL    HW131969   3.282   3.576   2.117  0.1741 -2.5101 -0.5203
10451SOL    HW231970   3.201   3.474   2.194 -1.2749 -0.5925  0.5963
10452SOL     OW31971   7.051   6.194   6.110 -0.1760 -0.3493 -0.5354
10452SOL    HW131972   7.082   6.284   6.101  2.4806 -1.2941 -1.8131
10452SOL    HW231973   7.016   6.172   6.024 -1.0533 -0.5011 -0.1525
10453SOL     OW31974   4.962   0.509   2.177  0.0075 -0.5184  0.0581
10453SOL    HW131975   4.944   0.600   2.199  0.5155 -0.0254 -1.4421
10453SOL    HW231976   4.882   0.462   2.202 -1.1637  0.6998 -1.2626
10454SOL     OW31977   5.415   4.480   3.028 -0.1779 -0.3309 -0.1417
10454SOL    HW131978   5.340   4.434   2.990 -0.6281  0.0138  0.3028
10454SOL    HW231979   5.444   4.424   3.100 -0.0761 -0.4157 -0.2498
10455SOL     OW31980   5.416   3.281   6.194 -0.2187 -0.9151 -0.2511
10455SOL    HW131981   5.364   3.346   6.242  1.4063  0.3726 -0.1501
10455SOL    HW231982   5.422   3.206   6.253  0.3543  0.0065  0.9002
10456SOL     OW31983   5.631   1.733   3.701 -0.2970 -0.1023 -0.6115
10456SOL    HW131984   5.550   1.713   3.748 -0.2599 -2.5198 -1.3968
10456SOL    HW231985   5.603   1.783   3.625 -1.0814 -0.8656 -0.8437
10457SOL     OW31986   1.645   3.075   1.106 -0.0811 -0.0021 -0.2474
10457SOL    HW131987   1.555   3.044   1.098  0.1309 -1.5170  2.2193
10457SOL    HW231988   1.694   3.024   1.042 -0.9661  1.1035 -1.8865
10458SOL     OW31989   2.335   2.463   3.177  0.5761  0.0210  0.3992
10458SOL    HW131990   2.398   2.469   3.105 -0.0356  1.1605 -0.0687
10458SOL    HW231991   2.252   2.491   3.138  0.6692  3.0523  2.0697
10459SOL     OW31992   0.563   6.564   0.418 -0.1188 -0.0735 -0.6766
10459SOL    HW131993   0.613   6.560   0.336 -0.9810  0.7057 -1.2617
10459SOL    HW231994   0.586   6.650   0.455 -0.2000 -0.1674 -0.4137
10460SOL     OW31995   4.179   2.568   5.742  0.2959  0.2474  0.4716
10460SOL    HW131996   4.146   2.654   5.716  0.2929  0.2487  0.4800
10460SOL    HW231997   4.153   2.509   5.672 -0.3237  0.1213  0.8011
10461SOL     OW31998   4.349   2.080   3.690 -0.2862  0.7359  0.0584
10461SOL    HW131999   4.403   2.099   3.613 -0.5113  2.2563  0.2352
10461SOL    HW232000   4.411   2.077   3.763 -0.1845  0.2627 -0.0482
10462SOL     OW32001   2.513   5.361   4.766 -0.7058 -0.0958 -0.1003
10462SOL    HW132002   2.607   5.361   4.786 -0.8137  1.0900  0.5107
10462SOL    HW232003   2.508   5.344   4.672  0.2402  1.8814 -0.5406
10463SOL     OW32004   0.910   0.934   2.967 -0.0427 -0.1084 -0.0778
10463SOL    HW132005   0.846   0.864   2.959 -0.3836  0.0965  0.7704
10463SOL    HW232006   0.995   0.889   2.969 -0.2780 -0.5206  0.7635
10464SOL     OW32007   3.430   4.114   1.658 -0.2211  0.3239 -0.1216
10464SOL    HW132008   3.500   4.066   1.614 -0.7020 -0.3308 -0.1908
10464SOL    HW232009   3.456   4.117   1.750  0.4157  1.0297 -0.3171
10465SOL     OW32010   4.752   0.613   3.595 -0.5428  0.0951  0.3504
10465SOL    HW132011   4.822   0.561   3.634 -1.6118 -0.6970  1.2639
10465SOL    HW232012   4.726   0.563   3.517  0.7539  1.0543 -0.7507
10466SOL     OW32013   6.159   2.050   1.675 -0.3176  0.3028 -0.1485
10466SOL    HW132014   6.126   2.138   1.655  1.8051  1.1269 -0.2830
10466SOL    HW232015   6.233   2.039   1.615 -0.8872 -1.8326 -0.5216
10467SOL     OW32016   5.743   1.008   0.038 -0.0781  0.5789  0.1868
10467SOL    HW132017   5.683   1.036  -0.031 -0.6889 -0.5004  0.2531
10467SOL    HW232018   5.687   0.968   0.104  0.6605 -0.0722  0.4410
10468SOL     OW32019   0.807   5.877   1.135 -0.5081 -0.8568 -0.0992
10468SOL    HW132020   0.796   5.918   1.220 -1.1824 -0.8450 -0.1862
10468SOL    HW232021   0.864   5.937   1.087 -1.9683  0.3192 -0.4342
10469SOL     OW32022   6.723   1.225   1.551  0.2961 -0.4252  0.1957
10469SOL    HW132023   6.668   1.216   1.629 -0.8473 -1.2702 -0.6819
10469SOL    HW232024   6.735   1.319   1.540  1.1081 -0.3031  1.7980
10470SOL     OW32025   1.271   7.231   6.930  0.1242  0.4222  0.4845
10470SOL    HW132026   1.247   7.139   6.926  1.3538  0.1180 -0.3844
10470SOL    HW232027   1.361   7.231   6.963  0.8686  1.1562 -1.4320
10471SOL     OW32028   3.179   4.742   6.596 -0.6353 -0.3446 -0.1384
10471SOL    HW132029   3.146   4.805   6.660 -0.8945  0.5161 -1.1015
10471SOL    HW232030   3.147   4.657   6.628  0.7201 -0.1791  1.8143
10472SOL     OW32031   5.506   5.338   0.394 -0.0313 -0.1262  0.3819
10472SOL    HW132032   5.473   5.293   0.472 -0.7124  0.0697  0.2158
10472SOL    HW232033   5.432   5.393   0.366  0.6429  0.7878  0.3548
10473SOL     OW32034   6.235   2.327   5.320 -0.5098 -0.6237 -0.2901
10473SOL    HW132035   6.262   2.400   5.264 -0.2070  0.5796  1.3598
10473SOL    HW232036   6.217   2.367   5.405  1.5911 -2.6815  1.2609
10474SOL     OW32037   5.141   5.060   4.954 -0.1332  0.0365  0.1214
10474SOL    HW132038   5.081   5.094   5.020 -0.6729 -3.4423  1.6498
10474SOL    HW232039   5.209   5.015   5.005 -0.6732 -2.9473 -1.5695
10475SOL     OW32040   2.256   0.910   0.097 -0.1987 -0.1161 -0.1360
10475SOL    HW132041   2.323   0.842   0.097 -1.0510 -0.9893  0.7128
10475SOL    HW232042   2.205   0.893   0.017  0.1614  0.1271 -0.4229
10476SOL     OW32043   1.937   1.868   6.258 -0.4191 -0.4383 -0.2444
10476SOL    HW132044   1.941   1.809   6.182  0.0936 -0.7231 -0.0001
10476SOL    HW232045   2.028   1.894   6.273 -0.7989  1.8823 -1.4656
10477SOL     OW32046   7.124   1.182   3.846 -0.2987 -0.1397  0.8522
10477SOL    HW132047   7.083   1.104   3.808 -2.2272  0.2255  2.0495
10477SOL    HW232048   7.195   1.148   3.900  1.2461 -0.7813 -1.4036
10478SOL     OW32049   4.414   4.006   6.642 -0.0957  0.0813 -0.1774
10478SOL    HW132050   4.396   4.020   6.735 -0.4295 -0.3500 -0.1716
10478SOL    HW232051   4.332   3.971   6.607  0.9548 -2.8631  0.0370
10479SOL     OW32052   1.045   2.481   2.143 -0.5569 -0.3636 -0.9150
10479SOL    HW132053   1.003   2.451   2.062 -2.8192 -0.8731  0.3509
10479SOL    HW232054   1.060   2.401   2.193  1.3637 -0.1102 -1.0244
10480SOL     OW32055   2.834   5.599   0.402  0.2848 -0.1125  0.2615
10480SOL    HW132056   2.752   5.647   0.387 -1.0462 -2.1908  0.5492
10480SOL    HW232057   2.831   5.525   0.342  1.2989 -0.9829  1.2353
10481SOL     OW32058   4.280   2.876   4.526 -0.4568  0.3250 -0.6922
10481SOL    HW132059   4.327   2.824   4.460 -1.2005  0.7934 -1.6270
10481SOL    HW232060   4.317   2.964   4.518 -2.5295  1.1393 -2.6447
10482SOL     OW32061   1.644   3.497   5.130 -0.4388 -0.5851  0.0901
10482SOL    HW132062   1.734   3.485   5.158  0.6832 -0.6770 -3.1285
10482SOL    HW232063   1.598   3.528   5.208  2.7334  1.1621  1.4580
10483SOL     OW32064   0.007   1.272   5.062  0.5116  0.3764  0.3023
10483SOL    HW132065  -0.068   1.320   5.026  1.8706  0.9003 -2.0582
10483SOL    HW232066   0.030   1.321   5.141 -2.6443 -0.8592  2.1875
10484SOL     OW32067   5.352   1.120   2.583 -0.0607  0.7787 -0.4243
10484SOL    HW132068   5.275   1.123   2.526 -0.0720  0.5439 -0.4241
10484SOL    HW232069   5.317   1.127   2.671 -0.0653  0.8697 -0.4330
10485SOL     OW32070   4.440   0.895   6.985 -0.3646  0.2827  0.2966
10485SOL    HW132071   4.364   0.884   7.041  0.2204  1.1258  1.2953
10485SOL    HW232072   4.447   0.813   6.937 -2.0505  0.3033 -0.0131
10486SOL     OW32073   3.713   7.035   2.037 -0.5793  0.2561 -0.4165
10486SOL    HW132074   3.670   7.047   2.122 -0.5293  1.4467 -0.5374
10486SOL    HW232075   3.764   6.955   2.047 -0.5851  0.3758  0.6750
10487SOL     OW32076   5.381   4.033   6.538 -0.2937  0.0818  0.3653
10487SOL    HW132077   5.390   4.108   6.479 -1.4940  0.4347  0.6008
10487SOL    HW232078   5.341   4.069   6.617  2.4014 -0.1354  1.9751
10488SOL     OW32079   0.656   2.897   1.019  1.2047 -0.3121  0.1302
10488SOL    HW132080   0.682   2.989   1.020  1.1519 -0.2655 -1.1877
10488SOL    HW232081   0.681   2.866   0.932 -0.4448 -1.0466 -0.1178
10489SOL     OW32082   5.536   5.430   5.161  0.0457 -0.3958 -0.2848
10489SOL    HW132083   5.575   5.361   5.109  1.0224 -0.6554  0.7448
10489SOL    HW232084   5.502   5.386   5.239  2.1512  0.4046  1.1931
10490SOL     OW32085   3.983   3.194   0.640 -0.2819  0.3913  0.6077
10490SOL    HW132086   4.037   3.196   0.719  1.9565  1.7053 -0.8249
10490SOL    HW232087   4.030   3.136   0.580 -0.1656  1.8858 -0.8353
10491SOL     OW32088   6.471   3.849   4.505  0.4128  0.1588 -0.3638
10491SOL    HW132089   6.422   3.793   4.564  0.5697  0.5360  0.1295
10491SOL    HW232090   6.455   3.938   4.537 -1.5695  0.6345 -2.3787
10492SOL     OW32091   2.160   0.324   0.212 -0.1584  0.2333  0.3847
10492SOL    HW132092   2.081   0.321   0.266 -0.1841 -0.9114  0.3089
10492SOL    HW232093   2.128   0.331   0.122 -0.1974 -0.3408  0.3449
10493SOL     OW32094   0.651   0.582   0.008  0.4657  0.1351  0.2238
10493SOL    HW132095   0.735   0.571   0.051  1.3664  2.5466 -0.7201
10493SOL    HW232096   0.667   0.556  -0.083  0.7034  2.0426 -0.3332
10494SOL     OW32097   2.788   5.378   0.247  0.4962  0.4161 -0.0375
10494SOL    HW132098   2.772   5.404   0.156 -1.2142 -1.7681 -0.4724
10494SOL    HW232099   2.825   5.290   0.240 -0.8369 -0.2991  1.3571
10495SOL     OW32100   0.777   6.437   1.899 -0.2075 -0.5370 -0.0313
10495SOL    HW132101   0.762   6.532   1.897  2.2377 -0.0569  0.4795
10495SOL    HW232102   0.745   6.409   1.985  0.1285  0.0501  0.2889
10496SOL     OW32103   4.009   6.588   7.194  0.3632 -0.4349 -0.5519
10496SOL    HW132104   4.090   6.552   7.229 -0.0243 -0.5624  0.2340
10496SOL    HW232105   3.951   6.512   7.187  0.0673 -0.2216 -0.3990
10497SOL     OW32106   4.316   6.073   1.690  0.2876 -0.1698 -0.2936
10497SOL    HW132107   4.241   6.113   1.647 -0.4370 -2.3408 -1.1596
10497SOL    HW232108   4.391   6.125   1.661 -0.8364  2.3481  0.9731
10498SOL     OW32109   0.968   1.826   0.918 -0.5555  0.2338 -0.6371
10498SOL    HW132110   0.900   1.893   0.915  1.4809  2.6194  1.3612
10498SOL    HW232111   0.944   1.771   0.992  0.0289  1.6013  0.6301
10499SOL     OW32112   4.037   3.301   5.379  0.7573  0.1875 -0.6618
10499SOL    HW132113   3.942   3.307   5.366  0.7888 -0.0287 -1.0051
10499SOL    HW232114   4.073   3.376   5.332  0.7935 -0.0079 -0.9456
10500SOL     OW32115   0.354   3.038   5.680 -0.2186 -0.2595  0.3547
10500SOL    HW132116   0.320   3.125   5.698  1.2525  0.0042  2.0604
10500SOL    HW232117   0.333   3.023   5.587 -0.9295  1.6885  0.1626
10501SOL     OW32118   6.897   5.632   0.040  0.1063  0.5066  0.3683
10501SOL    HW132119   6.965   5.587  -0.009  1.0674  1.0996  1.1015
10501SOL    HW232120   6.945   5.696   0.093 -1.0083  0.8013  1.0531
10502SOL     OW32121   6.125   5.276   0.645  0.5884  0.0878 -0.1633
10502SOL    HW132122   6.182   5.340   0.687 -0.1133 -0.4703  1.7353
10502SOL    HW232123   6.113   5.309   0.555  0.4683  2.4698  0.6629
10503SOL     OW32124   7.162   2.794   2.801  0.6457  0.5539  0.0307
10503SOL    HW132125   7.105   2.718   2.805 -1.1244  1.8859  1.7663
10503SOL    HW232126   7.250   2.758   2.812 -0.2083 -1.2105  1.7721
10504SOL     OW32127   0.329   3.570   1.483  0.2946  0.2525  0.0148
10504SOL    HW132128   0.320   3.558   1.578 -1.1577  1.7676  0.1128
10504SOL    HW232129   0.369   3.656   1.474 -0.7688  0.6853 -0.7518
10505SOL     OW32130   5.192   2.480   0.237  0.1948 -0.1006 -0.0094
10505SOL    HW132131   5.194   2.399   0.186  0.7201 -0.9350  1.2903
10505SOL    HW232132   5.245   2.462   0.314  0.3179  1.4898  0.3231
10506SOL     OW32133   4.080   5.344   1.598 -0.2889  0.6513  0.0005
10506SOL    HW132134   4.003   5.384   1.638 -0.2959  2.1089 -1.3578
10506SOL    HW232135   4.124   5.417   1.553 -0.1818 -0.7877 -2.4348
10507SOL     OW32136   4.522   5.022   6.975 -0.3412  0.1511  0.3733
10507SOL    HW132137   4.437   4.978   6.968 -0.2890  0.1902 -0.5883
10507SOL    HW232138   4.584   4.951   6.990 -0.0761 -0.3332 -2.4701
10508SOL     OW32139   1.794   5.199   2.965 -0.0968  0.2294 -0.2611
10508SOL    HW132140   1.764   5.176   2.877 -1.4774 -0.1029  0.2726
10508SOL    HW232141   1.809   5.293   2.962  1.3493 -0.0048 -1.2585
10509SOL     OW32142   5.223   3.348   4.485 -0.1707 -0.4700 -0.0317
10509SOL    HW132143   5.145   3.315   4.440  0.3077 -2.0265  0.2232
10509SOL    HW232144   5.296   3.323   4.429  0.1197  1.9801 -0.8420
10510SOL     OW32145   5.921   4.848   3.826 -0.0869  0.5071 -0.0997
10510SOL    HW132146   5.849   4.819   3.771 -1.1424  0.1464  1.3919
10510SOL    HW232147   5.909   4.800   3.908  1.7762  0.5588  0.2382
10511SOL     OW32148   2.605   2.010   3.778  0.3256  0.1211  0.7298
10511SOL    HW132149   2.576   2.077   3.839  0.4982  1.6701 -0.8326
10511SOL    HW232150   2.698   2.027   3.766  0.5369 -0.8714  0.8563
10512SOL     OW32151   3.620   7.239   1.720  0.0127 -0.3413  0.4148
10512SOL    HW132152   3.656   7.298   1.786 -1.6201 -0.1685  1.1981
10512SOL    HW232153   3.540   7.204   1.759 -1.2888  0.1478 -1.5973
10513SOL     OW32154   0.434   4.629   6.488  0.1638 -0.0384 -0.6952
10513SOL    HW132155   0.481   4.577   6.553  1.6475  2.0190 -0.0089
10513SOL    HW232156   0.414   4.711   6.533 -1.8411  0.1306 -1.8154
10514SOL     OW32157   0.005   6.456   2.188  0.1646  0.3945 -0.4488
10514SOL    HW132158  -0.005   6.453   2.092 -1.7221  2.0981 -0.3518
10514SOL    HW232159   0.035   6.545   2.206 -0.8336  0.5237  0.6431
10515SOL     OW32160   4.035   6.111   6.705  0.2125 -0.5288  0.4444
10515SOL    HW132161   4.105   6.088   6.766  1.0304  0.1065 -0.2282
10515SOL    HW232162   4.075   6.105   6.618 -0.1281  1.2537  0.1188
10516SOL     OW32163   4.977   7.255   3.024 -0.5589 -0.3945  0.2025
10516SOL    HW132164   4.984   7.306   2.943  3.1277 -0.4062  0.3749
10516SOL    HW232165   4.932   7.175   2.997  1.3914 -0.7981 -2.1200
10517SOL     OW32166   5.186   0.725   4.645  0.3582 -0.3252 -0.2383
10517SOL    HW132167   5.181   0.635   4.613  0.8357  0.0529 -1.4284
10517SOL    HW232168   5.267   0.759   4.607  0.6380  0.3390  0.9223
10518SOL     OW32169   3.086   5.507   2.298  0.6237  0.0255  0.3063
10518SOL    HW132170   3.128   5.593   2.290  0.7106  0.1123  1.5125
10518SOL    HW232171   3.138   5.461   2.364 -0.7497 -0.1150  1.3417
10519SOL     OW32172   4.429   6.282   4.581 -0.3146 -0.4348  0.1532
10519SOL    HW132173   4.458   6.369   4.608  1.3559 -1.8628  3.5372
10519SOL    HW232174   4.506   6.226   4.591 -1.7308 -2.6322 -0.3537
10520SOL     OW32175   3.281   0.771   4.108 -0.0194 -0.2827  0.8527
10520SOL    HW132176   3.313   0.798   4.023  0.5269 -2.0591  0.4587
10520SOL    HW232177   3.340   0.812   4.171  0.6311 -0.3588  0.2922
10521SOL     OW32178   3.964   0.155   3.907 -0.1622  0.0346 -0.2595
10521SOL    HW132179   3.916   0.096   3.966  0.7429 -1.0764 -0.5946
10521SOL    HW232180   4.049   0.113   3.896  0.5110  1.4234 -0.5267
10522SOL     OW32181   0.731   3.676   6.088  0.4886 -0.0254 -0.6188
10522SOL    HW132182   0.640   3.689   6.061  0.5677 -1.7627 -1.8430
10522SOL    HW232183   0.782   3.693   6.009  1.2568  0.8263  0.0305
10523SOL     OW32184   6.095   3.794   4.354 -0.0837 -0.2494  0.5918
10523SOL    HW132185   6.039   3.802   4.431  1.1789 -0.3351  1.5533
10523SOL    HW232186   6.064   3.861   4.294 -1.1426 -0.2271  1.1486
10524SOL     OW32187   0.276   2.758   2.007  0.4133  0.1808  0.3023
10524SOL    HW132188   0.199   2.812   2.023 -1.4616 -2.2492  0.1662
10524SOL    HW232189   0.310   2.738   2.094  0.6836  0.9641  0.3810
10525SOL     OW32190   3.889   0.528   3.013  0.1572 -0.8911 -0.1439
10525SOL    HW132191   3.912   0.462   3.078  1.9049  1.2317  1.5610
10525SOL    HW232192   3.829   0.587   3.058 -2.1096 -1.6724 -1.9163
10526SOL     OW32193   4.523   6.813   2.744  0.5196  0.1306 -0.1771
10526SOL    HW132194   4.475   6.867   2.808 -1.8328 -1.0610 -0.8226
10526SOL    HW232195   4.508   6.857   2.660  0.7485 -0.1363 -0.3586
10527SOL     OW32196   3.838   1.086   0.321  0.1221 -0.2522  0.0437
10527SOL    HW132197   3.806   1.104   0.409 -0.1242 -0.5775  0.0230
10527SOL    HW232198   3.825   0.992   0.309 -0.2993 -0.1293 -0.5121
10528SOL     OW32199   1.915   5.881   0.570  0.2601  0.4007  0.0318
10528SOL    HW132200   1.849   5.815   0.592  0.0353  0.4326 -0.5300
10528SOL    HW232201   1.948   5.911   0.655 -1.2111  1.1744  0.3507
10529SOL     OW32202   7.042   6.314   5.042 -0.3951 -0.3687  0.0581
10529SOL    HW132203   7.056   6.376   5.114 -0.3023  1.0858 -1.1668
10529SOL    HW232204   7.066   6.229   5.079 -2.6574 -0.0614  2.4921
10530SOL     OW32205   2.417   5.825   0.410 -0.0830 -0.6606 -0.1596
10530SOL    HW132206   2.469   5.809   0.332  0.5945  0.7953 -0.0277
10530SOL    HW232207   2.326   5.818   0.379  0.1765 -0.8339 -0.9139
10531SOL     OW32208   2.973   4.118   4.391  0.2129  0.0342 -0.1108
10531SOL    HW132209   3.022   4.145   4.469  2.0306  0.2909 -1.2833
10531SOL    HW232210   2.884   4.102   4.423  0.3783  2.1562  1.6126
10532SOL     OW32211   5.087   1.786   5.248 -0.0445  0.2565 -0.0585
10532SOL    HW132212   5.032   1.782   5.327  0.3628 -0.3622  0.1990
10532SOL    HW232213   5.129   1.701   5.244  0.8635  0.7106 -0.2791
10533SOL     OW32214   6.911   3.587   5.061  0.0153  0.1991  0.5179
10533SOL    HW132215   6.841   3.555   5.005  0.3909 -0.9063  0.6690
10533SOL    HW232216   6.958   3.651   5.006 -0.4921  0.1985  0.0762
10534SOL     OW32217   5.371   7.220   0.572  0.3367 -0.3575 -0.1993
10534SOL    HW132218   5.410   7.298   0.532 -1.3298  1.4657  1.5013
10534SOL    HW232219   5.381   7.235   0.666 -1.0411 -1.6614  0.1728
10535SOL     OW32220   2.547   3.091   4.738 -0.0639 -0.2865 -0.4688
10535SOL    HW132221   2.452   3.098   4.740 -0.1170 -1.0256 -0.0312
10535SOL    HW232222   2.573   3.140   4.660 -0.8742 -0.8202 -1.0906
10536SOL     OW32223   1.153   0.554   5.289  0.8373 -0.2311  0.1739
10536SOL    HW132224   1.093   0.482   5.270 -0.9793  0.7857  1.7424
10536SOL    HW232225   1.117   0.629   5.241  0.0605  0.7017  2.1248
10537SOL     OW32226   4.284   0.074   6.400  0.1905 -0.1663 -0.1525
10537SOL    HW132227   4.216   0.130   6.363  0.3300 -0.1366 -0.3649
10537SOL    HW232228   4.276   0.085   6.495  0.6888  0.7725 -0.2073
10538SOL     OW32229   0.319   6.746   1.698 -0.6866 -0.1630  0.0028
10538SOL    HW132230   0.253   6.718   1.762 -0.8498  0.2984  0.0330
10538SOL    HW232231   0.270   6.762   1.618 -0.6490  0.4477  0.1023
10539SOL     OW32232   2.162   4.981   1.694  0.2141 -0.1327 -0.3798
10539SOL    HW132233   2.105   4.907   1.674  0.9283 -0.5913 -0.7408
10539SOL    HW232234   2.250   4.946   1.691  0.5099  0.4848  0.5737
10540SOL     OW32235   4.135   7.092   0.242 -0.1069  0.2830  1.0530
10540SOL    HW132236   4.230   7.088   0.238 -0.1844 -0.8831 -0.3786
10540SOL    HW232237   4.106   7.003   0.222 -1.5204  1.2687 -1.8884
10541SOL     OW32238   0.015   1.994   6.836  0.0960 -0.7811 -0.1323
10541SOL    HW132239  -0.077   2.014   6.854  0.9639  1.5654  2.3302
10541SOL    HW232240   0.025   1.903   6.863 -1.1313 -0.5650  1.1594
10542SOL     OW32241   1.969   0.127   4.726  0.4487  0.2421 -0.8067
10542SOL    HW132242   1.939   0.049   4.680  1.4779 -0.2330 -0.6969
10542SOL    HW232243   2.048   0.154   4.680  0.0541  1.2931 -0.9059
10543SOL     OW32244   5.655   1.668   5.400 -0.0526 -0.0823 -0.5010
10543SOL    HW132245   5.572   1.715   5.404  0.3179  0.5013  1.5477
10543SOL    HW232246   5.693   1.694   5.316  0.0108  3.1575  0.4108
10544SOL     OW32247   4.209   3.683   6.391  0.5209 -0.0843  0.5581
10544SOL    HW132248   4.186   3.775   6.385 -0.8701 -0.3634  1.2257
10544SOL    HW232249   4.197   3.660   6.483  0.0421 -1.1183  0.2628
10545SOL     OW32250   3.544   2.563   4.534  0.3167  0.0620  0.1940
10545SOL    HW132251   3.557   2.543   4.627 -0.7277  0.5029  0.4505
10545SOL    HW232252   3.567   2.656   4.527 -2.2360  0.7928  0.6099
10546SOL     OW32253   2.657   6.623   5.048 -0.5536 -0.3037  0.4307
10546SOL    HW132254   2.612   6.687   5.103 -2.0171  0.4796 -1.5669
10546SOL    HW232255   2.670   6.667   4.964  0.6564 -1.7984 -0.2301
10547SOL     OW32256   1.677   2.075   7.212  0.0915 -0.1433 -0.1257
10547SOL    HW132257   1.706   2.105   7.298 -1.3457  0.8098  0.0686
10547SOL    HW232258   1.686   1.980   7.215  2.2493  0.0150  0.2132
10548SOL     OW32259   2.248   2.950   0.728 -0.4440 -0.8304  0.3038
10548SOL    HW132260   2.271   2.926   0.638  0.6478 -1.1599  0.6589
10548SOL    HW232261   2.230   3.044   0.724  2.9789 -0.0417  0.3225
10549SOL     OW32262   4.218   2.713   4.725 -0.5251 -0.2389 -0.0488
10549SOL    HW132263   4.253   2.777   4.663 -0.2748  0.3207  0.6616
10549SOL    HW232264   4.133   2.688   4.689 -0.8689  0.9011 -0.0373
10550SOL     OW32265   5.768   2.532   1.426  0.3436  0.1240  0.1621
10550SOL    HW132266   5.703   2.599   1.405 -1.3167 -0.6027  2.5578
10550SOL    HW232267   5.787   2.490   1.342 -2.8563 -0.0706 -0.6313
10551SOL     OW32268   2.187   5.005   2.404  0.2406 -0.1405  0.2100
10551SOL    HW132269   2.206   4.959   2.322  1.1442  0.7711 -0.1118
10551SOL    HW232270   2.248   4.968   2.467 -0.4794 -0.8676  0.5017
10552SOL     OW32271   0.861   4.816   3.888 -0.3700  0.1063 -0.1572
10552SOL    HW132272   0.806   4.845   3.815  1.9962  0.0981 -2.0602
10552SOL    HW232273   0.918   4.890   3.906  2.0106 -1.3298 -1.3368
10553SOL     OW32274   5.604   5.608   5.345 -0.0528  0.2238 -0.1082
10553SOL    HW132275   5.649   5.556   5.411 -0.0835 -0.1552 -0.3858
10553SOL    HW232276   5.561   5.544   5.289  1.0632  0.4695 -1.2952
10554SOL     OW32277   5.637   4.834   3.716  0.1701  0.5502 -0.2177
10554SOL    HW132278   5.564   4.897   3.718 -1.5671 -1.3395 -0.4009
10554SOL    HW232279   5.621   4.778   3.793  1.5115  0.1805 -0.1937
10555SOL     OW32280   5.654   6.814   6.252  0.8676 -0.1546  0.2152
10555SOL    HW132281   5.728   6.782   6.302  1.7362  0.7711 -0.4259
10555SOL    HW232282   5.591   6.742   6.252  1.4985 -0.7230  1.2982
10556SOL     OW32283   4.352   4.605   4.116 -0.2730 -0.6995  0.3459
10556SOL    HW132284   4.379   4.517   4.143  2.2307 -0.0483  0.2881
10556SOL    HW232285   4.376   4.661   4.190 -0.5026  0.1044 -0.1756
10557SOL     OW32286   5.465   1.359   7.252  0.0055  0.3728  0.0024
10557SOL    HW132287   5.443   1.452   7.256 -2.2989 -0.1089  0.3255
10557SOL    HW232288   5.475   1.333   7.344 -0.5685  0.0690 -0.0155
10558SOL     OW32289   1.948   1.076   2.961 -0.0335 -0.6538  0.1173
10558SOL    HW132290   1.945   1.169   2.986 -4.2430 -1.0341  1.9178
10558SOL    HW232291   1.914   1.074   2.872  0.0550 -0.4512  0.0783
10559SOL     OW32292   2.949   6.940   2.633  0.0577 -0.3729 -0.5655
10559SOL    HW132293   2.994   6.919   2.714 -0.7372 -0.1871 -0.0685
10559SOL    HW232294   2.881   6.873   2.624 -0.6817  0.3450 -0.4125
10560SOL     OW32295   5.864   1.460   6.496  0.1598 -1.1025 -0.5574
10560SOL    HW132296   5.875   1.460   6.401 -0.3770  0.3521 -0.6575
10560SOL    HW232297   5.844   1.552   6.517 -0.0098 -1.4563  0.9250
10561SOL     OW32298   5.983   7.123   3.215 -0.4331  0.0067  0.2919
10561SOL    HW132299   5.966   7.190   3.281 -0.8913 -1.5645  1.8448
10561SOL    HW232300   6.067   7.147   3.177  0.4239  0.3402  2.3000
10562SOL     OW32301   5.205   3.916   2.515  0.2599 -0.3197  0.4375
10562SOL    HW132302   5.300   3.911   2.519  0.3745  0.8441 -0.3244
10562SOL    HW232303   5.176   3.887   2.601  1.3761  0.6541  1.1772
10563SOL     OW32304   1.314   3.686   0.234 -0.0798  0.4711 -0.0866
10563SOL    HW132305   1.403   3.679   0.268  0.9455  1.1916 -2.4625
10563SOL    HW232306   1.302   3.780   0.216 -0.2894  0.0814 -2.2505
10564SOL     OW32307   3.657   0.738   2.619  0.3693  0.0107 -0.1076
10564SOL    HW132308   3.714   0.779   2.684 -0.5223 -0.2527  0.8579
10564SOL    HW232309   3.717   0.699   2.556  1.2736 -0.4577  1.0129
10565SOL     OW32310   7.231   1.441   4.572 -0.0242 -0.1030  0.8968
10565SOL    HW132311   7.182   1.452   4.490  0.4015  0.3800  0.6990
10565SOL    HW232312   7.321   1.461   4.549  0.2371 -0.8088  1.3014
10566SOL     OW32313   5.866   1.002   1.645  0.0148  0.2492  0.3213
10566SOL    HW132314   5.782   1.025   1.605 -0.1519  0.0323  0.5416
10566SOL    HW232315   5.858   0.909   1.665  1.0671 -0.2840 -1.5236
10567SOL     OW32316   5.079   2.869   5.091  0.0467 -0.0911  0.1335
10567SOL    HW132317   4.999   2.870   5.143 -0.6381 -1.1567 -0.8608
10567SOL    HW232318   5.115   2.781   5.102  0.0829 -0.2192 -0.8884
10568SOL     OW32319   5.039   4.733   0.435  0.2553  0.0929 -0.0523
10568SOL    HW132320   4.980   4.689   0.496  0.1591  0.4496  0.1145
10568SOL    HW232321   5.116   4.754   0.488 -0.3870  1.6424  0.3187
10569SOL     OW32322   5.294   5.248   5.191 -0.2375  0.4238  0.6197
10569SOL    HW132323   5.367   5.206   5.145  0.8903  2.7202  0.2071
10569SOL    HW232324   5.330   5.269   5.278 -1.4543 -1.2762  1.5907
10570SOL     OW32325   3.572   1.199   3.586 -0.5603 -0.2922 -0.1077
10570SOL    HW132326   3.636   1.136   3.618  0.0759  0.8536  0.9709
10570SOL    HW232327   3.506   1.203   3.654 -1.3761 -0.8582 -0.8455
10571SOL     OW32328   4.991   5.080   5.842  0.0469 -0.3319 -0.5493
10571SOL    HW132329   4.960   5.166   5.813  0.9854  0.5391  0.9171
10571SOL    HW232330   5.040   5.046   5.767 -0.6355  0.2450 -1.2728
10572SOL     OW32331   1.644   5.198   0.702 -0.0281  0.1811  0.5428
10572SOL    HW132332   1.720   5.182   0.757  0.0408 -0.2204  0.3317
10572SOL    HW232333   1.577   5.139   0.736 -0.1971  0.4290  0.6358
10573SOL     OW32334   5.672   6.496   3.845  0.4310  0.4777 -0.3453
10573SOL    HW132335   5.665   6.472   3.752 -0.0760  1.5560 -0.6021
10573SOL    HW232336   5.761   6.531   3.853  1.1387 -1.2902  0.0095
10574SOL     OW32337   0.680   4.784   6.642  0.0810 -0.0469 -0.1100
10574SOL    HW132338   0.706   4.861   6.592  1.5043  0.0193  0.6843
10574SOL    HW232339   0.589   4.801   6.666 -0.1948  0.5374 -1.4848
10575SOL     OW32340   1.180   6.493   1.537 -0.1356 -0.2525  0.4658
10575SOL    HW132341   1.169   6.535   1.452  2.4279 -0.6788 -0.1409
10575SOL    HW232342   1.093   6.496   1.576 -0.8049  2.3770 -1.0187
10576SOL     OW32343   1.444   3.862   5.502 -0.4026  0.0827  0.0844
10576SOL    HW132344   1.412   3.866   5.412  0.1287  1.1172 -0.0803
10576SOL    HW232345   1.472   3.952   5.522 -1.3068  0.0683  1.5868
10577SOL     OW32346   6.485   6.161   4.228 -0.4193  0.5144  0.5172
10577SOL    HW132347   6.418   6.137   4.292 -1.2617  0.6748 -0.2778
10577SOL    HW232348   6.508   6.078   4.185 -0.8673  0.6077  0.0874
10578SOL     OW32349   4.362   5.004   5.486  0.2215 -0.2478  0.1176
10578SOL    HW132350   4.381   5.081   5.540  0.1568  0.4316 -0.8031
10578SOL    HW232351   4.271   4.984   5.504  0.3047 -0.2574  0.5405
10579SOL     OW32352   5.565   6.049   1.150 -0.5733  0.1702  0.6359
10579SOL    HW132353   5.572   6.056   1.245 -1.9795  0.3541  0.7479
10579SOL    HW232354   5.567   5.955   1.133 -0.2186  0.1397  0.8315
10580SOL     OW32355   4.339   3.895   0.462 -0.1119 -0.4866 -0.0405
10580SOL    HW132356   4.316   3.822   0.519  2.1493 -2.1815 -1.1565
10580SOL    HW232357   4.324   3.973   0.516  0.2755 -1.9044  2.2628
10581SOL     OW32358   4.705   1.242   0.296  0.6161 -0.4216  0.0710
10581SOL    HW132359   4.651   1.219   0.220  0.4995  0.5248 -0.1466
10581SOL    HW232360   4.669   1.325   0.327  0.7531 -0.7313  1.0867
10582SOL     OW32361   7.170   3.106   6.470  0.0175  0.1484 -0.2602
10582SOL    HW132362   7.222   3.062   6.402 -0.8259 -2.3553  0.6106
10582SOL    HW232363   7.145   3.189   6.430  0.8663 -0.5560 -2.4122
10583SOL     OW32364   7.245   2.892   4.135 -0.2823 -0.6986  0.0797
10583SOL    HW132365   7.270   2.951   4.206 -0.9689  0.4662 -0.6129
10583SOL    HW232366   7.304   2.915   4.063 -1.2145 -0.1222 -0.5244
10584SOL     OW32367   2.691   4.239   3.872 -0.0624  0.0227 -0.4030
10584SOL    HW132368   2.604   4.198   3.873  0.0871 -0.3791 -1.6987
10584SOL    HW232369   2.706   4.258   3.779  0.7390  1.1685 -0.0540
10585SOL     OW32370   1.337   1.060   2.298  0.9186  0.0261  0.4807
10585SOL    HW132371   1.424   1.022   2.304  1.7608  1.7861  0.0909
10585SOL    HW232372   1.339   1.135   2.357 -0.1206  0.4647 -0.0086
10586SOL     OW32373   1.346   3.607   3.872  0.5159  0.3555 -0.4073
10586SOL    HW132374   1.378   3.518   3.860  2.8872  1.0286  0.3152
10586SOL    HW232375   1.327   3.638   3.784  0.7029 -0.5120 -0.7641
10587SOL     OW32376   5.288   0.391   5.865  0.0582  0.3048 -0.3141
10587SOL    HW132377   5.193   0.381   5.855  0.1116 -0.2524 -0.3424
10587SOL    HW232378   5.313   0.319   5.923  0.5263  0.1520 -0.6938
10588SOL     OW32379   6.667   3.034   1.296 -0.3170  0.1091 -0.1789
10588SOL    HW132380   6.731   3.065   1.232 -0.6655 -1.3192 -1.2677
10588SOL    HW232381   6.696   3.072   1.379  1.1355  0.6188 -0.8805
10589SOL     OW32382   1.522   3.269   4.363  0.3669 -0.1611  0.3571
10589SOL    HW132383   1.585   3.221   4.418  0.5994  0.2307  0.4374
10589SOL    HW232384   1.559   3.262   4.275  0.5032  0.0319  0.3975
10590SOL     OW32385   5.616   1.494   5.107 -0.3347  0.2097  0.3237
10590SOL    HW132386   5.653   1.429   5.048 -0.7927 -1.3916  1.7310
10590SOL    HW232387   5.688   1.555   5.124  0.1409  0.0157 -0.9077
10591SOL     OW32388   6.003   1.391   1.526  0.2347 -0.8146  0.5496
10591SOL    HW132389   5.984   1.480   1.500 -1.4887 -1.2403  0.2718
10591SOL    HW232390   5.982   1.337   1.450  2.4133 -1.4044  0.2698
10592SOL     OW32391   5.476   5.716   1.376 -0.0840  0.0319  0.2627
10592SOL    HW132392   5.406   5.664   1.417  1.7407 -0.9232  2.3905
10592SOL    HW232393   5.488   5.790   1.435 -0.5897  1.3156 -1.1642
10593SOL     OW32394   4.991   0.242   4.442  0.1676 -0.1227 -0.4892
10593SOL    HW132395   4.912   0.289   4.468  0.2636  0.0381 -0.4798
10593SOL    HW232396   5.050   0.251   4.518  0.6067  0.7057 -0.9141
10594SOL     OW32397   5.217   1.546   3.284  0.0433  0.3045 -0.3455
10594SOL    HW132398   5.191   1.531   3.375  1.9246 -0.4714  0.1107
10594SOL    HW232399   5.257   1.633   3.284 -1.3257  0.9544 -0.7762
10595SOL     OW32400   3.987   3.404   2.333 -0.3562  0.0163  0.3936
10595SOL    HW132401   3.990   3.483   2.279 -1.4424 -1.2980 -1.6909
10595SOL    HW232402   3.907   3.413   2.385 -0.1368  0.5528  0.6483
10596SOL     OW32403   4.290   5.055   6.741  0.1110 -1.0282  0.0767
10596SOL    HW132404   4.245   5.033   6.823  1.1091  0.3453  1.0342
10596SOL    HW232405   4.228   5.110   6.693 -0.4044 -1.6795 -0.0154
10597SOL     OW32406   1.948   0.279   3.475 -0.5096  0.0501 -0.4377
10597SOL    HW132407   1.999   0.245   3.549  0.1779 -1.3832 -1.5204
10597SOL    HW232408   1.878   0.215   3.464 -2.1414  1.5959  0.5357
10598SOL     OW32409   5.559   3.573   2.871 -0.2627  0.3865  0.6894
10598SOL    HW132410   5.633   3.632   2.859 -0.1592  0.4291  1.4514
10598SOL    HW232411   5.494   3.602   2.807  0.4894  0.1523 -0.1928
10599SOL     OW32412   5.376   1.405   0.768 -0.3924  0.0492  0.6371
10599SOL    HW132413   5.446   1.470   0.773  0.5230 -0.7608 -0.7860
10599SOL    HW232414   5.380   1.358   0.850  0.4864  0.2687  0.7257
10600SOL     OW32415   5.106   5.173   6.769 -0.1725  0.0060  0.0856
10600SOL    HW132416   5.181   5.159   6.828 -1.3452  0.2990  1.7039
10600SOL    HW232417   5.040   5.110   6.798 -1.5127  1.4958  0.4246
10601SOL     OW32418   3.684   5.285   5.622  0.2639  0.5688 -0.1984
10601SOL    HW132419   3.628   5.234   5.680  0.1648  2.0734  1.1022
10601SOL    HW232420   3.773   5.268   5.654  0.5683 -1.3055 -1.8506
10602SOL     OW32421   5.334   2.281   5.855  0.4010 -0.3159 -0.2728
10602SOL    HW132422   5.381   2.280   5.772  1.2545  1.5675  0.1328
10602SOL    HW232423   5.403   2.265   5.921 -0.1339 -1.0273  0.1264
10603SOL     OW32424   6.496   3.449   1.816 -0.0211  0.1810 -0.1083
10603SOL    HW132425   6.501   3.379   1.880 -3.2396  0.8696  1.0506
10603SOL    HW232426   6.565   3.510   1.842  0.2719 -0.6948  1.2347
10604SOL     OW32427   7.139   1.464   2.409  0.0931  0.3515  0.0223
10604SOL    HW132428   7.137   1.545   2.460  0.2718  0.1135  0.4036
10604SOL    HW232429   7.172   1.398   2.469  1.8786  0.3975 -0.8461
10605SOL     OW32430   4.268   4.459   0.829  0.5275 -0.2186 -0.5358
10605SOL    HW132431   4.212   4.420   0.761 -0.6664  0.4702  0.0344
10605SOL    HW232432   4.309   4.534   0.785 -1.6756  1.3616 -0.0400
10606SOL     OW32433   5.106   2.975   6.909  0.6542  0.2166  0.4367
10606SOL    HW132434   5.134   2.884   6.911  1.2298  0.3812 -0.0549
10606SOL    HW232435   5.182   3.024   6.878 -0.4928  0.5323 -2.1739
10607SOL     OW32436   6.951   0.650   7.201 -0.0818  0.5975 -0.8147
10607SOL    HW132437   7.039   0.661   7.237  0.1513 -0.9602 -0.8357
10607SOL    HW232438   6.907   0.733   7.218  1.6726  1.7514 -1.6280
10608SOL     OW32439   0.564   2.759   3.179 -0.2620 -0.1364 -0.2015
10608SOL    HW132440   0.513   2.727   3.253  1.3048 -0.0390  0.9654
10608SOL    HW232441   0.501   2.765   3.107 -2.0698  0.7939  1.3910
10609SOL     OW32442   0.715   3.636   6.355 -0.1242  0.2636 -0.1506
10609SOL    HW132443   0.723   3.656   6.262 -0.9773 -1.3612 -0.6202
10609SOL    HW232444   0.745   3.545   6.362  1.3361  0.8209  1.4253
10610SOL     OW32445   5.147   7.025   5.274  0.0080  0.2493  0.3959
10610SOL    HW132446   5.202   7.076   5.215  0.0830  0.5267  0.7076
10610SOL    HW232447   5.130   7.083   5.348  0.2126 -0.2273  0.8211
10611SOL     OW32448   1.035   4.030   2.748  0.2655 -0.1848 -0.3837
10611SOL    HW132449   1.098   3.963   2.773 -1.3303 -1.0499  1.4973
10611SOL    HW232450   0.991   4.055   2.829 -0.2308  2.0901 -1.2604
10612SOL     OW32451   5.671   1.798   3.423 -0.0608 -0.1158 -0.2689
10612SOL    HW132452   5.656   1.791   3.329  0.9894  1.5588 -0.5887
10612SOL    HW232453   5.758   1.759   3.436 -1.1111 -2.3829  0.3773
10613SOL     OW32454   4.280   0.028   6.977  0.5865  0.5241  0.7039
10613SOL    HW132455   4.287  -0.012   7.064 -0.5954  0.9765  1.0374
10613SOL    HW232456   4.186   0.029   6.959  0.9167 -1.8220 -1.6886
10614SOL     OW32457   1.756   0.755   1.140  0.1984  0.4205 -0.1363
10614SOL    HW132458   1.800   0.836   1.113  1.4771  0.4636  1.8715
10614SOL    HW232459   1.670   0.782   1.169  0.3500  0.9482 -0.1698
10615SOL     OW32460   5.206   6.771   6.917 -0.0400  0.3314  0.2358
10615SOL    HW132461   5.148   6.846   6.907  0.3733  0.5752 -0.3881
10615SOL    HW232462   5.291   6.809   6.941 -0.0917 -0.0145  1.0220
10616SOL     OW32463   0.579   3.451   2.667  0.3553  0.2745  0.0554
10616SOL    HW132464   0.623   3.374   2.701 -0.2886  0.3185  1.0302
10616SOL    HW232465   0.628   3.474   2.588  1.3488 -0.3482  0.4722
10617SOL     OW32466   6.168   0.761   7.141 -0.6644 -0.3911  0.7368
10617SOL    HW132467   6.187   0.770   7.234 -0.2312  2.0470  0.4647
10617SOL    HW232468   6.072   0.756   7.137 -0.7391  0.4030  1.2696
10618SOL     OW32469   2.806   6.707   2.895  0.2274  0.2785  0.3204
10618SOL    HW132470   2.742   6.776   2.912  0.0556 -0.2290  1.8795
10618SOL    HW232471   2.807   6.698   2.800 -1.3856  0.8800  0.2236
10619SOL     OW32472   0.784   5.696   6.302  0.4671  0.3014  0.3523
10619SOL    HW132473   0.708   5.733   6.348  2.2873  1.4693  2.6301
10619SOL    HW232474   0.834   5.772   6.273  0.3743 -0.4470 -1.9527
10620SOL     OW32475   5.099   6.145   6.797  0.3358  0.1094 -0.3066
10620SOL    HW132476   5.022   6.201   6.789 -0.2053 -0.5959 -0.1074
10620SOL    HW232477   5.064   6.059   6.819  1.2228 -0.0225  0.7038
10621SOL     OW32478   6.096   4.756   1.508 -0.6162 -0.4035 -0.0506
10621SOL    HW132479   6.178   4.800   1.486 -0.3615 -0.4525  0.7908
10621SOL    HW232480   6.033   4.827   1.520 -0.8452 -0.3846 -1.2302
10622SOL     OW32481   2.000   4.815   0.899 -0.3109 -0.0999  0.4615
10622SOL    HW132482   2.081   4.828   0.850 -0.7503  1.4313  0.0946
10622SOL    HW232483   1.965   4.903   0.910 -1.7402 -0.7125  0.9479
10623SOL     OW32484   3.280   4.623   6.345  0.4529 -0.4099 -0.4660
10623SOL    HW132485   3.357   4.637   6.289  1.3426  0.6964  0.9437
10623SOL    HW232486   3.291   4.686   6.416 -1.5301 -0.5704  0.0440
10624SOL     OW32487   1.485   2.199   3.724 -0.3732  0.1452  0.1520
10624SOL    HW132488   1.453   2.283   3.691 -2.0956 -0.3093  0.5410
10624SOL    HW232489   1.453   2.135   3.662  1.1375 -0.2370 -0.2706
10625SOL     OW32490   3.453   6.958   5.954  0.5712  0.4681  0.5734
10625SOL    HW132491   3.495   7.037   5.989 -0.4981  0.9757  0.7396
10625SOL    HW232492   3.502   6.885   5.994 -0.8659  0.9809  3.6227
10626SOL     OW32493   2.099   4.194   0.319 -0.4037 -0.5477 -0.2590
10626SOL    HW132494   2.138   4.153   0.397  1.9833  0.7430 -0.6925
10626SOL    HW232495   2.016   4.147   0.307 -0.3043 -1.5770  2.3522
10627SOL     OW32496   3.958   1.485   1.721  0.3525  0.0916  0.0728
10627SOL    HW132497   3.959   1.580   1.711 -0.5231  0.0309 -0.6244
10627SOL    HW232498   3.970   1.471   1.815  0.6561  0.8793  0.1593
10628SOL     OW32499   3.547   5.690   5.874 -0.0712 -0.1766  0.3676
10628SOL    HW132500   3.496   5.732   5.943  0.6708 -0.2925  1.0032
10628SOL    HW232501   3.505   5.718   5.792 -2.3709 -1.8044  0.8778
10629SOL     OW32502   5.009   1.236   0.837  0.4184  0.1539 -0.2485
10629SOL    HW132503   5.025   1.318   0.789 -1.0876 -1.2790 -3.4532
10629SOL    HW232504   5.096   1.206   0.862  1.1311  1.8456 -0.5183
10630SOL     OW32505   5.450   5.018   3.733 -0.3805 -0.2906 -0.4390
10630SOL    HW132506   5.402   5.068   3.667 -1.7130  1.1962  1.5474
10630SOL    HW232507   5.409   5.042   3.816  0.6159 -2.7643  0.8917
10631SOL     OW32508   4.491   2.479   1.061 -0.1098 -0.0448 -0.1106
10631SOL    HW132509   4.421   2.533   1.024  2.1119  1.6036 -2.3539
10631SOL    HW232510   4.480   2.394   1.020 -0.7780  0.1993 -0.4595
10632SOL     OW32511   7.060   5.753   4.193  0.5515 -0.1159 -0.1907
10632SOL    HW132512   7.060   5.741   4.288  1.3780 -1.2507 -0.3118
10632SOL    HW232513   6.986   5.811   4.176  0.3614  0.0655  1.1374
10633SOL     OW32514   0.421   6.326   0.624  0.4943  0.3596  0.1027
10633SOL    HW132515   0.437   6.346   0.532  1.8573 -0.1316  0.2049
10633SOL    HW232516   0.399   6.233   0.625  2.1451 -0.0663  0.4026
10634SOL     OW32517   5.602   2.148   0.948 -0.1351 -0.4049 -0.6206
10634SOL    HW132518   5.556   2.225   0.981  1.7075  1.0092 -1.1834
10634SOL    HW232519   5.608   2.089   1.023 -2.5521 -0.5282 -0.4694
10635SOL     OW32520   0.995   1.681   3.666 -0.0568 -0.0190 -0.1812
10635SOL    HW132521   0.951   1.602   3.635 -1.1116  0.6753 -0.4738
10635SOL    HW232522   1.061   1.699   3.599  0.5308 -0.9063  0.1281
10636SOL     OW32523   0.875   2.003   2.842  0.1176 -0.2009  0.0053
10636SOL    HW132524   0.827   2.060   2.781  0.4072  0.0480  0.0115
10636SOL    HW232525   0.910   1.933   2.787  0.1030 -0.1559 -0.0610
10637SOL     OW32526   6.543   5.383   5.686  0.2024  0.5222  0.2276
10637SOL    HW132527   6.485   5.307   5.680  1.2525 -0.4427  1.8710
10637SOL    HW232528   6.532   5.415   5.775  0.8676  1.4246 -0.0004
10638SOL     OW32529   0.430   6.108   2.199 -0.2019  0.1743 -0.0033
10638SOL    HW132530   0.511   6.095   2.247 -0.0603  0.4996 -0.1567
10638SOL    HW232531   0.363   6.115   2.267  0.0463  1.0036  0.1650
10639SOL     OW32532   0.373   7.210   1.177 -0.2271 -0.1401 -0.2587
10639SOL    HW132533   0.428   7.276   1.219  0.5964 -0.3594 -0.9544
10639SOL    HW232534   0.330   7.165   1.250  1.2327 -0.5767  0.3820
10640SOL     OW32535   0.322   5.350   1.396  1.0541  0.0177 -0.4716
10640SOL    HW132536   0.266   5.347   1.474 -0.6459  3.8637 -1.3357
10640SOL    HW232537   0.408   5.372   1.431  1.2351 -1.9421  0.5120
10641SOL     OW32538   7.135   5.928   2.251  0.1475  0.3029  0.4358
10641SOL    HW132539   7.071   5.987   2.213  0.4860 -0.2443 -1.0750
10641SOL    HW232540   7.219   5.959   2.218  0.3393 -0.9197 -0.3171
10642SOL     OW32541   5.934   6.341   0.625 -0.4340 -0.4364  0.2626
10642SOL    HW132542   5.894   6.384   0.701 -0.1998  0.6698 -0.2151
10642SOL    HW232543   5.861   6.322   0.566 -0.4218  0.3918 -0.0355
10643SOL     OW32544   5.111   0.744   7.044  0.2445 -0.1609  0.2986
10643SOL    HW132545   5.138   0.797   7.119 -1.4479  1.9365 -0.4901
10643SOL    HW232546   5.016   0.740   7.050 -0.0225  0.8591 -2.2087
10644SOL     OW32547   6.280   4.284   0.446 -0.0735  0.5624  1.0231
10644SOL    HW132548   6.327   4.282   0.362 -0.0501  0.6681  1.0331
10644SOL    HW232549   6.338   4.333   0.504 -0.4192  1.1432  0.8957
10645SOL     OW32550   2.716   2.374   5.884  0.3674 -0.1054 -0.7935
10645SOL    HW132551   2.771   2.380   5.805  1.2302 -0.2783 -0.2252
10645SOL    HW232552   2.745   2.293   5.927 -1.3062 -0.9524 -1.1764
10646SOL     OW32553   5.429   6.914   5.313 -0.4654  0.2686  0.1798
10646SOL    HW132554   5.520   6.911   5.283 -0.0568  3.1525  0.8551
10646SOL    HW232555   5.400   6.822   5.311  2.2397 -0.6632 -0.6058
10647SOL     OW32556   2.495   2.540   5.811 -0.1039  0.1576 -0.3533
10647SOL    HW132557   2.496   2.627   5.852 -2.0243  0.7478 -1.4438
10647SOL    HW232558   2.587   2.514   5.808  0.5748  2.3699 -0.4333
10648SOL     OW32559   3.337   4.257   5.274  0.9430 -0.2327 -0.4390
10648SOL    HW132560   3.254   4.220   5.243  0.7101  0.0898 -0.2137
10648SOL    HW232561   3.394   4.254   5.198  0.6020 -0.1086 -0.7066
10649SOL     OW32562   4.912   1.121   0.193 -0.9752  0.3358  0.0881
10649SOL    HW132563   4.830   1.156   0.228 -1.1900  0.0515 -0.1204
10649SOL    HW232564   4.976   1.133   0.263 -1.4349 -0.3772  0.6327
10650SOL     OW32565   6.557   5.353   3.910 -0.1198 -0.2635  0.2204
10650SOL    HW132566   6.506   5.389   3.983  0.8658  1.0941  0.2804
10650SOL    HW232567   6.541   5.259   3.913 -1.5170 -0.0209  1.0771
10651SOL     OW32568   5.190   1.330   6.637  0.5453  0.3710 -0.1152
10651SOL    HW132569   5.142   1.247   6.644 -0.2603  0.8461  0.0218
10651SOL    HW232570   5.272   1.313   6.685 -0.9647  0.6226  2.7828
10652SOL     OW32571   3.041   2.572   6.393  0.0141  0.2582 -0.1324
10652SOL    HW132572   2.948   2.572   6.373  0.1743  0.6233 -0.9360
10652SOL    HW232573   3.046   2.596   6.486 -0.6535  1.0243 -0.2860
10653SOL     OW32574   1.831   3.242   1.727 -0.2878  0.8212 -0.8544
10653SOL    HW132575   1.768   3.257   1.657 -1.0759  1.0672 -0.1078
10653SOL    HW232576   1.783   3.261   1.808 -0.0464 -1.4870 -0.0818
10654SOL     OW32577   2.528   6.922   2.283  0.7261 -0.4474 -0.0197
10654SOL    HW132578   2.569   6.911   2.197 -0.2866  1.6696 -0.8430
10654SOL    HW232579   2.565   7.003   2.317 -1.0652  0.3437  0.1756
10655SOL     OW32580   0.846   5.109   1.905 -0.4329 -0.2770  0.0526
10655SOL    HW132581   0.872   5.025   1.867 -1.7398 -0.9536  0.5730
10655SOL    HW232582   0.899   5.117   1.984  0.6081  0.0117 -0.6610
10656SOL     OW32583   5.689   2.747   0.379 -0.4958  0.4237  0.4333
10656SOL    HW132584   5.709   2.654   0.383  1.1005  0.6963 -0.5403
10656SOL    HW232585   5.698   2.778   0.469  1.3211  0.0745  0.3978
10657SOL     OW32586   1.906   5.366   6.123 -0.1310  0.2041  0.2793
10657SOL    HW132587   1.916   5.362   6.028  0.4678 -0.7665  0.3707
10657SOL    HW232588   1.929   5.456   6.146  0.1593  0.3200 -0.4445
10658SOL     OW32589   6.721   3.210   4.556  0.7624 -0.2713  0.2392
10658SOL    HW132590   6.643   3.227   4.502  0.2154 -0.5874  0.9160
10658SOL    HW232591   6.717   3.276   4.625  2.1749  0.9929 -0.8153
10659SOL     OW32592   2.076   3.449   3.348  0.1272 -0.1135  0.4950
10659SOL    HW132593   2.004   3.421   3.404 -0.1765 -0.3773 -0.0205
10659SOL    HW232594   2.152   3.400   3.380 -0.1812 -0.7536  0.2641
10660SOL     OW32595   4.388   7.103   5.005 -0.3566 -0.3657  0.6682
10660SOL    HW132596   4.393   7.023   4.952  2.1018 -0.0784  0.3390
10660SOL    HW232597   4.476   7.113   5.041 -1.0381  1.3715  1.9662
10661SOL     OW32598   6.270   0.436   6.884 -0.8795 -0.2211 -0.3739
10661SOL    HW132599   6.257   0.531   6.884 -0.8116 -0.1908 -1.8483
10661SOL    HW232600   6.352   0.423   6.933 -2.4129  0.1730  2.5485
10662SOL     OW32601   5.930   3.155   6.368  0.1159 -0.3052 -0.0555
10662SOL    HW132602   6.010   3.108   6.392 -0.2973  0.2855  2.7898
10662SOL    HW232603   5.859   3.095   6.389 -0.3105  0.5524  1.0044
10663SOL     OW32604   3.220   2.248   3.408 -0.2206 -0.2878  0.3586
10663SOL    HW132605   3.130   2.231   3.380  0.2073 -1.3207 -0.4887
10663SOL    HW232606   3.242   2.173   3.463  1.2136 -1.8752 -2.2121
10664SOL     OW32607   1.086   2.688   2.332  0.4024 -0.2744 -0.2136
10664SOL    HW132608   1.009   2.738   2.359 -0.1441 -0.9928 -0.4031
10664SOL    HW232609   1.050   2.607   2.296  1.2043 -0.1383 -1.3543
10665SOL     OW32610   0.620   5.622   6.925 -0.4824 -0.1212 -0.2160
10665SOL    HW132611   0.568   5.681   6.870  0.5778  0.3619 -0.7311
10665SOL    HW232612   0.560   5.550   6.945 -1.9565  1.3228  0.8097
10666SOL     OW32613   7.246   3.512   2.325 -0.1983 -0.4232  0.6644
10666SOL    HW132614   7.242   3.607   2.340  1.0679 -0.3181  0.5026
10666SOL    HW232615   7.198   3.498   2.244  1.2879  0.3871 -0.4125
10667SOL     OW32616   2.120   0.951   1.408 -0.2347  0.3713 -0.0195
10667SOL    HW132617   2.133   0.944   1.313  0.1417  1.0157 -0.0213
10667SOL    HW232618   2.071   1.033   1.419  1.3277  1.2811  0.4665
10668SOL     OW32619   1.081   5.273   3.769 -1.0596  0.3638 -0.0298
10668SOL    HW132620   1.070   5.182   3.740 -1.1893  0.0418  0.9803
10668SOL    HW232621   0.996   5.314   3.754 -1.0075  0.3218 -0.4685
10669SOL     OW32622   2.297   2.641   3.402  0.5502 -0.3050  0.3121
10669SOL    HW132623   2.316   2.608   3.490  0.8758 -1.0837 -0.0471
10669SOL    HW232624   2.329   2.573   3.343  0.9765  0.5230 -0.4343
10670SOL     OW32625   4.268   0.960   2.599 -0.5000 -0.3238  0.1860
10670SOL    HW132626   4.262   0.881   2.653  1.1980  1.3526  3.0892
10670SOL    HW232627   4.318   0.933   2.521  0.6883 -1.9754  1.4534
10671SOL     OW32628   1.694   2.652   3.041 -0.2813 -0.0921  0.1241
10671SOL    HW132629   1.710   2.618   2.953  1.0241 -0.9353  0.6504
10671SOL    HW232630   1.681   2.574   3.095  1.0970  0.2858  1.0484
10672SOL     OW32631   4.853   6.670   6.517  0.2988  0.3891  0.0761
10672SOL    HW132632   4.878   6.643   6.605 -0.7568  0.0565  0.2806
10672SOL    HW232633   4.905   6.613   6.459  2.6044  2.0186  0.4102
10673SOL     OW32634   4.289   3.375   2.994 -1.1273 -0.2537 -0.3922
10673SOL    HW132635   4.317   3.283   2.995  1.5331  0.4091  2.3451
10673SOL    HW232636   4.321   3.409   2.911  0.2297 -1.2228 -0.3030
10674SOL     OW32637   0.365   5.374   1.893 -0.3155 -1.5847  0.2754
10674SOL    HW132638   0.392   5.289   1.926  0.0522 -1.3752  0.5260
10674SOL    HW232639   0.342   5.424   1.972 -0.2712 -1.3674  0.1517
10675SOL     OW32640   5.537   1.102   2.818  0.6293  0.6030  0.1095
10675SOL    HW132641   5.549   1.192   2.787  3.1590  0.0855 -0.6510
10675SOL    HW232642   5.624   1.075   2.849 -0.0674 -1.5597  0.3857
10676SOL     OW32643   0.451   2.989   0.804 -0.4448  0.1844  0.1015
10676SOL    HW132644   0.538   3.010   0.770 -0.8715  0.1734 -1.0631
10676SOL    HW232645   0.464   2.910   0.857 -0.0069 -0.9315 -1.5744
10677SOL     OW32646   5.750   2.571   1.997 -0.1847  0.6667  0.1243
10677SOL    HW132647   5.808   2.495   1.988 -0.6229  0.2571  0.6711
10677SOL    HW232648   5.663   2.533   2.014 -0.3920  1.2957  0.5011
10678SOL     OW32649   0.597   5.280   3.345 -0.3521 -0.1569 -0.3311
10678SOL    HW132650   0.506   5.253   3.331 -0.8165  1.1952 -0.1182
10678SOL    HW232651   0.638   5.274   3.259  0.2634 -3.6989  0.0584
10679SOL     OW32652   2.292   1.678   5.932  0.0493 -0.7596  0.1657
10679SOL    HW132653   2.347   1.641   5.862 -0.4433  1.6141 -1.5962
10679SOL    HW232654   2.223   1.613   5.943 -0.0914 -1.0447 -1.8880
10680SOL     OW32655   3.927   2.235   0.373 -0.3505  0.0393  0.4204
10680SOL    HW132656   3.857   2.299   0.358 -0.8001 -0.7361 -1.0466
10680SOL    HW232657   3.931   2.186   0.291  3.4097  1.4507 -0.4310
10681SOL     OW32658   6.821   6.803   3.683 -0.0696  0.0912  0.0641
10681SOL    HW132659   6.888   6.840   3.625  1.4607 -1.1354  0.9528
10681SOL    HW232660   6.771   6.743   3.627  0.9363 -0.5537 -0.1865
10682SOL     OW32661   4.951   1.763   2.338  0.0116  0.3570  0.3146
10682SOL    HW132662   5.035   1.753   2.382  0.2554  0.7232 -0.0526
10682SOL    HW232663   4.974   1.803   2.254 -0.4113 -0.5461 -0.2463
10683SOL     OW32664   3.481   6.173   5.358  0.6085  0.3993 -0.4863
10683SOL    HW132665   3.551   6.166   5.292  1.4508  1.5547  0.2415
10683SOL    HW232666   3.438   6.087   5.356  1.6249 -0.1222 -1.4232
10684SOL     OW32667   6.651   4.310   6.775 -0.4376  0.7493 -0.5118
10684SOL    HW132668   6.622   4.292   6.685 -0.6889 -0.8427 -0.1398
10684SOL    HW232669   6.628   4.231   6.824 -0.1891  1.5464  0.9398
10685SOL     OW32670   5.383   3.110   5.732  0.3479 -0.3155 -0.4385
10685SOL    HW132671   5.444   3.131   5.661  0.7015  1.2302  0.2583
10685SOL    HW232672   5.341   3.194   5.752 -0.7830 -1.0242  0.2245
10686SOL     OW32673   2.214   3.286   0.517 -0.5466 -0.2513  0.3136
10686SOL    HW132674   2.216   3.271   0.611 -0.3393 -2.8827 -0.0191
10686SOL    HW232675   2.305   3.296   0.492 -0.6425  1.1450  0.4375
10687SOL     OW32676   4.868   3.072   6.885 -0.4722  0.0208 -0.2903
10687SOL    HW132677   4.950   3.031   6.913 -0.5170  0.6455  0.8171
10687SOL    HW232678   4.894   3.161   6.859 -0.7512  0.1419 -0.1607
10688SOL     OW32679   4.700   1.042   5.251  0.0982 -0.5272 -0.1311
10688SOL    HW132680   4.665   1.027   5.163  2.5305  1.8108 -1.6321
10688SOL    HW232681   4.712   1.136   5.256  4.2122 -0.9132  0.8958
10689SOL     OW32682   1.781   5.793   6.135 -0.0068  0.2978 -0.4659
10689SOL    HW132683   1.827   5.758   6.212  0.2585  0.9507 -0.3223
10689SOL    HW232684   1.790   5.888   6.143  1.5572  0.3542 -2.2371
10690SOL     OW32685   1.848   3.184   5.953 -0.7201 -0.3960  0.1637
10690SOL    HW132686   1.789   3.120   5.993 -0.1887  0.3727  2.3186
10690SOL    HW232687   1.935   3.150   5.971 -0.4672 -0.1880 -0.6606
10691SOL     OW32688   2.098   6.476   3.982  0.7764  0.3076 -0.8379
10691SOL    HW132689   2.040   6.551   3.994  1.6654  0.6021  3.2504
10691SOL    HW232690   2.052   6.403   4.023  2.2728  0.0312  0.4343
10692SOL     OW32691   5.008   4.581   2.823  0.0892  0.1861 -0.0574
10692SOL    HW132692   4.921   4.569   2.863 -0.4729 -0.3465 -1.3882
10692SOL    HW232693   4.995   4.557   2.731  1.6812  0.0066 -0.2467
10693SOL     OW32694   0.039   0.484   5.060 -0.3338 -0.4330  0.0027
10693SOL    HW132695   0.019   0.539   5.136 -0.8675  0.1438 -0.5486
10693SOL    HW232696  -0.043   0.438   5.042  0.2138 -1.7469  0.7092
10694SOL     OW32697   4.371   3.169   4.463  0.1367  0.1625  0.1310
10694SOL    HW132698   4.285   3.196   4.493  0.0038 -0.6986  0.5323
10694SOL    HW232699   4.421   3.152   4.543 -0.3287 -2.4782 -0.0399
10695SOL     OW32700   3.578   1.581   5.582  0.0659 -0.3434  0.3199
10695SOL    HW132701   3.497   1.590   5.632 -1.2612 -0.1788 -1.7258
10695SOL    HW232702   3.584   1.487   5.563 -0.7735 -0.1363 -1.1801
10696SOL     OW32703   5.839   6.866   3.941  0.0709 -0.1274 -0.1386
10696SOL    HW132704   5.900   6.934   3.913  0.3580  0.1006  0.9986
10696SOL    HW232705   5.870   6.787   3.895  0.6864  0.1676 -0.2496
10697SOL     OW32706   2.642   7.233   4.054 -0.3401 -0.1587 -0.0713
10697SOL    HW132707   2.727   7.242   4.096  0.6311 -0.0413 -1.9259
10697SOL    HW232708   2.585   7.291   4.103  0.6492 -0.2050  1.1923
10698SOL     OW32709   7.217   5.627   5.156  0.3372 -0.3633 -0.2676
10698SOL    HW132710   7.199   5.567   5.083 -0.9200 -1.9869  1.2880
10698SOL    HW232711   7.313   5.626   5.164  0.5185  0.0073 -1.9817
10699SOL     OW32712   1.276   3.522   5.141  0.1733 -0.3219 -0.5818
10699SOL    HW132713   1.349   3.548   5.084  1.1125 -0.0457  0.7136
10699SOL    HW232714   1.309   3.534   5.230 -1.1572 -1.0544  0.0399
10700SOL     OW32715   3.215   5.583   4.235  0.2396  0.2908 -0.6936
10700SOL    HW132716   3.124   5.612   4.229 -0.9221 -2.5036  1.3272
10700SOL    HW232717   3.236   5.552   4.147  0.0907  2.9757 -1.7675
10701SOL     OW32718   6.855   3.545   1.132  0.1217  0.1520 -0.0832
10701SOL    HW132719   6.767   3.583   1.128 -0.3613 -0.9340 -0.0982
10701SOL    HW232720   6.847   3.474   1.195  1.0494  0.1636  0.0567
10702SOL     OW32721   7.156   0.231   6.642  0.4537  0.2557 -0.4131
10702SOL    HW132722   7.155   0.219   6.547  1.8666  0.4234 -0.4609
10702SOL    HW232723   7.225   0.172   6.673 -1.4584 -1.5166  0.7869
10703SOL     OW32724   3.986   1.018   5.010 -0.1711  0.2753 -0.4050
10703SOL    HW132725   3.918   0.965   4.968 -0.3150  0.8711 -0.9519
10703SOL    HW232726   3.959   1.025   5.101  0.5517 -1.6947  0.0068
10704SOL     OW32727   5.149   1.060   3.268  0.1663 -0.0889  0.6163
10704SOL    HW132728   5.078   0.996   3.265  0.2838 -0.1884 -0.9274
10704SOL    HW232729   5.188   1.057   3.180  1.1306  1.0293  0.9755
10705SOL     OW32730   3.609   6.426   3.937  0.0325  0.4112  0.3191
10705SOL    HW132731   3.528   6.476   3.923 -0.8861 -0.8636  0.8492
10705SOL    HW232732   3.628   6.387   3.852  0.8517  1.7511 -0.1426
10706SOL     OW32733   0.420   3.105   2.287 -0.4619  0.2988 -0.5422
10706SOL    HW132734   0.393   3.103   2.379 -1.7182 -0.1767 -0.8946
10706SOL    HW232735   0.481   3.178   2.281 -0.0335  0.0755  0.7509
10707SOL     OW32736   1.733   7.008   4.761 -0.2208 -0.0572  0.3359
10707SOL    HW132737   1.667   6.958   4.809 -0.3541 -1.4926 -1.2477
10707SOL    HW232738   1.692   7.028   4.678  0.4035  1.4021  0.3497
10708SOL     OW32739   5.856   5.710   3.057  0.5033  0.1173  0.6153
10708SOL    HW132740   5.873   5.633   3.111 -0.1696  0.5278  1.4254
10708SOL    HW232741   5.943   5.740   3.030  0.8581 -0.0400  1.5556
10709SOL     OW32742   1.024   0.748   3.576  0.1796 -0.0212  0.7148
10709SOL    HW132743   1.039   0.842   3.582  0.6294 -0.0874  0.6785
10709SOL    HW232744   1.007   0.721   3.666 -0.1831  0.1312  0.6926
10710SOL     OW32745   0.835   0.969   3.993 -0.6869 -0.3268  0.4222
10710SOL    HW132746   0.785   0.954   3.913 -1.6845  0.2639  0.9176
10710SOL    HW232747   0.790   1.041   4.037  1.3340  1.1050  0.2919
10711SOL     OW32748   1.503   6.774   1.910 -0.2873  0.5008 -0.0449
10711SOL    HW132749   1.562   6.832   1.863  0.9457 -0.1476  0.6523
10711SOL    HW232750   1.483   6.704   1.849 -1.3927  1.3614 -0.7202
10712SOL     OW32751   2.542   3.816   2.252 -0.7457  0.5106 -0.2324
10712SOL    HW132752   2.463   3.763   2.253  0.4312 -1.3648 -1.1692
10712SOL    HW232753   2.588   3.792   2.333 -0.9124  1.2652  0.0926
10713SOL     OW32754   5.226   2.434   5.115  0.1505  0.6135  0.3567
10713SOL    HW132755   5.277   2.507   5.150  1.1641  0.3070 -0.4122
10713SOL    HW232756   5.162   2.474   5.057  0.6978  0.9058 -0.0586
10714SOL     OW32757   5.816   7.022   5.884 -0.0027  0.4504  0.3927
10714SOL    HW132758   5.798   6.945   5.939 -2.1965 -0.5226 -1.5122
10714SOL    HW232759   5.908   7.012   5.859 -0.1232 -1.3705  0.5092
10715SOL     OW32760   0.395   0.461   0.034  0.1305 -0.4690  0.4485
10715SOL    HW132761   0.477   0.509   0.020 -0.4292  0.2044 -0.6625
10715SOL    HW232762   0.334   0.499  -0.029 -1.3825 -0.1794  2.0048
10716SOL     OW32763   5.958   2.570   5.949 -0.3088  0.2406  0.0418
10716SOL    HW132764   6.003   2.650   5.919 -1.4054  0.9087  0.1249
10716SOL    HW232765   5.917   2.595   6.032 -1.7580  0.0062 -0.5683
10717SOL     OW32766   3.392   0.979   0.015  0.3020 -0.4539  0.4100
10717SOL    HW132767   3.364   1.054   0.068  1.5071 -0.0937  0.5848
10717SOL    HW232768   3.481   1.003  -0.014  0.1332 -1.1775 -0.7660
10718SOL     OW32769   2.727   2.663   4.963  0.2630 -0.0521 -0.4021
10718SOL    HW132770   2.805   2.708   4.996 -0.4648 -1.0111  3.0164
10718SOL    HW232771   2.761   2.587   4.917  1.3584  0.5545 -0.6310
10719SOL     OW32772   3.416   6.782   6.285 -0.3028 -0.1200 -0.6989
10719SOL    HW132773   3.476   6.831   6.341 -0.5216 -0.7746  0.1109
10719SOL    HW232774   3.451   6.795   6.196 -0.2785  1.3772 -0.4965
10720SOL     OW32775   1.422   5.104   0.086  0.1648  0.3111  0.3348
10720SOL    HW132776   1.455   5.141   0.168 -1.5499  1.9009  0.3508
10720SOL    HW232777   1.342   5.058   0.110  0.1795 -0.0775 -0.3157
10721SOL     OW32778   5.365   5.177   4.309  0.2621  0.4492  0.3240
10721SOL    HW132779   5.449   5.211   4.278  1.0369 -0.9014  0.8869
10721SOL    HW232780   5.300   5.237   4.273  1.2521  0.0171 -2.3720
10722SOL     OW32781   2.022   2.860   1.682 -0.2629 -0.2254  0.2799
10722SOL    HW132782   2.018   2.926   1.613 -1.2002  0.4694  0.9851
10722SOL    HW232783   1.955   2.796   1.658  0.0779 -0.5008  0.0418
10723SOL     OW32784   5.693   6.863   6.768  0.9669  0.2546 -0.1651
10723SOL    HW132785   5.691   6.958   6.758 -0.5369  0.2281 -0.3130
10723SOL    HW232786   5.618   6.832   6.718  0.8826 -0.9401  0.6676
10724SOL     OW32787   2.743   1.523   0.560 -0.0769  0.0398  0.4130
10724SOL    HW132788   2.664   1.548   0.511  0.0281  0.2335  0.3417
10724SOL    HW232789   2.801   1.485   0.494 -0.1832 -0.2663  0.4977
10725SOL     OW32790   3.844   0.252   4.177 -0.2175 -0.0325 -0.1633
10725SOL    HW132791   3.800   0.177   4.137 -0.8282  0.4130 -0.3177
10725SOL    HW232792   3.793   0.328   4.151 -0.6068  0.2797  1.3991
10726SOL     OW32793   7.146   4.554   4.008 -0.0882 -0.3347 -0.7676
10726SOL    HW132794   7.234   4.519   3.997 -0.0976 -0.3853 -0.6806
10726SOL    HW232795   7.106   4.547   3.921  0.5051  1.1065 -1.1819
10727SOL     OW32796   2.783   2.417   5.198  0.2004  0.2386 -0.2962
10727SOL    HW132797   2.695   2.424   5.235 -0.3058  0.7846 -1.5526
10727SOL    HW232798   2.769   2.415   5.104  1.4452 -1.1840 -0.4920
10728SOL     OW32799   5.574   4.643   0.834  0.6151 -0.5350  0.7805
10728SOL    HW132800   5.590   4.557   0.873 -0.6187 -0.5877  1.2184
10728SOL    HW232801   5.604   4.705   0.900  0.9140 -0.6181  0.7271
10729SOL     OW32802   2.065   6.328   5.245 -0.0054 -0.3231 -0.2628
10729SOL    HW132803   2.139   6.290   5.293 -0.1773 -0.7865 -0.3511
10729SOL    HW232804   2.010   6.252   5.223 -0.3799 -0.0127 -0.4118
10730SOL     OW32805   1.056   5.157   0.426 -0.3030 -0.0468 -0.2369
10730SOL    HW132806   1.113   5.230   0.405 -0.4507  0.1003 -0.1334
10730SOL    HW232807   1.094   5.118   0.505  2.0687 -2.5271 -2.4233
10731SOL     OW32808   5.970   0.307   6.804 -0.2024 -0.0680 -0.5085
10731SOL    HW132809   5.924   0.391   6.813 -1.3572 -0.7397  0.1722
10731SOL    HW232810   6.024   0.318   6.726 -1.3953  0.8445 -1.2564
10732SOL     OW32811   2.502   7.247   6.855 -0.0519  0.5069 -0.0163
10732SOL    HW132812   2.429   7.292   6.812 -0.8272 -1.3960 -0.8356
10732SOL    HW232813   2.573   7.250   6.791 -0.0105  0.8341  0.0481
10733SOL     OW32814   0.807   2.854   1.731 -0.4140 -0.1357 -0.2000
10733SOL    HW132815   0.862   2.820   1.660  0.0211  0.8509 -0.3555
10733SOL    HW232816   0.759   2.927   1.692 -0.7978 -0.1060  0.3096
10734SOL     OW32817   7.193   0.203   1.990 -0.6864 -0.0493 -0.0046
10734SOL    HW132818   7.207   0.147   1.914  3.1173 -0.4513  0.7720
10734SOL    HW232819   7.151   0.281   1.955  0.4388 -0.4491 -2.4402
10735SOL     OW32820   4.572   2.390   7.013 -0.1581 -0.0160  0.6119
10735SOL    HW132821   4.568   2.486   7.018 -0.1952 -0.0416  1.1320
10735SOL    HW232822   4.617   2.364   7.093  0.5843 -0.3895  0.0788
10736SOL     OW32823   1.019   1.585   1.141 -0.2802 -0.2463 -0.0784
10736SOL    HW132824   1.102   1.553   1.178  0.5068  1.7320 -0.0316
10736SOL    HW232825   0.968   1.610   1.218 -0.5056 -0.4486 -0.1611
10737SOL     OW32826   4.092   1.108   5.737  0.6487  0.2776 -0.0614
10737SOL    HW132827   4.115   1.154   5.656  0.2129 -0.4095 -0.5911
10737SOL    HW232828   4.172   1.113   5.790  0.7337  1.2871 -0.2589
10738SOL     OW32829   4.449   5.497   2.549  0.1850  0.2126 -0.4874
10738SOL    HW132830   4.448   5.541   2.634  0.5239  1.8309 -1.2708
10738SOL    HW232831   4.396   5.419   2.561 -0.2820  0.7390  1.0462
10739SOL     OW32832   6.172   0.484   1.255  0.0996 -0.1144 -0.0373
10739SOL    HW132833   6.221   0.522   1.182 -1.3455 -0.6347 -1.3248
10739SOL    HW232834   6.237   0.434   1.305  1.0635  0.0557 -1.0952
10740SOL     OW32835   1.490   1.096   6.631 -0.0926  0.1350 -0.0743
10740SOL    HW132836   1.519   1.184   6.607  0.1546 -0.1857 -0.9628
10740SOL    HW232837   1.410   1.082   6.580  0.0168 -0.2622 -0.1400
10741SOL     OW32838   4.221   0.449   2.604  0.6325 -0.1198 -0.1294
10741SOL    HW132839   4.293   0.507   2.631 -1.1891  3.4090 -2.1272
10741SOL    HW232840   4.146   0.479   2.655 -0.2794 -1.1207 -0.8515
10742SOL     OW32841   1.247   1.021   1.025  0.5697 -0.2957  0.1755
10742SOL    HW132842   1.212   1.073   1.098 -0.9443 -0.2847 -0.5163
10742SOL    HW232843   1.174   0.966   0.999  0.5886  0.7342 -2.2855
10743SOL     OW32844   1.697   0.030   2.685 -0.0462  0.1530 -0.3857
10743SOL    HW132845   1.714  -0.030   2.757 -0.9973 -0.0129 -0.2870
10743SOL    HW232846   1.603   0.044   2.687  0.0025  0.6731 -1.1851
10744SOL     OW32847   6.976   2.894   3.886 -0.4129  0.2903  0.6590
10744SOL    HW132848   6.954   2.892   3.979  1.2203  1.4023  1.1022
10744SOL    HW232849   7.071   2.904   3.883 -0.4965  1.0609 -1.1195
10745SOL     OW32850   1.569   1.357   4.818 -0.3702 -0.1794 -0.1418
10745SOL    HW132851   1.634   1.288   4.821 -1.0540 -1.0392 -2.7902
10745SOL    HW232852   1.491   1.316   4.780 -0.7243  2.0430 -2.0975
10746SOL     OW32853   7.188   3.202   6.990 -0.6183 -0.0078 -0.6093
10746SOL    HW132854   7.095   3.221   6.974 -1.0884 -0.3847  1.4170
10746SOL    HW232855   7.188   3.118   7.036  0.7818 -0.2284 -0.9693
10747SOL     OW32856   2.464   7.240   0.069 -0.1608  0.2310  0.0849
10747SOL    HW132857   2.391   7.195   0.026  0.3726 -0.7433  0.1774
10747SOL    HW232858   2.505   7.291  -0.001  0.5420 -1.1427 -0.5510
10748SOL     OW32859   2.655   7.068   3.465  0.3595 -0.2780  0.2884
10748SOL    HW132860   2.717   7.009   3.422  1.3441  0.9294 -0.0085
10748SOL    HW232861   2.660   7.046   3.558  0.8214 -0.5586  0.1982
10749SOL     OW32862   1.717   6.231   3.492  0.2009  0.1890  0.6609
10749SOL    HW132863   1.677   6.307   3.449 -1.8119 -2.0540 -1.7672
10749SOL    HW232864   1.647   6.196   3.549  0.4209 -0.8943  0.2845
10750SOL     OW32865   3.785   6.509   3.668  0.2338  0.0241 -0.1706
10750SOL    HW132866   3.837   6.570   3.721 -0.9168 -0.1444  1.2039
10750SOL    HW232867   3.733   6.566   3.611  0.2380  0.2676  0.0673
10751SOL     OW32868   3.393   5.443   7.148 -0.0449 -0.1649  0.4730
10751SOL    HW132869   3.392   5.538   7.158  1.1485 -0.3113  2.2025
10751SOL    HW232870   3.303   5.421   7.122  0.0501  1.5515 -1.5897
10752SOL     OW32871   0.385   3.807   5.254  0.2661  0.5827  0.2634
10752SOL    HW132872   0.477   3.794   5.227  0.6460  0.8133  1.4048
10752SOL    HW232873   0.347   3.858   5.182  0.5551 -0.9275 -1.0408
10753SOL     OW32874   5.976   6.704   4.964 -0.4054  0.0740 -0.6965
10753SOL    HW132875   5.918   6.747   4.901 -1.9405  1.4490  1.5254
10753SOL    HW232876   6.061   6.746   4.950 -0.9425  1.0357 -1.2289
10754SOL     OW32877   4.025   0.843   5.732  0.0767 -0.0703 -0.2563
10754SOL    HW132878   4.042   0.934   5.711 -0.1445  0.1214  0.3802
10754SOL    HW232879   4.109   0.799   5.718  0.6683  0.5581  1.1598
10755SOL     OW32880   6.965   3.334   2.573  0.1714  0.2952  0.4171
10755SOL    HW132881   6.905   3.339   2.499  3.3876 -1.4269 -2.5556
10755SOL    HW232882   6.934   3.258   2.624 -1.4299  0.8399  0.3291
10756SOL     OW32883   6.269   4.494   5.617 -0.1252 -0.0296 -0.1023
10756SOL    HW132884   6.197   4.555   5.628 -0.1194  0.2035 -1.2459
10756SOL    HW232885   6.324   4.533   5.548  0.1744 -1.0296 -0.4505
10757SOL     OW32886   1.245   1.248   2.706  0.1872 -0.0838  0.2718
10757SOL    HW132887   1.156   1.240   2.740  0.8942 -0.7654  2.0613
10757SOL    HW232888   1.295   1.288   2.777  1.1399  1.1988 -1.0590
10758SOL     OW32889   3.321   5.840   0.908 -0.6009  0.0762 -0.5332
10758SOL    HW132890   3.244   5.891   0.932 -0.4585  1.1115 -2.1250
10758SOL    HW232891   3.296   5.749   0.924 -2.2655  0.3693 -1.2458
10759SOL     OW32892   3.005   0.091   5.665  0.1960 -0.2888  0.2759
10759SOL    HW132893   3.015   0.043   5.584 -0.1790  0.6172 -0.3237
10759SOL    HW232894   2.920   0.065   5.699  0.2867 -0.5500  0.3037
10760SOL     OW32895   6.638   6.007   1.219 -0.1628  0.5481 -0.2181
10760SOL    HW132896   6.653   6.070   1.150 -0.4834  1.7655  0.7776
10760SOL    HW232897   6.724   5.994   1.260  0.2566 -1.0105 -1.4732
10761SOL     OW32898   3.526   4.663   4.383 -0.1891  0.6302  0.1225
10761SOL    HW132899   3.577   4.582   4.388  0.8010  1.3111  3.2233
10761SOL    HW232900   3.437   4.634   4.363 -0.0219 -1.3724  1.9038
10762SOL     OW32901   7.060   3.964   4.097 -0.0288  0.6848  0.5180
10762SOL    HW132902   7.064   3.905   4.022 -1.4150  3.1237 -1.5980
10762SOL    HW232903   7.138   4.019   4.089  0.4821  0.1664  1.6425
10763SOL     OW32904   3.248   2.128   7.008  0.5208 -0.1994  0.0128
10763SOL    HW132905   3.209   2.197   7.062  2.6753  0.8312  0.3479
10763SOL    HW232906   3.234   2.157   6.918 -3.2336 -2.0038 -0.1785
10764SOL     OW32907   5.142   2.512   3.993  0.1098  0.1771 -0.6808
10764SOL    HW132908   5.142   2.595   3.945 -0.1046  0.7748  0.3061
10764SOL    HW232909   5.052   2.481   3.989 -0.1304  0.7323  0.1460
10765SOL     OW32910   7.118   3.823   4.581 -0.6482  0.0469  0.6094
10765SOL    HW132911   7.024   3.838   4.589 -0.6758 -0.2498  0.8589
10765SOL    HW232912   7.137   3.834   4.487 -1.2760 -1.8163  0.2227
10766SOL     OW32913   3.393   5.533   5.692 -0.4311  0.0446  0.7601
10766SOL    HW132914   3.311   5.531   5.742 -0.4673  2.1148  0.8678
10766SOL    HW232915   3.460   5.509   5.757 -0.7981 -0.2693  1.0298
10767SOL     OW32916   2.854   3.867   1.909  0.1287 -0.2116  0.1934
10767SOL    HW132917   2.899   3.784   1.891  1.0465  0.1059  0.9426
10767SOL    HW232918   2.797   3.880   1.833 -0.8860 -2.0818  0.5692
10768SOL     OW32919   4.421   4.848   1.775  0.4149 -0.5443  0.0513
10768SOL    HW132920   4.484   4.797   1.724 -0.1745  0.5393 -1.8471
10768SOL    HW232921   4.338   4.838   1.729 -0.7749 -1.5710  2.2554
10769SOL     OW32922   7.010   5.868   0.178 -0.1569  0.2266  0.5053
10769SOL    HW132923   6.927   5.884   0.224  0.6692  1.5037  1.6280
10769SOL    HW232924   7.018   5.941   0.116  0.3744  0.4013  0.7748
10770SOL     OW32925   2.967   4.948   4.339  0.3319 -0.4639  0.2793
10770SOL    HW132926   3.049   4.998   4.334  0.6969 -0.9891  0.9190
10770SOL    HW232927   2.947   4.945   4.433 -2.1241  2.3836 -0.0144
10771SOL     OW32928   1.559   3.611   3.060 -0.2823 -0.2479  0.3026
10771SOL    HW132929   1.556   3.656   2.975 -0.6615  1.5508  1.2193
10771SOL    HW232930   1.473   3.628   3.099  0.7206  1.1454  2.0847
10772SOL     OW32931   6.055   5.310   2.002  0.0386  0.0983 -0.6871
10772SOL    HW132932   6.001   5.267   2.067  0.3487 -3.4525 -2.5131
10772SOL    HW232933   5.994   5.361   1.949 -0.4031  1.8229  1.3650
10773SOL     OW32934   1.087   6.850   3.653  0.4050  0.5258 -0.2947
10773SOL    HW132935   1.171   6.811   3.627 -0.0063 -0.6027  0.0322
10773SOL    HW232936   1.027   6.776   3.659 -0.7029  1.3603 -0.8138
10774SOL     OW32937   3.555   3.727   5.311 -0.0928 -0.7156  0.2560
10774SOL    HW132938   3.556   3.807   5.365 -0.3735 -0.7470  0.3106
10774SOL    HW232939   3.628   3.675   5.345  0.8802  0.0456 -0.5923
10775SOL     OW32940   3.058   4.004   1.518 -0.1539 -0.2615 -0.1897
10775SOL    HW132941   3.112   3.940   1.564 -0.1599 -0.4676 -0.4680
10775SOL    HW232942   2.974   4.002   1.565  0.0037 -0.1023  0.1043
10776SOL     OW32943   4.022   4.022   0.859  0.7705  0.6694 -0.3312
10776SOL    HW132944   4.089   4.085   0.886  1.8856  0.5989 -2.7523
10776SOL    HW232945   3.992   4.054   0.774 -1.6843  0.1965  0.2790
10777SOL     OW32946   3.367   1.164   0.491 -0.4093 -0.2373  0.2821
10777SOL    HW132947   3.335   1.093   0.547  1.0439 -1.3075 -0.2133
10777SOL    HW232948   3.454   1.185   0.525  0.8971 -1.5224 -2.0600
10778SOL     OW32949   0.866   5.491   4.794  0.1909 -0.6012 -0.1021
10778SOL    HW132950   0.912   5.553   4.851  0.3461 -0.3563 -0.4897
10778SOL    HW232951   0.935   5.445   4.747  0.0546  1.1010 -2.1108
10779SOL     OW32952   0.496   2.167   0.528  0.4528 -0.4045  0.5393
10779SOL    HW132953   0.414   2.180   0.575  0.2039  0.7998 -0.1556
10779SOL    HW232954   0.522   2.078   0.547 -0.7683 -0.6420  1.1746
10780SOL     OW32955   1.598   4.419   5.899 -0.2455  0.2531 -0.4401
10780SOL    HW132956   1.527   4.405   5.961 -0.2110 -1.2309 -0.7001
10780SOL    HW232957   1.676   4.386   5.944 -0.1982 -0.7065 -1.1948
10781SOL     OW32958   3.861   6.571   6.407  0.2738 -0.2141 -0.6709
10781SOL    HW132959   3.876   6.579   6.501  0.3910  2.3977 -0.8424
10781SOL    HW232960   3.938   6.525   6.374  0.7031 -0.2787  0.3893
10782SOL     OW32961   1.934   2.464   3.316 -0.5735 -0.4934 -0.4617
10782SOL    HW132962   1.989   2.386   3.307  0.9391  0.1788  1.9388
10782SOL    HW232963   1.991   2.536   3.290 -1.5584 -0.0520 -1.4679
10783SOL     OW32964   4.448   7.167   1.106  0.0529 -0.1360 -0.1606
10783SOL    HW132965   4.427   7.255   1.137 -0.2224  0.5066 -2.0489
10783SOL    HW232966   4.374   7.143   1.050  0.1030 -1.6040  0.3519
10784SOL     OW32967   1.398   6.198   0.221  0.7797  0.4680  0.4412
10784SOL    HW132968   1.472   6.251   0.192  0.2708  0.3658 -1.1636
10784SOL    HW232969   1.437   6.123   0.265  1.6621  0.2039 -0.7401
10785SOL     OW32970   0.180   6.119   5.758  0.6596  0.0159  0.7338
10785SOL    HW132971   0.181   6.200   5.810  0.2134 -1.0938  2.5748
10785SOL    HW232972   0.250   6.066   5.796  1.2092 -0.3407 -0.7088
10786SOL     OW32973   2.305   4.954   4.282 -0.0561  0.1838  0.2332
10786SOL    HW132974   2.227   4.930   4.233 -1.4874  0.4788  2.2726
10786SOL    HW232975   2.322   4.879   4.339 -0.4157  1.1463  1.6525
10787SOL     OW32976   0.212   3.448   5.521  0.3010 -0.4357  0.1595
10787SOL    HW132977   0.247   3.429   5.434  1.6748 -1.0412  0.8101
10787SOL    HW232978   0.278   3.505   5.562  1.1571 -2.4382  1.7876
10788SOL     OW32979   6.137   2.139   6.263 -0.3562  0.1982 -0.4777
10788SOL    HW132980   6.204   2.165   6.200 -1.4457  0.6595 -1.4831
10788SOL    HW232981   6.133   2.044   6.257  1.0242  0.0479  0.4736
10789SOL     OW32982   1.217   6.011   0.971  0.3772 -0.9122  0.4258
10789SOL    HW132983   1.286   6.014   1.037 -0.1686  1.5213  0.9996
10789SOL    HW232984   1.250   6.066   0.900 -0.5632 -0.4772  0.3112
10790SOL     OW32985   3.283   4.936   6.160 -0.3755  0.3125  0.5591
10790SOL    HW132986   3.231   4.913   6.082 -1.3951  1.1241  0.9781
10790SOL    HW232987   3.246   5.019   6.190  1.0351  0.8003  1.0167
10791SOL     OW32988   0.341   6.371   3.215  0.5082 -0.2666  0.8102
10791SOL    HW132989   0.407   6.437   3.196 -1.1031  1.1363 -0.1527
10791SOL    HW232990   0.352   6.352   3.308  1.2973  1.0167  0.9946
10792SOL     OW32991   5.612   6.537   4.131  0.2528  0.2234  0.1714
10792SOL    HW132992   5.532   6.492   4.159  0.4371 -0.0527  0.2674
10792SOL    HW232993   5.598   6.556   4.038  0.9815 -1.8843 -0.4392
10793SOL     OW32994   3.499   6.861   2.979  0.1343  0.2959 -0.7563
10793SOL    HW132995   3.549   6.942   2.979 -2.1111  1.7988  0.4596
10793SOL    HW232996   3.416   6.885   2.938 -0.4726 -1.4767 -0.6422
10794SOL     OW32997   4.856   0.137   2.788  0.5307  0.0875 -0.0011
10794SOL    HW132998   4.815   0.201   2.731  0.8074  0.2671 -0.0034
10794SOL    HW232999   4.885   0.067   2.730 -0.2925 -0.3204  0.0713
10795SOL     OW33000   3.140   2.298   3.988  0.0468 -0.1783 -0.0879
10795SOL    HW133001   3.134   2.265   4.078  0.1516 -2.0838 -0.7509
10795SOL    HW233002   3.064   2.356   3.979  0.2417  0.3327  1.3263
10796SOL     OW33003   6.284   0.441   5.538 -0.3525  0.2650 -0.8903
10796SOL    HW133004   6.260   0.529   5.567  0.6461  0.0533  0.7015
10796SOL    HW233005   6.355   0.414   5.597 -1.1684 -1.9219 -0.7921
10797SOL     OW33006   3.542   5.229   3.638 -0.1200  0.2844 -0.6926
10797SOL    HW133007   3.485   5.197   3.568  0.3355  0.3081 -1.0826
10797SOL    HW233008   3.631   5.221   3.602  0.0771  0.8999 -0.3589
10798SOL     OW33009   7.032   0.781   5.125  0.5082 -0.4461 -0.0841
10798SOL    HW133010   7.115   0.744   5.154  0.8603 -0.0181 -0.5406
10798SOL    HW233011   7.047   0.876   5.121 -0.1230 -0.3251  0.2278
10799SOL     OW33012   1.311   7.055   2.502 -0.0813 -0.1339  0.1676
10799SOL    HW133013   1.303   7.038   2.596  3.8732  1.9415  1.0840
10799SOL    HW233014   1.255   7.131   2.486 -0.8104 -0.5240  0.8282
10800SOL     OW33015   5.221   6.400   0.368 -0.4444 -0.3138  0.5044
10800SOL    HW133016   5.208   6.402   0.273  1.1162 -0.1802  0.2601
10800SOL    HW233017   5.196   6.488   0.397  2.1444  0.8118 -0.3052
10801SOL     OW33018   5.880   6.082   1.773 -0.0665  0.0797  0.5540
10801SOL    HW133019   5.834   6.165   1.761  0.3911  0.0292 -2.0827
10801SOL    HW233020   5.849   6.027   1.702  1.4240 -1.1714  0.8285
10802SOL     OW33021   6.042   5.066   5.540 -0.3631 -0.3454  0.6909
10802SOL    HW133022   6.071   5.085   5.629  2.3639 -0.4554 -0.0919
10802SOL    HW233023   6.037   4.971   5.536 -0.5069 -0.3398  0.7294
10803SOL     OW33024   0.341   2.239   1.848 -0.1436  0.6030 -0.4340
10803SOL    HW133025   0.310   2.329   1.845 -1.1593  0.2406 -2.0692
10803SOL    HW233026   0.436   2.246   1.846 -0.2220  1.6308 -1.3734
10804SOL     OW33027   0.798   4.922   4.235  0.0789 -0.4024  0.0285
10804SOL    HW133028   0.767   5.007   4.203  0.3432 -0.3702 -0.1420
10804SOL    HW233029   0.869   4.943   4.295  0.0849 -0.4985  0.0558
10805SOL     OW33030   6.701   2.332   0.885 -0.5655 -0.0755 -0.0351
10805SOL    HW133031   6.700   2.425   0.864  1.7850 -0.1234 -0.6803
10805SOL    HW233032   6.768   2.323   0.953 -1.2301 -1.2212  0.4984
10806SOL     OW33033   5.798   4.387   2.052 -0.8183  0.1099  0.2459
10806SOL    HW133034   5.769   4.320   2.114  2.9472 -0.4115  1.6851
10806SOL    HW233035   5.825   4.337   1.975 -0.4665  0.2421  0.2858
10807SOL     OW33036   6.293   3.702   2.901  0.6434 -0.3869 -0.2095
10807SOL    HW133037   6.270   3.728   2.990 -1.4878 -0.0525 -0.7971
10807SOL    HW233038   6.239   3.625   2.883 -0.0157  0.3608 -1.6424
10808SOL     OW33039   0.847   4.115   0.765  0.1475 -0.1622 -0.0549
10808SOL    HW133040   0.791   4.039   0.750 -0.2134 -0.0925  0.8936
10808SOL    HW233041   0.820   4.149   0.850  1.7859 -0.2769  0.5617
10809SOL     OW33042   0.993   3.754   2.373  0.1363 -0.5214 -0.1335
10809SOL    HW133043   1.024   3.671   2.409 -0.3734 -0.4887  0.3988
10809SOL    HW233044   0.921   3.779   2.430  0.8441  0.7250  0.2547
10810SOL     OW33045   6.811   4.049   6.222 -0.1574 -0.2949  0.4070
10810SOL    HW133046   6.797   3.955   6.231  1.5659 -0.5914  0.2120
10810SOL    HW233047   6.846   4.076   6.306 -1.4516  0.3548  0.7591
10811SOL     OW33048   5.363   3.064   2.504 -0.3531  0.1945 -0.4315
10811SOL    HW133049   5.303   3.086   2.433 -0.6860  0.9003  0.0559
10811SOL    HW233050   5.348   2.971   2.520 -0.3708  0.0634 -1.1885
10812SOL     OW33051   4.219   2.510   1.219  0.3140 -0.0262 -0.4767
10812SOL    HW133052   4.258   2.425   1.199  1.1217  0.4545 -0.9806
10812SOL    HW233053   4.274   2.574   1.173 -0.9003  0.6943 -0.9595
10813SOL     OW33054   5.890   6.260   3.331 -0.4536  0.1487  0.2438
10813SOL    HW133055   5.888   6.355   3.331  3.2736  0.3999 -1.3097
10813SOL    HW233056   5.846   6.234   3.412  0.7051  3.3106  2.0347
10814SOL     OW33057   0.731   0.008   3.436 -0.2428  0.2948 -0.0253
10814SOL    HW133058   0.719  -0.017   3.345  0.0507  0.5155 -0.1270
10814SOL    HW233059   0.767  -0.071   3.478 -0.6731  0.0943 -0.0295
10815SOL     OW33060   2.399   4.524   6.995  0.0271 -0.0947 -1.3576
10815SOL    HW133061   2.468   4.578   6.955 -0.3511  0.3206 -1.4682
10815SOL    HW233062   2.445   4.448   7.030  0.6544  0.5658 -0.7044
10816SOL     OW33063   6.222   2.078   2.195 -0.1779  0.2504 -0.1644
10816SOL    HW133064   6.210   2.120   2.109  0.5124  3.3975  1.1203
10816SOL    HW233065   6.265   2.145   2.248 -1.5341 -1.1550  2.9793
10817SOL     OW33066   4.785   5.408   4.508  0.8799 -0.3937 -0.4243
10817SOL    HW133067   4.872   5.448   4.514  0.8076 -0.1938 -0.6662
10817SOL    HW233068   4.753   5.435   4.422  0.8672 -1.0632 -0.6317
10818SOL     OW33069   2.684   5.455   2.415 -0.4092  0.3052  0.0470
10818SOL    HW133070   2.627   5.383   2.442 -1.9792  1.9593  1.3255
10818SOL    HW233071   2.772   5.428   2.442 -0.6463 -1.8919 -1.1390
10819SOL     OW33072   2.354   6.936   3.682 -0.2316 -0.3459  0.1656
10819SOL    HW133073   2.338   6.947   3.588 -0.3518 -1.3871  0.0526
10819SOL    HW233074   2.383   6.846   3.691  1.7131  0.2870  0.8892
10820SOL     OW33075   5.949   0.370   3.437  0.1223  0.0860 -0.2932
10820SOL    HW133076   6.002   0.373   3.517  0.3590  0.3222 -0.4563
10820SOL    HW233077   5.987   0.437   3.380 -0.7246  0.6806 -0.1875
10821SOL     OW33078   4.362   6.626   1.377  0.0735 -0.3942  0.6952
10821SOL    HW133079   4.359   6.542   1.331 -1.0582 -0.4137  0.7594
10821SOL    HW233080   4.274   6.663   1.364  0.2743  0.3641  1.4286
10822SOL     OW33081   2.257   1.677   0.011 -0.0773 -0.0337  0.1793
10822SOL    HW133082   2.339   1.723   0.029 -0.9365  1.3462  0.6247
10822SOL    HW233083   2.212   1.731  -0.054 -1.3588  0.0897  1.1313
10823SOL     OW33084   1.480   0.480   4.177  0.0841  0.4243  0.2140
10823SOL    HW133085   1.398   0.455   4.220  0.0901  0.4543  0.2428
10823SOL    HW233086   1.546   0.476   4.246 -0.3025  2.8148  0.8076
10824SOL     OW33087   1.071   6.660   1.329  0.2299  0.0008  0.2521
10824SOL    HW133088   0.980   6.665   1.300  0.2396  0.0660  0.2332
10824SOL    HW233089   1.106   6.582   1.285  0.3672  0.3449 -0.2638
10825SOL     OW33090   5.002   3.072   5.776 -0.4489 -0.2682 -0.4710
10825SOL    HW133091   4.941   3.137   5.741 -0.2280 -0.0199 -0.4053
10825SOL    HW233092   5.088   3.102   5.745 -0.4635 -1.2422 -1.5204
10826SOL     OW33093   6.982   6.024   5.385  0.2606  0.0497  0.2752
10826SOL    HW133094   7.015   5.955   5.328 -0.3938  0.3121 -0.4370
10826SOL    HW233095   7.061   6.066   5.419  0.8269  1.9019 -2.8740
10827SOL     OW33096   2.683   6.228   6.866  0.4988 -0.3822 -0.0621
10827SOL    HW133097   2.755   6.221   6.803  1.0243 -0.1678  0.5011
10827SOL    HW233098   2.723   6.205   6.950  0.4410  1.6882  0.6022
10828SOL     OW33099   6.143   4.894   0.549  0.0610 -0.2900 -0.4192
10828SOL    HW133100   6.068   4.951   0.567 -0.0769 -0.3654 -0.7606
10828SOL    HW233101   6.189   4.889   0.633 -0.4484 -0.4449 -0.1430
10829SOL     OW33102   0.887   7.010   6.617 -0.3214 -0.3521  0.1336
10829SOL    HW133103   0.896   7.046   6.705 -0.7291  0.2101 -0.0454
10829SOL    HW233104   0.825   7.069   6.573 -0.8499 -1.1566 -0.2356
10830SOL     OW33105   7.234   3.199   1.673 -0.5679  0.0606  0.1324
10830SOL    HW133106   7.157   3.255   1.688 -0.3167  0.5267 -0.3109
10830SOL    HW233107   7.275   3.192   1.759  0.0967  1.5961 -0.0353
10831SOL     OW33108   1.790   3.610   4.383 -0.1102  0.3585  0.3915
10831SOL    HW133109   1.699   3.580   4.380  0.3751 -1.1645 -0.3456
10831SOL    HW233110   1.840   3.531   4.404  1.1916  0.7977 -0.9222
10832SOL     OW33111   0.468   2.926   4.049  0.0997 -0.1159 -0.2536
10832SOL    HW133112   0.509   2.884   3.973 -1.4370  1.3224 -1.9666
10832SOL    HW233113   0.389   2.874   4.065 -1.0001  1.1328 -1.4082
10833SOL     OW33114   1.520   3.540   1.725 -0.0512 -0.1343 -0.6731
10833SOL    HW133115   1.594   3.488   1.754 -0.7683 -0.7741  0.0460
10833SOL    HW233116   1.540   3.629   1.753 -0.1464 -0.5282  0.6931
10834SOL     OW33117   6.369   3.028   5.120 -0.0607  0.3371 -0.1271
10834SOL    HW133118   6.443   3.074   5.080 -0.5419  1.1526 -0.1126
10834SOL    HW233119   6.298   3.092   5.118 -1.4401 -1.1362 -2.1591
10835SOL     OW33120   7.032   6.533   3.165 -0.1845  0.1741 -0.3500
10835SOL    HW133121   6.993   6.533   3.077  0.7891  1.6041 -0.8125
10835SOL    HW233122   7.123   6.508   3.150 -0.2612 -0.5857  0.3998
10836SOL     OW33123   2.705   1.433   7.191  0.4504 -0.1086  0.0623
10836SOL    HW133124   2.655   1.510   7.162 -0.2404 -0.5210  0.1384
10836SOL    HW233125   2.756   1.466   7.265 -1.4322 -0.1844  1.4764
10837SOL     OW33126   2.960   6.459   1.366  0.1424 -0.1502  0.4317
10837SOL    HW133127   3.006   6.446   1.449  0.3132 -2.8128 -0.0081
10837SOL    HW233128   2.905   6.382   1.356 -0.3137  0.3806 -1.6658
10838SOL     OW33129   6.448   4.716   2.293 -0.0551  0.8552  0.3508
10838SOL    HW133130   6.433   4.810   2.282  1.0804  0.8734 -1.2801
10838SOL    HW233131   6.535   4.701   2.258  0.6457 -0.5028  2.4611
10839SOL     OW33132   0.220   0.528   6.612 -0.0140  0.1492 -0.2563
10839SOL    HW133133   0.202   0.545   6.520 -0.2369  2.6402  0.1772
10839SOL    HW233134   0.196   0.437   6.625 -3.0310  0.5730 -1.9676
10840SOL     OW33135   5.431   6.426   2.279 -0.5475 -0.7046 -0.2606
10840SOL    HW133136   5.473   6.497   2.231 -1.8187 -0.3394 -0.8782
10840SOL    HW233137   5.485   6.349   2.260  0.5470 -0.0245  0.0035
10841SOL     OW33138   7.000   6.861   0.137 -0.2971 -0.4829  0.7221
10841SOL    HW133139   6.996   6.956   0.150  1.4489  0.0226 -1.7102
10841SOL    HW233140   6.933   6.843   0.071  2.0975 -0.1713 -1.9558
10842SOL     OW33141   7.062   0.954   4.811 -0.6890  0.1767 -0.4492
10842SOL    HW133142   7.080   1.046   4.832  2.6536 -0.3541 -0.4188
10842SOL    HW233143   7.086   0.906   4.891 -1.1592 -0.8196 -0.8914
10843SOL     OW33144   2.153   5.460   4.776 -0.3483  0.4448  0.2243
10843SOL    HW133145   2.207   5.539   4.787  0.3071 -0.0291  0.4524
10843SOL    HW233146   2.157   5.442   4.682  4.0757 -2.4262  0.6856
10844SOL     OW33147   6.699   5.798   6.278  0.9960 -0.0754  0.4841
10844SOL    HW133148   6.724   5.852   6.203 -0.6768  0.0613 -0.0136
10844SOL    HW233149   6.695   5.709   6.244  0.3618 -0.0307  0.4257
10845SOL     OW33150   5.841   5.276   4.419 -0.1658  0.0621  0.0980
10845SOL    HW133151   5.865   5.218   4.347  1.3478  0.1074  0.5396
10845SOL    HW233152   5.748   5.293   4.406  0.0020 -0.1874 -1.6589
10846SOL     OW33153   5.938   4.923   1.680 -0.2474  0.4911  0.1784
10846SOL    HW133154   5.966   4.857   1.743  2.1095  2.3105  1.2076
10846SOL    HW233155   5.843   4.922   1.685 -0.2171 -1.5728  1.4500
10847SOL     OW33156   2.934   1.010   4.608  0.1032 -0.0284 -0.2206
10847SOL    HW133157   2.939   0.994   4.514  0.7114 -0.2921 -0.1483
10847SOL    HW233158   3.025   1.014   4.636 -0.0636  0.7715  0.2384
10848SOL     OW33159   4.783   0.853   6.451 -0.5308  0.0120 -0.0894
10848SOL    HW133160   4.865   0.837   6.497 -1.3853  0.8789  1.8389
10848SOL    HW233161   4.717   0.858   6.520 -1.8498  1.6424 -1.3720
10849SOL     OW33162   4.555   6.668   0.085  0.5392 -0.2756 -0.1679
10849SOL    HW133163   4.650   6.667   0.101  0.5401  1.1325 -0.0065
10849SOL    HW233164   4.520   6.729   0.150 -0.3352  0.1180 -0.9884
10850SOL     OW33165   7.249   4.855   3.850 -0.0758  0.6665  0.0858
10850SOL    HW133166   7.241   4.914   3.924  0.9831  2.6289 -1.2651
10850SOL    HW233167   7.176   4.794   3.859 -1.2241  2.1746  1.5714
10851SOL     OW33168   1.519   1.822   5.433 -0.0059  0.1160  0.0637
10851SOL    HW133169   1.455   1.799   5.500 -1.1574  2.1099 -0.2808
10851SOL    HW233170   1.538   1.914   5.448  2.6102 -0.3168 -0.0386
10852SOL     OW33171   5.436   4.011   5.908  0.2603  0.5098 -0.2142
10852SOL    HW133172   5.436   3.949   5.835 -1.4377  0.3776 -0.1361
10852SOL    HW233173   5.421   4.096   5.867  0.6691  0.6189 -0.1393
10853SOL     OW33174   5.022   4.699   2.198 -0.3124 -0.4949 -0.3905
10853SOL    HW133175   5.013   4.694   2.294  0.1114  0.9401 -0.2573
10853SOL    HW233176   5.047   4.610   2.173  0.7929 -0.6235  0.9904
10854SOL     OW33177   3.938   6.263   4.508 -0.0220  0.7558 -0.1286
10854SOL    HW133178   3.997   6.258   4.433  0.4995  0.5161  0.2930
10854SOL    HW233179   3.921   6.171   4.531 -1.1739  0.8044 -0.7192
10855SOL     OW33180   6.515   7.134   2.959  0.1979  0.1984 -0.0632
10855SOL    HW133181   6.605   7.143   2.930  0.4541 -0.2535  0.5722
10855SOL    HW233182   6.519   7.142   3.054 -0.6491  1.8420 -0.1272
10856SOL     OW33183   4.963   7.187   6.217  0.4702  0.0523 -0.0500
10856SOL    HW133184   4.882   7.166   6.172  1.1991 -2.0238 -0.5036
10856SOL    HW233185   5.010   7.245   6.158 -0.7333  1.4222  0.3011
10857SOL     OW33186   1.592   2.200   5.079 -0.0887  0.2981  0.1558
10857SOL    HW133187   1.517   2.258   5.090  0.2707  0.9687 -0.7542
10857SOL    HW233188   1.667   2.260   5.074  0.5178 -0.3594  1.1451
10858SOL     OW33189   6.856   5.740   1.737  0.4625 -0.1028  0.5453
10858SOL    HW133190   6.941   5.763   1.775  0.2167  0.3409  0.8255
10858SOL    HW233191   6.833   5.656   1.778  0.7112 -0.1723  0.5465
10859SOL     OW33192   2.854   0.382   1.639 -0.9091  0.1649  0.9107
10859SOL    HW133193   2.819   0.365   1.726 -0.0009  2.0201  1.6901
10859SOL    HW233194   2.781   0.367   1.580 -0.7275 -4.6766  1.4815
10860SOL     OW33195   4.758   3.225   5.763  0.0410 -1.0095  0.3023
10860SOL    HW133196   4.665   3.247   5.774 -0.0896 -1.9196  1.0473
10860SOL    HW233197   4.803   3.309   5.775 -0.7862 -0.1056 -2.1288
10861SOL     OW33198   2.576   1.862   5.701  0.3714 -0.5054 -0.4164
10861SOL    HW133199   2.495   1.825   5.666  0.0055 -0.7753  0.6786
10861SOL    HW233200   2.645   1.814   5.657 -0.0679 -0.4953 -1.1299
10862SOL     OW33201   6.043   5.541   2.684 -0.1473  0.0472  0.4394
10862SOL    HW133202   6.099   5.503   2.751  0.2072 -1.0791 -0.4725
10862SOL    HW233203   6.006   5.466   2.638 -3.5580  0.6319  1.8562
10863SOL     OW33204   6.662   3.554   0.914 -0.1238 -0.3845 -0.1182
10863SOL    HW133205   6.608   3.627   0.942 -0.6027  0.0566 -2.0713
10863SOL    HW233206   6.629   3.479   0.965  0.4007  0.6825  1.9218
10864SOL     OW33207   5.442   6.958   5.776  0.3940 -0.6162 -0.5804
10864SOL    HW133208   5.401   6.874   5.753  0.9820 -0.9595 -0.3821
10864SOL    HW233209   5.446   6.958   5.871  0.0933 -0.2099 -0.5628
10865SOL     OW33210   6.867   4.991   3.799  0.1849 -0.2370 -0.8568
10865SOL    HW133211   6.806   5.002   3.726 -1.0420 -1.1093 -0.0019
10865SOL    HW233212   6.820   4.937   3.862  0.6363  1.7226  1.2862
10866SOL     OW33213   3.955   1.437   6.816 -0.0737 -0.2290 -0.3633
10866SOL    HW133214   4.006   1.461   6.739 -1.1717 -0.8031 -1.2914
10866SOL    HW233215   4.016   1.389   6.872  2.0686  3.8880  1.2689
10867SOL     OW33216   6.017   3.237   0.363 -0.2020  0.2387  0.2880
10867SOL    HW133217   5.925   3.245   0.391  0.0499 -1.3063  1.7147
10867SOL    HW233218   6.014   3.177   0.289 -0.3301  0.0781  0.4218
10868SOL     OW33219   3.065   0.188   1.586 -0.1728 -0.0024 -0.2029
10868SOL    HW133220   2.987   0.239   1.605  0.0594 -0.0415  0.9131
10868SOL    HW233221   3.032   0.106   1.549 -0.6177  0.3042 -0.4905
10869SOL     OW33222   2.198   3.622   0.887 -0.6910  0.3075 -0.4519
10869SOL    HW133223   2.173   3.537   0.923  0.2404  0.3415  0.3287
10869SOL    HW233224   2.268   3.601   0.824  0.8004  0.5974  1.0232
10870SOL     OW33225   2.060   6.298   0.417 -0.2284  0.0189 -0.2515
10870SOL    HW133226   2.142   6.311   0.369  1.3051  0.0982  2.2101
10870SOL    HW233227   2.053   6.376   0.473 -2.5100  0.4477 -1.0270
10871SOL     OW33228   2.910   7.085   2.980  0.0979  0.3499  0.4717
10871SOL    HW133229   2.846   7.140   3.027  0.3715  0.4090  0.7843
10871SOL    HW233230   2.867   7.063   2.898  0.4502  2.0823 -0.2352
10872SOL     OW33231   6.997   2.620   3.064  0.2889 -0.7170 -0.4703
10872SOL    HW133232   7.084   2.583   3.052  1.2848  0.7861  1.5427
10872SOL    HW233233   6.964   2.578   3.143  0.0843  0.2359 -0.0320
10873SOL     OW33234   7.223   0.481   1.115 -0.0549 -0.1953 -0.1767
10873SOL    HW133235   7.267   0.564   1.093  1.4411 -0.2428  2.2443
10873SOL    HW233236   7.293   0.426   1.150 -1.5804 -1.2911  1.2880
10874SOL     OW33237   6.507   1.021   2.466  0.3766 -0.6738 -0.1665
10874SOL    HW133238   6.459   1.004   2.385  0.7595 -0.3725 -0.4598
10874SOL    HW233239   6.543   0.936   2.491  0.1323 -0.7965 -0.2286
10875SOL     OW33240   6.236   6.950   1.944  0.1553  0.7380  0.2022
10875SOL    HW133241   6.165   7.002   1.982  0.8365  2.3015 -0.5599
10875SOL    HW233242   6.316   6.993   1.974  0.7331  0.9125 -1.4619
10876SOL     OW33243   4.097   6.360   6.977  0.2635  0.2612  0.0705
10876SOL    HW133244   4.041   6.287   6.952  0.9263  0.0658 -0.9089
10876SOL    HW233245   4.185   6.333   6.953  0.4800  1.5108 -0.6764
10877SOL     OW33246   3.128   3.894   6.190 -0.0241 -0.4967  0.0426
10877SOL    HW133247   3.195   3.959   6.212  0.9893 -1.5423  0.1246
10877SOL    HW233248   3.065   3.901   6.262  0.8995 -0.6819  0.9042
10878SOL     OW33249   3.426   0.593   4.378 -0.2107 -0.3775  0.2249
10878SOL    HW133250   3.437   0.658   4.448  1.0585 -0.0471 -0.2562
10878SOL    HW233251   3.334   0.601   4.353 -0.1549  1.0153  0.3930
10879SOL     OW33252   6.113   4.557   6.903 -0.1147  0.5007  0.7027
10879SOL    HW133253   6.036   4.564   6.847  0.5549  3.0712 -0.0312
10879SOL    HW233254   6.088   4.494   6.971 -1.6564 -1.2175 -1.3085
10880SOL     OW33255   2.481   6.375   4.654  0.2791  0.8518  0.5007
10880SOL    HW133256   2.470   6.421   4.571  0.6482 -0.4003 -0.2731
10880SOL    HW233257   2.545   6.307   4.635  0.5319  0.6861  1.8824
10881SOL     OW33258   6.722   0.913   0.242 -0.6593  0.3449 -0.0341
10881SOL    HW133259   6.627   0.920   0.256 -0.5838  0.7621  0.2746
10881SOL    HW233260   6.756   1.000   0.262  0.0144 -0.2464  1.6274
10882SOL     OW33261   2.303   1.654   2.296  0.5848 -0.0387  0.5215
10882SOL    HW133262   2.255   1.700   2.366  1.0808  0.5754  0.4622
10882SOL    HW233263   2.355   1.722   2.254 -0.4573 -0.1944 -1.1276
10883SOL     OW33264   2.245   4.199   5.657  0.2976 -0.1035  0.1475
10883SOL    HW133265   2.299   4.243   5.723  0.9643  2.0557 -1.7078
10883SOL    HW233266   2.280   4.230   5.574 -0.7712 -2.4131 -1.2615
10884SOL     OW33267   1.294   6.779   6.453 -0.5651  0.2844  0.1835
10884SOL    HW133268   1.223   6.835   6.420 -1.1703 -0.1171  0.7763
10884SOL    HW233269   1.327   6.735   6.375  0.4975  2.0747 -0.4324
10885SOL     OW33270   2.212   7.003   4.994  0.0430  0.3360 -0.1333
10885SOL    HW133271   2.212   7.093   5.029 -2.4436  0.8133 -1.1456
10885SOL    HW233272   2.131   6.998   4.943  0.8130 -2.0862 -1.2144
10886SOL     OW33273   5.843   6.537   3.285 -0.0481 -0.6156 -0.4572
10886SOL    HW133274   5.787   6.608   3.316 -0.0498 -0.2657 -1.2335
10886SOL    HW233275   5.845   6.548   3.190  0.4099 -1.3179 -0.5369
10887SOL     OW33276   5.379   2.861   4.515  0.1241  0.5360  0.0608
10887SOL    HW133277   5.393   2.876   4.421 -0.3507  2.3774  0.2511
10887SOL    HW233278   5.299   2.909   4.535 -1.5516 -2.3051  0.8325
10888SOL     OW33279   2.481   2.638   1.297  0.4962 -0.4419 -0.0382
10888SOL    HW133280   2.435   2.646   1.381 -1.2224 -1.7115 -0.8039
10888SOL    HW233281   2.459   2.718   1.250  1.0651  0.0515  0.5245
10889SOL     OW33282   2.588   3.017   6.259 -0.1793 -0.9305  0.1045
10889SOL    HW133283   2.639   3.097   6.254 -1.4814  0.0276  1.3859
10889SOL    HW233284   2.610   2.980   6.344 -0.2808 -1.4620 -0.0944
10890SOL     OW33285   2.471   0.961   5.105 -0.0683 -0.1651  0.3140
10890SOL    HW133286   2.467   0.872   5.069  2.0762 -0.0997 -0.2655
10890SOL    HW233287   2.413   0.959   5.180 -2.1012 -1.2941 -1.1784
10891SOL     OW33288   0.474   4.688   4.255 -0.2738  0.4008  0.4799
10891SOL    HW133289   0.414   4.763   4.259 -1.6127 -0.5733 -0.3673
10891SOL    HW233290   0.491   4.676   4.162 -2.7904 -2.3259  0.2379
10892SOL     OW33291   6.120   6.378   2.672 -0.2003 -0.2600  0.2690
10892SOL    HW133292   6.156   6.444   2.730  0.1878  0.4505 -0.7443
10892SOL    HW233293   6.083   6.312   2.730 -0.2547  0.6576  1.3043
10893SOL     OW33294   4.269   4.977   2.423  0.3530 -0.0846  0.1220
10893SOL    HW133295   4.265   4.916   2.497  1.8553  1.6338  1.7206
10893SOL    HW233296   4.351   4.955   2.379  1.1751  1.0532  1.0229
10894SOL     OW33297   5.772   0.187   5.683  0.3164  0.3669 -0.1827
10894SOL    HW133298   5.839   0.134   5.725  0.0725  0.9322  0.9519
10894SOL    HW233299   5.739   0.133   5.611 -0.6952 -1.4915  1.5861
10895SOL     OW33300   1.698   6.900   1.790 -0.5000  0.4010  0.5042
10895SOL    HW133301   1.790   6.881   1.808 -0.1107 -0.6111 -2.1090
10895SOL    HW233302   1.699   6.988   1.751 -0.7155  0.6026  0.9489
10896SOL     OW33303   2.042   0.373   7.238  0.0367 -0.1323  0.2794
10896SOL    HW133304   2.077   0.346   7.154  0.9425  0.8397  0.3143
10896SOL    HW233305   1.948   0.381   7.224  0.2159  0.3411 -0.7524
10897SOL     OW33306   1.801   5.558   2.559 -0.1367 -0.6383  0.1665
10897SOL    HW133307   1.797   5.649   2.529  0.5976 -0.8980 -0.7655
10897SOL    HW233308   1.750   5.557   2.640  1.3149  0.9880  1.1694
10898SOL     OW33309   2.359   3.853   2.579  0.2833  0.6850  0.7771
10898SOL    HW133310   2.423   3.919   2.554 -1.4218  2.7760  1.5903
10898SOL    HW233311   2.336   3.876   2.669  0.4824 -1.7882  1.5228
10899SOL     OW33312   0.467   2.604   5.281  0.0213 -0.2725 -0.2048
10899SOL    HW133313   0.411   2.570   5.211  1.0777 -2.1468 -0.2070
10899SOL    HW233314   0.472   2.532   5.344 -0.0999  1.0161  1.3403
10900SOL     OW33315   3.173   2.387   6.822 -0.5336 -0.5240  0.2608
10900SOL    HW133316   3.121   2.364   6.745 -2.4391  0.2321  1.2537
10900SOL    HW233317   3.114   2.440   6.876  0.4165 -1.7798  2.6847
10901SOL     OW33318   0.956   6.541   0.531 -0.5099  0.0471  0.1469
10901SOL    HW133319   1.007   6.462   0.517 -2.3377 -1.2271  0.3953
10901SOL    HW233320   0.960   6.555   0.625  0.8501  1.0269 -0.0208
10902SOL     OW33321   5.808   4.875   6.145 -0.1971 -0.2159 -0.1354
10902SOL    HW133322   5.806   4.968   6.168  0.5071  0.5451 -2.7737
10902SOL    HW233323   5.893   4.862   6.103  0.1922 -2.3789  1.1422
10903SOL     OW33324   7.218   6.456   4.379  0.7513 -0.5473  0.5051
10903SOL    HW133325   7.217   6.499   4.293  1.8371 -2.1678 -0.3542
10903SOL    HW233326   7.141   6.492   4.424  0.1102  0.2717 -1.1544
10904SOL     OW33327   4.667   1.334   6.241 -0.1154  0.3338  0.3871
10904SOL    HW133328   4.689   1.248   6.277 -1.7680 -0.2333  0.1499
10904SOL    HW233329   4.572   1.338   6.247 -0.0331  2.4236  0.9414
10905SOL     OW33330   6.442   4.565   1.132 -0.5958  0.1077 -0.4943
10905SOL    HW133331   6.489   4.533   1.055  0.3918 -2.1505  0.9473
10905SOL    HW233332   6.475   4.654   1.146  2.1790 -0.8520 -0.4121
10906SOL     OW33333   4.289   5.212   2.227 -0.3907 -0.4057 -0.3803
10906SOL    HW133334   4.263   5.162   2.304 -1.9639 -0.1524 -0.7300
10906SOL    HW233335   4.227   5.284   2.222 -0.3793 -0.4732 -1.9453
10907SOL     OW33336   3.648   4.573   1.055  0.0985  0.1318 -0.2542
10907SOL    HW133337   3.663   4.653   1.106 -0.5362  0.6259 -0.8199
10907SOL    HW233338   3.561   4.585   1.017  0.4483 -0.3277 -1.2498
10908SOL     OW33339   1.660   2.718   4.897  0.2368  0.3592 -0.8605
10908SOL    HW133340   1.596   2.679   4.956  0.8064  0.5901 -0.0772
10908SOL    HW233341   1.615   2.792   4.858 -0.8627 -1.0200 -2.3659
10909SOL     OW33342   4.771   6.427   1.108  0.0308  0.1588 -0.4922
10909SOL    HW133343   4.813   6.342   1.095  0.3604  0.5220 -1.8899
10909SOL    HW233344   4.821   6.467   1.179 -0.0878 -0.7706  0.1409
10910SOL     OW33345   0.156   2.254   4.586  0.3129 -0.1028  0.0253
10910SOL    HW133346   0.171   2.204   4.667  0.4892 -2.8865 -1.6017
10910SOL    HW233347   0.093   2.201   4.537 -0.6545  2.0946 -1.2214
10911SOL     OW33348   1.260   5.878   7.184  0.3534 -0.0281 -0.3227
10911SOL    HW133349   1.231   5.968   7.201  0.9139  0.0123  0.4342
10911SOL    HW233350   1.288   5.845   7.269  0.6478 -0.7426 -0.6919
10912SOL     OW33351   1.541   5.992   1.086 -0.0980  0.1641 -0.2428
10912SOL    HW133352   1.589   5.918   1.121 -2.6252 -1.7241 -0.4557
10912SOL    HW233353   1.578   6.006   0.999  0.7242 -0.5601 -0.0154
10913SOL     OW33354   3.426   3.502   6.428 -0.4283 -0.0377  0.3406
10913SOL    HW133355   3.479   3.546   6.494 -0.6158  0.0483  0.4330
10913SOL    HW233356   3.403   3.571   6.365  2.6169 -0.6875 -1.7349
10914SOL     OW33357   0.851   6.344   3.686 -0.4733 -0.1843  0.0594
10914SOL    HW133358   0.864   6.368   3.594 -0.4557  0.5220  0.2440
10914SOL    HW233359   0.791   6.269   3.682 -0.8983  0.1715 -0.5042
10915SOL     OW33360   4.730   6.774   3.069 -0.0888 -0.3529 -0.3336
10915SOL    HW133361   4.649   6.740   3.109  0.8714 -2.2276  0.1505
10915SOL    HW233362   4.748   6.713   2.998  0.0919  0.9604 -1.4457
10916SOL     OW33363   3.823   4.572   4.577  0.4348 -0.1833 -0.0748
10916SOL    HW133364   3.818   4.607   4.665  0.1453  0.2445 -0.2570
10916SOL    HW233365   3.896   4.510   4.579  0.8791  0.3481  0.2818
10917SOL     OW33366   6.282   6.195   5.806  0.3605 -0.4093  0.3525
10917SOL    HW133367   6.314   6.185   5.717 -0.0848  0.4476  0.0757
10917SOL    HW233368   6.346   6.150   5.861  0.9330 -0.4680 -0.3562
10918SOL     OW33369   6.798   5.113   6.934 -0.0811  0.3235  0.3515
10918SOL    HW133370   6.725   5.123   6.995 -0.1425 -0.1496  0.3628
10918SOL    HW233371   6.794   5.021   6.907 -0.7089  0.7750 -1.2036
10919SOL     OW33372   4.146   6.919   1.825  0.1570  0.0241 -0.1389
10919SOL    HW133373   4.091   6.900   1.748  0.2009 -1.8837  0.2540
10919SOL    HW233374   4.107   6.868   1.895 -1.3619  3.5351  1.8664
10920SOL     OW33375   6.551   3.385   4.337  0.0802 -0.9946 -0.2075
10920SOL    HW133376   6.474   3.395   4.393  0.0398  0.0666 -0.4340
10920SOL    HW233377   6.607   3.460   4.359  0.0064 -0.4859 -1.6617
10921SOL     OW33378   4.307   4.220   5.876  0.3594 -0.1082 -0.2970
10921SOL    HW133379   4.334   4.198   5.787 -0.7154  1.1116 -0.9501
10921SOL    HW233380   4.245   4.292   5.866  0.8856  0.6576  1.5006
10922SOL     OW33381   0.874   3.610   0.119  0.6720 -0.1250  0.2931
10922SOL    HW133382   0.868   3.661   0.039  2.4976 -0.7609 -0.2864
10922SOL    HW233383   0.817   3.534   0.103 -1.2767  1.1729  0.7852
10923SOL     OW33384   1.144   6.635   3.375 -0.6426 -0.0641 -0.1220
10923SOL    HW133385   1.196   6.568   3.330  0.6095  0.0172  1.1601
10923SOL    HW233386   1.057   6.595   3.384 -0.8720 -0.1865 -2.3239
10924SOL     OW33387   1.245   4.022   3.453 -0.0682  0.0557 -0.1352
10924SOL    HW133388   1.265   3.944   3.401  0.3928  0.4204 -0.5091
10924SOL    HW233389   1.272   3.998   3.542 -0.5711 -0.4546 -0.1130
10925SOL     OW33390   4.901   2.490   5.636 -0.0344 -0.2355  0.0398
10925SOL    HW133391   4.849   2.428   5.585 -0.3843 -0.0789  0.2037
10925SOL    HW233392   4.862   2.487   5.724 -0.3227  0.5354 -0.0586
10926SOL     OW33393   2.907   0.003   4.113  0.3769 -0.1105 -0.1739
10926SOL    HW133394   2.917   0.021   4.207  1.2657 -2.7282  0.3285
10926SOL    HW233395   2.982   0.045   4.072  0.3442  0.4938  0.3710
10927SOL     OW33396   1.818   1.127   5.417  0.6013  0.1400 -0.8195
10927SOL    HW133397   1.733   1.171   5.413  1.0431  1.4198  1.9147
10927SOL    HW233398   1.797   1.033   5.415 -0.9403  0.4285  0.4114
10928SOL     OW33399   2.153   1.267   5.543 -0.4572  0.0989 -0.5266
10928SOL    HW133400   2.146   1.351   5.498 -0.9111  0.2919 -0.1081
10928SOL    HW233401   2.245   1.259   5.566  0.2983 -1.1142 -3.5980
10929SOL     OW33402   1.482   5.715   6.091  0.2973  0.4649 -0.3983
10929SOL    HW133403   1.576   5.730   6.106  0.2763  1.1817 -0.9118
10929SOL    HW233404   1.479   5.641   6.031  0.4961 -0.2246  0.4286
10930SOL     OW33405   3.263   2.814   0.769 -0.0314 -0.5324 -0.1314
10930SOL    HW133406   3.263   2.847   0.679  0.1738  0.4288  0.2060
10930SOL    HW233407   3.174   2.784   0.784 -0.0039 -0.9264 -0.7337
10931SOL     OW33408   4.792   2.459   2.073 -0.3857 -0.3281  0.3541
10931SOL    HW133409   4.728   2.526   2.047 -0.1826 -0.8409 -1.6185
10931SOL    HW233410   4.767   2.382   2.023 -0.7738 -1.8656  2.7749
10932SOL     OW33411   0.374   1.740   5.132 -0.0480  0.1019  0.5857
10932SOL    HW133412   0.318   1.692   5.070  0.3427  0.7196 -0.2743
10932SOL    HW233413   0.315   1.763   5.204 -0.7885  0.2813 -0.0535
10933SOL     OW33414   4.517   2.306   3.702 -0.8164  0.2656 -0.0548
10933SOL    HW133415   4.447   2.293   3.766  1.2161 -1.6555  2.0209
10933SOL    HW233416   4.545   2.396   3.715 -0.8494  0.0981  1.4532
10934SOL     OW33417   5.833   6.200   3.636  0.0561 -0.3567  0.1254
10934SOL    HW133418   5.842   6.261   3.710  2.5789  0.1771 -0.5392
10934SOL    HW233419   5.878   6.120   3.666  0.3918 -0.4147 -0.5313
10935SOL     OW33420   0.471   4.652   3.703 -0.2382  0.1828 -0.9540
10935SOL    HW133421   0.483   4.688   3.615 -0.3099  1.2179 -0.5497
10935SOL    HW233422   0.378   4.663   3.722 -0.4209 -0.9317 -1.1140
10936SOL     OW33423   6.553   2.781   5.589  0.0217 -0.2679 -0.0829
10936SOL    HW133424   6.514   2.768   5.502  0.7229  1.6646 -0.7354
10936SOL    HW233425   6.633   2.729   5.586  0.5773  0.5982 -1.0087
10937SOL     OW33426   7.112   6.491   4.803  0.3151 -0.1357  0.0667
10937SOL    HW133427   7.201   6.457   4.790  0.1969 -0.0784 -0.9135
10937SOL    HW233428   7.077   6.436   4.873  1.8936  1.3254  2.1576
10938SOL     OW33429   6.543   7.009   1.513  0.0673 -0.0289 -0.0979
10938SOL    HW133430   6.618   6.951   1.499  0.6084  0.7935 -0.7167
10938SOL    HW233431   6.580   7.087   1.555 -0.7179 -0.2893  1.1127
10939SOL     OW33432   4.764   2.357   0.673  0.4663  0.1552 -0.3312
10939SOL    HW133433   4.767   2.412   0.751 -0.4943 -0.0443 -0.1395
10939SOL    HW233434   4.743   2.417   0.602 -2.5069 -0.1496  0.1492
10940SOL     OW33435   1.589   7.090   3.911  0.0875  0.0935  0.0961
10940SOL    HW133436   1.565   7.102   4.002  1.0154 -0.9294  0.5029
10940SOL    HW233437   1.584   6.995   3.897  1.7615  0.0229 -0.3514
10941SOL     OW33438   1.623   2.706   2.354  0.1795 -0.5672  0.2035
10941SOL    HW133439   1.533   2.731   2.373  0.0525 -0.7557 -0.1349
10941SOL    HW233440   1.630   2.615   2.385  0.0888 -0.7387 -0.2687
10942SOL     OW33441   5.175   5.023   5.619 -0.1574  0.4042  0.5550
10942SOL    HW133442   5.226   5.035   5.539 -0.2753  0.9400  0.5564
10942SOL    HW233443   5.143   4.933   5.614  1.8760 -0.4104  1.1859
10943SOL     OW33444   0.676   2.574   6.555  0.0910  0.5341  0.3295
10943SOL    HW133445   0.668   2.483   6.527  0.5229  0.4458  0.4943
10943SOL    HW233446   0.684   2.570   6.650 -0.8329  0.8026  0.4252
10944SOL     OW33447   5.018   0.463   0.600 -0.2270 -0.5995  0.2009
10944SOL    HW133448   5.017   0.539   0.542  0.1434 -0.3049  0.5738
10944SOL    HW233449   5.018   0.388   0.540 -0.7115 -0.3158 -0.1697
10945SOL     OW33450   6.247   2.760   6.845 -0.8339  0.2331 -0.7372
10945SOL    HW133451   6.189   2.707   6.790 -1.3434  0.4808 -0.4479
10945SOL    HW233452   6.216   2.850   6.832 -0.3392  0.3981 -0.7878
10946SOL     OW33453   4.574   0.633   2.424 -0.0174 -0.2367  0.0605
10946SOL    HW133454   4.621   0.559   2.384  0.8702  0.6471 -0.5678
10946SOL    HW233455   4.518   0.666   2.354  0.7133  0.6230 -0.1303
10947SOL     OW33456   0.123   3.987   3.244 -0.7914  0.7328 -0.5278
10947SOL    HW133457   0.214   3.977   3.272 -0.8824  0.4008 -0.3571
10947SOL    HW233458   0.107   3.912   3.188 -0.8105  1.0529 -0.9606
10948SOL     OW33459   1.566   2.441   2.417  0.0948 -0.5983  0.7054
10948SOL    HW133460   1.601   2.354   2.437 -0.8460 -1.3328 -0.6930
10948SOL    HW233461   1.501   2.425   2.349 -0.8197  1.0901  1.1417
10949SOL     OW33462   3.432   4.835   1.706  0.1306  0.3945 -0.4289
10949SOL    HW133463   3.451   4.906   1.767  0.3668 -0.8773  1.0230
10949SOL    HW233464   3.510   4.830   1.650  0.6261  0.5052  0.2445
10950SOL     OW33465   0.321   0.017   5.766 -0.5430  0.2350 -0.2885
10950SOL    HW133466   0.398   0.061   5.802  0.5476  0.6261 -2.8953
10950SOL    HW233467   0.275   0.084   5.715 -1.8792 -0.3393  0.0963
10951SOL     OW33468   5.469   6.177   4.042 -0.0740  0.6889 -0.0703
10951SOL    HW133469   5.448   6.257   3.992 -1.1992 -0.2163 -1.1023
10951SOL    HW233470   5.388   6.126   4.041  1.0758 -1.2212 -0.8451
10952SOL     OW33471   2.181   3.857   1.923  0.0344 -0.8201  0.0205
10952SOL    HW133472   2.210   3.767   1.940  0.4819 -0.4757  1.1647
10952SOL    HW233473   2.161   3.893   2.010  1.8060  0.8285 -0.1910
10953SOL     OW33474   6.859   5.317   5.378  0.0440 -0.3399 -0.2903
10953SOL    HW133475   6.864   5.313   5.473 -0.8294  0.1437 -0.2112
10953SOL    HW233476   6.945   5.287   5.348  0.1115 -1.1028  0.6245
10954SOL     OW33477   5.548   6.584   6.469 -0.9591  0.2502  0.0313
10954SOL    HW133478   5.576   6.512   6.525 -0.8870  1.3024  1.3950
10954SOL    HW233479   5.513   6.542   6.390  1.4639 -1.2187 -0.3636
10955SOL     OW33480   4.137   3.165   6.822  0.2498 -0.1328 -0.5590
10955SOL    HW133481   4.065   3.113   6.786 -0.1209 -0.3520  0.4591
10955SOL    HW233482   4.123   3.253   6.787 -0.6024 -0.1394 -0.2491
10956SOL     OW33483   4.625   0.347   5.500 -0.3683  0.3793 -0.6831
10956SOL    HW133484   4.621   0.258   5.534 -0.6455  1.0249  1.0419
10956SOL    HW233485   4.540   0.386   5.520  0.4199  1.6466  0.3954
10957SOL     OW33486   0.185   2.067   1.966  0.0627  0.0902 -0.1777
10957SOL    HW133487   0.245   2.137   1.940  0.5744  0.6240  2.1791
10957SOL    HW233488   0.098   2.107   1.959  0.2827  0.6613  0.2096
10958SOL     OW33489   3.029   3.758   3.770 -0.1519 -0.5408  0.5785
10958SOL    HW133490   2.991   3.704   3.839  0.5827 -2.2968 -0.3221
10958SOL    HW233491   2.959   3.764   3.704 -0.3951  0.0188  0.8826
10959SOL     OW33492   2.343   6.516   1.242  0.1474  0.4337  0.1577
10959SOL    HW133493   2.427   6.476   1.217  0.3043  1.0587 -0.3376
10959SOL    HW233494   2.345   6.516   1.338 -0.4999 -2.0552  0.2300
10960SOL     OW33495   0.650   6.883   4.040 -0.5363  0.5573  0.5913
10960SOL    HW133496   0.601   6.901   3.959 -0.8916 -1.4966  0.3140
10960SOL    HW233497   0.602   6.930   4.108 -0.4046  2.0742 -0.3072
10961SOL     OW33498   2.158   4.755   5.598 -0.1459  0.2187 -0.1640
10961SOL    HW133499   2.080   4.785   5.646  0.0084  3.2947 -1.6293
10961SOL    HW233500   2.215   4.718   5.666 -2.1880 -0.6807  1.1589
10962SOL     OW33501   5.754   4.954   2.094  0.3043  0.2535 -0.4110
10962SOL    HW133502   5.773   4.976   2.185  0.7621 -1.9057  0.0642
10962SOL    HW233503   5.704   5.029   2.061  0.4537  1.2412  1.4844
10963SOL     OW33504   3.257   6.465   0.478 -0.4056  0.0187  0.1867
10963SOL    HW133505   3.252   6.553   0.514 -1.5365 -0.7175  1.9899
10963SOL    HW233506   3.180   6.458   0.421  0.5418  0.6724 -1.2290
10964SOL     OW33507   0.656   4.809   1.891  0.4989  0.1137  0.5333
10964SOL    HW133508   0.631   4.751   1.963  0.7164 -0.5478  0.0811
10964SOL    HW233509   0.742   4.778   1.863  0.0224 -0.2304 -0.6125
10965SOL     OW33510   1.931   5.879   4.415  0.2720  0.1046 -0.2502
10965SOL    HW133511   1.849   5.869   4.367  0.2047  0.1009 -0.1366
10965SOL    HW233512   1.999   5.862   4.351  0.2356  1.7035 -0.7706
10966SOL     OW33513   4.371   6.439   1.192  0.2736 -0.1777  0.1620
10966SOL    HW133514   4.305   6.371   1.205  1.4376 -1.4498 -0.3421
10966SOL    HW233515   4.454   6.396   1.214  1.0609  0.9905 -0.4407
10967SOL     OW33516   1.856   0.697   1.643  0.2918  0.3741  1.0254
10967SOL    HW133517   1.876   0.761   1.574  0.7699 -0.1466  0.6726
10967SOL    HW233518   1.939   0.687   1.690 -0.0952  0.9077  1.8367
10968SOL     OW33519   4.087   0.249   0.175  0.1817  0.1574  0.4141
10968SOL    HW133520   4.014   0.272   0.232 -0.1738 -0.7444  0.3395
10968SOL    HW233521   4.136   0.330   0.164 -1.0235  0.8616  0.1474
10969SOL     OW33522   1.826   1.444   7.177 -0.5227 -0.1750 -0.2230
10969SOL    HW133523   1.741   1.421   7.216 -0.2106 -1.9071 -0.4656
10969SOL    HW233524   1.864   1.507   7.238 -1.5857 -0.0742  0.3704
10970SOL     OW33525   0.476   4.482   5.090  0.3783 -0.4777  0.7071
10970SOL    HW133526   0.570   4.471   5.099  0.2172 -2.8921  0.0373
10970SOL    HW233527   0.439   4.400   5.122 -1.2943 -0.8553 -1.8811
10971SOL     OW33528   6.988   3.738   3.077  0.0950 -0.2339  0.3490
10971SOL    HW133529   6.961   3.697   3.159 -1.1591 -2.2020 -0.9586
10971SOL    HW233530   6.939   3.691   3.009  0.5017  1.8154 -1.4936
10972SOL     OW33531   4.942   5.022   3.449 -0.1847  0.3167 -0.1416
10972SOL    HW133532   4.951   5.021   3.544 -0.1550 -0.0580 -0.1465
10972SOL    HW233533   4.883   4.949   3.429 -0.9377  0.9705 -0.3391
10973SOL     OW33534   0.160   4.149   2.028  0.1460 -0.0242 -0.2738
10973SOL    HW133535   0.137   4.211   1.958  1.1528  0.3630 -0.2876
10973SOL    HW233536   0.256   4.151   2.029  0.1803 -1.3957 -0.0897
10974SOL     OW33537   6.645   4.779   1.748 -0.3490  0.4498 -0.3753
10974SOL    HW133538   6.739   4.786   1.761 -0.3844  0.9893 -0.4000
10974SOL    HW233539   6.608   4.852   1.797 -0.8930 -0.7465  1.0434
10975SOL     OW33540   6.759   0.969   3.490  0.5189 -0.0036  0.2134
10975SOL    HW133541   6.733   0.877   3.485  0.2358  0.1171 -0.7189
10975SOL    HW233542   6.676   1.017   3.489  0.7012  0.3231 -1.1740
10976SOL     OW33543   0.105   1.706   3.183 -0.2279 -0.2023 -0.4079
10976SOL    HW133544   0.174   1.678   3.122  0.5981 -0.7512  0.7455
10976SOL    HW233545   0.127   1.663   3.265 -1.7529 -0.0815  0.0925
10977SOL     OW33546   1.581   5.580   5.618 -0.2494 -0.1813 -0.3592
10977SOL    HW133547   1.664   5.578   5.571 -0.2200 -0.3454 -0.3023
10977SOL    HW233548   1.520   5.533   5.560 -1.3208  3.2234 -2.2885
10978SOL     OW33549   0.329   6.623   0.543  0.6206 -0.5444  0.3739
10978SOL    HW133550   0.292   6.646   0.458 -1.4712  1.0892  1.6229
10978SOL    HW233551   0.395   6.557   0.524 -1.2012 -1.7357 -2.3051
10979SOL     OW33552   5.311   5.252   6.590 -0.0877 -0.8599 -0.3953
10979SOL    HW133553   5.239   5.205   6.633 -0.4885 -0.2153 -0.3473
10979SOL    HW233554   5.268   5.305   6.523 -0.1035  2.0789  1.7491
10980SOL     OW33555   5.656   2.100   6.855 -0.1780 -0.3362  0.7968
10980SOL    HW133556   5.750   2.086   6.846  0.3801  2.3267  1.5454
10980SOL    HW233557   5.633   2.057   6.937  0.0603 -2.2114 -0.0796
10981SOL     OW33558   4.508   5.898   2.383 -0.6540 -0.3647 -0.1097
10981SOL    HW133559   4.460   5.924   2.462 -0.5708 -1.3671  0.2901
10981SOL    HW233560   4.575   5.838   2.415 -0.2236 -0.2954 -0.8731
10982SOL     OW33561   5.628   2.542   4.387  0.3360 -0.0723  0.3021
10982SOL    HW133562   5.643   2.636   4.399 -1.8409  0.4181 -0.3983
10982SOL    HW233563   5.654   2.525   4.297  0.1319  0.0034  0.2279
10983SOL     OW33564   0.800   4.300   3.465 -0.3833  0.7966 -0.4798
10983SOL    HW133565   0.732   4.313   3.532 -0.7687 -0.2208 -0.6690
10983SOL    HW233566   0.849   4.224   3.495 -1.0125 -0.1186 -1.7206
10984SOL     OW33567   0.974   6.752   2.734 -0.1871  0.2569  0.2941
10984SOL    HW133568   0.955   6.837   2.694  1.3190 -0.9208 -3.4659
10984SOL    HW233569   0.898   6.699   2.714  0.3944 -0.2205 -0.7648
10985SOL     OW33570   2.382   6.045   6.323  0.2136 -0.1382  0.0902
10985SOL    HW133571   2.394   6.127   6.371 -0.7057 -0.2659  0.5556
10985SOL    HW233572   2.436   6.055   6.245 -0.3921  1.1702 -0.1820
10986SOL     OW33573   5.638   3.217   3.142  0.2823  0.0146  0.4234
10986SOL    HW133574   5.625   3.312   3.142  0.8547  0.0981  0.8636
10986SOL    HW233575   5.726   3.205   3.108 -0.5766 -0.5034 -1.7941
10987SOL     OW33576   5.761   5.643   2.748 -0.2671  0.3190 -0.3100
10987SOL    HW133577   5.797   5.566   2.703  0.6197  1.4259 -1.5578
10987SOL    HW233578   5.711   5.606   2.822 -0.7160 -1.5011 -1.4463
10988SOL     OW33579   4.204   0.733   4.111  0.2394 -0.3752  0.3789
10988SOL    HW133580   4.261   0.763   4.040 -0.4286 -0.1277 -0.0679
10988SOL    HW233581   4.174   0.647   4.082 -2.9554  1.1649 -1.4903
10989SOL     OW33582   0.181   5.434   3.601 -0.0473 -0.0044 -0.1133
10989SOL    HW133583   0.252   5.435   3.664 -0.5133  1.3422  0.4310
10989SOL    HW233584   0.116   5.494   3.637 -0.8860 -0.1984 -1.2421
10990SOL     OW33585   1.754   2.541   2.795 -0.2241  0.3969  0.0137
10990SOL    HW133586   1.828   2.480   2.791 -0.3892  0.2384 -1.2558
10990SOL    HW233587   1.779   2.613   2.737 -1.0085  0.3896 -0.3501
10991SOL     OW33588   6.728   0.580   1.486  0.2802 -0.5347  0.1524
10991SOL    HW133589   6.743   0.660   1.436 -0.9313 -0.2095  0.2929
10991SOL    HW233590   6.732   0.510   1.421 -0.7426 -0.1615 -0.3292
10992SOL     OW33591   1.042   2.267   1.773 -0.2922  0.4182  0.4653
10992SOL    HW133592   1.115   2.315   1.734 -0.5643  0.8437  0.4825
10992SOL    HW233593   0.991   2.235   1.698  0.5617 -0.9041  0.4193
10993SOL     OW33594   1.057   2.051   6.075 -0.2746 -0.0538  0.1092
10993SOL    HW133595   1.016   2.079   6.156 -0.1316 -0.1795  0.2261
10993SOL    HW233596   1.064   2.131   6.023 -0.5846 -0.0172  0.1245
10994SOL     OW33597   3.277   3.227   4.619  0.0267  0.5592 -0.0771
10994SOL    HW133598   3.182   3.239   4.621 -0.5223 -2.7211 -1.6137
10994SOL    HW233599   3.299   3.222   4.527  1.8806  1.9360  0.2286
10995SOL     OW33600   7.172   7.101   2.372 -0.7528 -0.0858  0.2595
10995SOL    HW133601   7.253   7.127   2.328 -1.0881  0.2012 -0.1919
10995SOL    HW233602   7.164   7.008   2.355  0.7282 -0.6685  2.3160
10996SOL     OW33603   1.321   0.794   6.407  0.0794 -0.2256  0.6478
10996SOL    HW133604   1.237   0.813   6.364 -0.1991 -1.6401  0.5027
10996SOL    HW233605   1.350   0.712   6.367 -0.3088 -1.7698  3.2462
10997SOL     OW33606   5.276   4.490   7.245  0.7729  0.8775  0.0357
10997SOL    HW133607   5.223   4.523   7.318 -0.0216 -0.6314  0.1761
10997SOL    HW233608   5.335   4.426   7.285 -0.5295 -0.9242 -0.7494
10998SOL     OW33609   3.399   1.507   0.113  0.2903  0.5340  0.2657
10998SOL    HW133610   3.460   1.534   0.044 -0.6909  0.3421 -0.7087
10998SOL    HW233611   3.455   1.468   0.180  1.2017 -0.0977 -0.8185
10999SOL     OW33612   0.884   6.572   2.294  0.4913 -0.1680  0.1024
10999SOL    HW133613   0.938   6.529   2.361  1.8691 -0.2368 -0.9905
10999SOL    HW233614   0.905   6.665   2.302 -2.3283  0.4053  2.3229
11000SOL     OW33615   2.941   6.898   5.207  0.1799  0.9442 -0.0465
11000SOL    HW133616   2.984   6.829   5.157  2.2431  2.1029  0.0041
11000SOL    HW233617   2.984   6.897   5.292 -1.1237  1.0368  0.6361
11001SOL     OW33618   2.885   5.822   3.219  0.0438  0.2006  0.0501
11001SOL    HW133619   2.920   5.864   3.140  0.4702 -1.6835 -0.8270
11001SOL    HW233620   2.790   5.825   3.208  0.0825  0.7039 -0.1361
11002SOL     OW33621   7.208   3.812   5.155 -0.7481  0.0594  0.3664
11002SOL    HW133622   7.277   3.747   5.169  0.6795  1.2730 -0.7825
11002SOL    HW233623   7.152   3.774   5.087  0.3271  0.1945 -0.6172
11003SOL     OW33624   2.639   3.020   1.854  0.5724  0.4172  0.3090
11003SOL    HW133625   2.710   2.986   1.800  0.4597  0.8273 -0.1051
11003SOL    HW233626   2.584   2.944   1.874  1.1349  0.0944  0.6533
11004SOL     OW33627   2.062   2.798   2.837 -0.4530 -0.0747 -0.6194
11004SOL    HW133628   2.087   2.714   2.799  0.1890  0.0305 -0.4320
11004SOL    HW233629   2.136   2.856   2.819 -0.3640  0.1216  0.3395
11005SOL     OW33630   5.660   4.702   2.144  0.0378 -0.4972 -0.4158
11005SOL    HW133631   5.692   4.779   2.097 -1.3406  0.2887 -0.1151
11005SOL    HW233632   5.735   4.675   2.198  1.4120 -0.9991 -2.4395
11006SOL     OW33633   2.980   6.581   3.422 -0.5459  0.6242 -0.1111
11006SOL    HW133634   3.062   6.560   3.378 -0.9712  1.1168 -1.1902
11006SOL    HW233635   2.996   6.665   3.464 -0.8331  1.3226 -1.3343
11007SOL     OW33636   1.979   7.156   3.596 -0.1646 -0.3088 -0.3990
11007SOL    HW133637   1.946   7.095   3.531 -0.2373 -1.1109  0.3835
11007SOL    HW233638   1.963   7.114   3.680 -0.0258  0.6923  0.1461
11008SOL     OW33639   7.227   5.178   5.842 -0.1855  0.1380 -0.4439
11008SOL    HW133640   7.320   5.167   5.823 -0.2783 -0.8140 -0.3880
11008SOL    HW233641   7.208   5.110   5.907 -0.5262  1.4450  0.8676
11009SOL     OW33642   0.498   4.493   2.516  0.3091 -0.0232 -0.3219
11009SOL    HW133643   0.430   4.475   2.582  1.2952 -2.5054  0.1204
11009SOL    HW233644   0.580   4.485   2.563  1.0697  3.7152 -0.6723
11010SOL     OW33645   3.094   6.467   4.840  0.4477  0.4939 -0.0902
11010SOL    HW133646   3.097   6.375   4.865 -0.6843 -0.1196 -2.0175
11010SOL    HW233647   3.006   6.480   4.805  1.0716  1.9215 -1.2608
11011SOL     OW33648   2.704   3.556   2.176 -0.0609 -0.3105  0.0746
11011SOL    HW133649   2.611   3.580   2.171  0.2097  0.6345 -0.7055
11011SOL    HW233650   2.705   3.479   2.233 -1.3267 -0.3581  0.0798
11012SOL     OW33651   3.495   0.367   1.322 -0.0383 -0.0938  0.1286
11012SOL    HW133652   3.580   0.324   1.329 -0.7790 -2.2512 -2.7432
11012SOL    HW233653   3.514   0.449   1.276  0.5556 -0.1683  0.2271
11013SOL     OW33654   2.994   3.748   0.305 -0.0067 -0.4245 -0.3972
11013SOL    HW133655   3.021   3.831   0.266  1.1251 -0.5311  0.1143
11013SOL    HW233656   2.963   3.696   0.231  0.5268 -0.0218 -0.9153
11014SOL     OW33657   3.698   5.501   3.767  0.4431  0.1896  0.4609
11014SOL    HW133658   3.626   5.541   3.817 -0.1591  1.9167 -1.6142
11014SOL    HW233659   3.656   5.430   3.718  0.1031  1.0829 -0.6108
11015SOL     OW33660   6.653   1.776   2.506  0.3135  0.0598  0.2871
11015SOL    HW133661   6.736   1.810   2.472  0.0449  1.1618  0.6743
11015SOL    HW233662   6.617   1.849   2.557 -0.3926 -0.7641  0.9936
11016SOL     OW33663   1.346   2.292   1.777  0.0740 -0.5522  0.2405
11016SOL    HW133664   1.311   2.373   1.813 -0.8577 -0.8429  0.0191
11016SOL    HW233665   1.398   2.254   1.848  1.6299  0.8732 -0.0810
11017SOL     OW33666   3.792   6.715   1.058  0.1012 -0.4232  0.5584
11017SOL    HW133667   3.812   6.796   1.105  0.4380  0.0161 -0.3168
11017SOL    HW233668   3.873   6.664   1.064  0.5284  0.1113 -0.4874
11018SOL     OW33669   6.804   7.194   3.498 -0.8583  0.7322 -0.0572
11018SOL    HW133670   6.900   7.193   3.488 -0.9444 -0.8485 -0.9772
11018SOL    HW233671   6.788   7.141   3.576 -1.0488 -0.4290 -0.8613
11019SOL     OW33672   6.098   0.440   7.167 -0.4802 -0.1004 -0.6272
11019SOL    HW133673   6.004   0.462   7.166 -0.1601  1.3953 -0.5595
11019SOL    HW233674   6.122   0.439   7.074 -0.6432 -0.9133 -0.6671
11020SOL     OW33675   2.123   7.062   1.019  0.0696  0.1978  0.0850
11020SOL    HW133676   2.203   7.115   1.018 -0.7930  1.6113  1.9743
11020SOL    HW233677   2.059   7.114   1.067 -2.2247 -0.6334 -1.8416
11021SOL     OW33678   1.239   5.652   2.303 -0.1359 -0.2957 -0.0010
11021SOL    HW133679   1.194   5.657   2.219  1.1687 -0.5806 -0.7372
11021SOL    HW233680   1.191   5.713   2.360 -1.9924 -1.2272 -0.4636
11022SOL     OW33681   3.167   0.266   0.171 -0.1605  0.6669 -0.2878
11022SOL    HW133682   3.221   0.274   0.250 -1.4447  1.3162  0.5496
11022SOL    HW233683   3.103   0.198   0.193  1.3282 -1.3943 -1.9164
11023SOL     OW33684   5.295   4.081   0.005 -0.6291 -0.0552  0.2470
11023SOL    HW133685   5.247   4.061   0.085 -2.4952  0.0704 -0.7779
11023SOL    HW233686   5.260   4.020  -0.060  1.0672 -0.3687 -0.4265
11024SOL     OW33687   6.530   4.409   0.836  0.2574  0.1128 -0.2013
11024SOL    HW133688   6.547   4.386   0.745 -0.0982  0.1473 -0.2796
11024SOL    HW233689   6.597   4.472   0.859  1.3128 -1.0494  0.0348
11025SOL     OW33690   6.680   0.449   2.455 -0.0373 -0.0056 -0.2345
11025SOL    HW133691   6.758   0.440   2.400  0.0697  1.1035 -0.2800
11025SOL    HW233692   6.627   0.517   2.412 -0.0735  0.6998  0.8803
11026SOL     OW33693   4.094   2.967   3.528 -0.2152 -0.0262 -0.1162
11026SOL    HW133694   4.045   2.892   3.562  0.3855  0.1583  1.2132
11026SOL    HW233695   4.109   2.946   3.436 -1.6340 -0.6835 -0.2242
11027SOL     OW33696   0.526   0.236   1.683 -0.2071 -0.3055 -0.9099
11027SOL    HW133697   0.452   0.262   1.739  0.2628  0.8501 -0.7827
11027SOL    HW233698   0.586   0.191   1.743  1.2417  2.6948  0.1038
11028SOL     OW33699   3.181   2.173   6.272  0.7872 -0.4334 -0.2449
11028SOL    HW133700   3.086   2.179   6.274  0.8240  0.2833 -0.5720
11028SOL    HW233701   3.204   2.192   6.181  1.3455  0.9381  0.1734
11029SOL     OW33702   3.504   4.040   5.683  0.2433  0.3456 -0.0151
11029SOL    HW133703   3.561   4.010   5.754  1.5809 -0.0705 -1.1949
11029SOL    HW233704   3.532   3.988   5.607 -2.4634 -0.6567 -0.4407
11030SOL     OW33705   5.143   0.233   2.911 -0.2701  0.2316 -0.7187
11030SOL    HW133706   5.129   0.175   2.836  1.1782  1.2130 -1.8170
11030SOL    HW233707   5.065   0.288   2.914 -1.4040 -1.3412 -0.0074
11031SOL     OW33708   1.442   1.786   2.743 -0.5008 -0.2823 -0.0090
11031SOL    HW133709   1.375   1.750   2.685 -1.7805 -1.8698  2.2830
11031SOL    HW233710   1.459   1.716   2.807  1.2971  1.1166  1.1629
11032SOL     OW33711   1.382   4.527   6.086  0.3043  0.4487 -0.2870
11032SOL    HW133712   1.293   4.497   6.106 -0.2546  2.1128 -0.0857
11032SOL    HW233713   1.371   4.620   6.066  1.7953  0.3199 -1.8732
11033SOL     OW33714   5.968   4.138   3.446 -0.0125 -0.1363  0.9801
11033SOL    HW133715   6.039   4.111   3.505  1.7025  1.7153 -0.0856
11033SOL    HW233716   6.014   4.176   3.371 -2.1680  0.0318 -0.3173
11034SOL     OW33717   7.233   3.949   1.310  0.0288  0.2225 -0.2012
11034SOL    HW133718   7.240   3.919   1.220 -1.2587 -1.1813  0.1234
11034SOL    HW233719   7.322   3.947   1.344  0.3263 -0.6675 -1.0083
11035SOL     OW33720   5.954   6.002   4.552 -0.0721 -0.4017  0.1345
11035SOL    HW133721   5.983   5.912   4.542 -0.2688 -0.5434  0.8038
11035SOL    HW233722   5.900   6.002   4.630  1.0484  0.5666  0.9535
11036SOL     OW33723   2.920   5.827   1.121 -0.4978 -0.2078  0.3285
11036SOL    HW133724   2.913   5.734   1.100  1.3869 -0.3881  0.2740
11036SOL    HW233725   2.973   5.863   1.050  1.5434  0.2134  1.9293
11037SOL     OW33726   2.540   3.960   0.113 -0.7134 -0.0574  0.6129
11037SOL    HW133727   2.487   4.031   0.149 -0.3703 -0.0389  1.0950
11037SOL    HW233728   2.619   4.002   0.080 -1.0540 -0.0664 -0.2465
11038SOL     OW33729   5.525   1.107   0.976  0.3287  0.3820 -0.1173
11038SOL    HW133730   5.550   1.123   1.067  1.7591 -0.9108 -0.2377
11038SOL    HW233731   5.606   1.077   0.934 -0.9018 -1.7765 -1.1079
11039SOL     OW33732   6.337   4.175   1.201  0.5179  0.2059  0.3756
11039SOL    HW133733   6.281   4.252   1.208 -1.2932 -0.9655 -0.3919
11039SOL    HW233734   6.360   4.171   1.108  1.2302  0.2269  0.5453
11040SOL     OW33735   1.233   2.830   0.384 -0.8796 -0.2661 -0.1355
11040SOL    HW133736   1.140   2.831   0.403 -0.7348 -2.9126  1.1093
11040SOL    HW233737   1.266   2.752   0.428  1.9902  0.7183 -0.3175
11041SOL     OW33738   1.136   0.073   1.229  0.4339 -0.8499 -0.0775
11041SOL    HW133739   1.162   0.154   1.185 -0.6623 -0.7228 -0.5332
11041SOL    HW233740   1.218   0.028   1.248  0.9585 -0.9424 -2.3010
11042SOL     OW33741   2.213   5.604   7.203 -0.0659 -0.1819  0.1900
11042SOL    HW133742   2.267   5.539   7.249 -0.1418 -0.4988 -0.1656
11042SOL    HW233743   2.260   5.687   7.215  0.1170 -0.3282  0.5102
11043SOL     OW33744   7.075   4.869   6.802  0.2340  0.0996  0.4733
11043SOL    HW133745   7.083   4.774   6.807  0.7850  0.1905  1.6010
11043SOL    HW233746   7.023   4.894   6.878  0.3654  0.7240  0.3685
11044SOL     OW33747   0.752   1.697   6.777 -0.0533  0.3102 -0.2360
11044SOL    HW133748   0.664   1.681   6.744 -0.0994  0.6060 -0.2587
11044SOL    HW233749   0.810   1.657   6.712 -0.1926 -0.9024  0.3573
11045SOL     OW33750   3.027   6.816   4.682 -0.5718  0.6225 -0.1748
11045SOL    HW133751   2.940   6.841   4.713  0.0889  1.4933  1.0799
11045SOL    HW233752   3.056   6.890   4.629 -0.4791  0.4680 -0.3389
11046SOL     OW33753   1.823   6.323   0.708 -0.0791  0.1042 -0.1094
11046SOL    HW133754   1.825   6.319   0.613  1.4982  2.1090 -0.2319
11046SOL    HW233755   1.773   6.402   0.727 -0.1961 -0.1632  0.7247
11047SOL     OW33756   5.933   2.041   2.919 -0.3077 -0.0997  0.0736
11047SOL    HW133757   5.848   2.051   2.876  0.2693  2.9144 -0.5420
11047SOL    HW233758   5.981   1.980   2.863 -2.0168 -1.9799  0.5058
11048SOL     OW33759   6.856   6.187   3.247 -0.3745  0.1963  0.0254
11048SOL    HW133760   6.930   6.206   3.303 -0.5770 -0.8611  0.6846
11048SOL    HW233761   6.881   6.221   3.161  1.0693 -0.5631  0.1174
11049SOL     OW33762   3.280   1.000   0.676  0.4041  0.3581 -0.2481
11049SOL    HW133763   3.211   0.942   0.643  0.5017  0.5214 -0.7453
11049SOL    HW233764   3.354   0.942   0.694 -0.4183 -0.1166  2.0407
11050SOL     OW33765   0.214   5.718   5.635 -0.6619 -0.8316 -0.5480
11050SOL    HW133766   0.185   5.758   5.552 -1.5711  1.6548  0.8616
11050SOL    HW233767   0.307   5.741   5.642 -0.5675 -1.1015 -0.9075
11051SOL     OW33768   2.696   6.502   3.943 -0.0205 -0.2359  0.4186
11051SOL    HW133769   2.625   6.447   3.909 -0.2098  1.6011 -2.4949
11051SOL    HW233770   2.768   6.489   3.882 -0.2432  2.9673 -0.7041
11052SOL     OW33771   5.387   3.116   3.897 -0.6809  0.3438 -0.7933
11052SOL    HW133772   5.396   3.210   3.911 -0.3893  0.4114 -1.3674
11052SOL    HW233773   5.314   3.090   3.953 -0.1404  0.7305  0.1105
11053SOL     OW33774   1.934   0.429   3.798 -0.1435  0.1586  0.4564
11053SOL    HW133775   1.896   0.485   3.730  0.0830 -1.3400 -0.9877
11053SOL    HW233776   1.938   0.484   3.876  0.6331  2.3382 -1.0216
11054SOL     OW33777   5.284   3.806   7.126 -0.0413 -0.0438 -0.2253
11054SOL    HW133778   5.222   3.827   7.056 -0.7347 -1.3563 -0.0442
11054SOL    HW233779   5.233   3.752   7.187  1.3130 -1.3123 -0.1629
11055SOL     OW33780   5.705   0.529   1.395 -0.1068 -0.3501 -0.1843
11055SOL    HW133781   5.645   0.490   1.458 -1.0540 -0.3134 -1.0485
11055SOL    HW233782   5.792   0.505   1.427 -0.4312  1.3447  2.2656
11056SOL     OW33783   3.372   6.477   4.919 -0.1110 -0.1670 -0.0295
11056SOL    HW133784   3.412   6.551   4.964  0.7930 -0.9617  0.5097
11056SOL    HW233785   3.288   6.511   4.887 -0.5525  0.5922  1.7852
11057SOL     OW33786   3.726   5.007   5.307 -0.0281 -0.1149  0.1691
11057SOL    HW133787   3.739   4.927   5.358 -0.7267 -0.3922 -0.0694
11057SOL    HW233788   3.631   5.018   5.304  0.0103  0.0916 -0.7636
11058SOL     OW33789   0.073   4.390   3.267 -0.0288 -0.4449 -0.6029
11058SOL    HW133790   0.033   4.476   3.272  2.2708  0.7142 -0.9311
11058SOL    HW233791   0.122   4.381   3.348  0.4297 -1.0708 -0.9389
11059SOL     OW33792   2.016   1.017   4.537 -0.5560 -0.6148 -0.6689
11059SOL    HW133793   1.988   1.109   4.535  2.6973  0.5701  1.0139
11059SOL    HW233794   2.002   0.990   4.627 -0.3844 -1.3938 -0.8715
11060SOL     OW33795   1.712   2.496   0.940  0.3100 -0.5458  0.1849
11060SOL    HW133796   1.729   2.539   1.023 -1.8979  2.2165 -0.6252
11060SOL    HW233797   1.663   2.417   0.962 -2.4185  1.3808  1.5173
11061SOL     OW33798   5.491   0.331   5.174  0.0382 -0.9446  0.0102
11061SOL    HW133799   5.414   0.343   5.230  0.1926 -2.1856  0.5228
11061SOL    HW233800   5.506   0.237   5.175  0.6271 -0.8833 -1.3616
11062SOL     OW33801   2.292   0.766   0.391 -0.0891  0.0807 -0.5781
11062SOL    HW133802   2.251   0.726   0.315  1.2547 -1.7858 -0.4127
11062SOL    HW233803   2.316   0.692   0.447  0.2119  1.3145  1.0099
11063SOL     OW33804   4.551   3.776   3.396 -0.4869 -0.8680  0.2896
11063SOL    HW133805   4.634   3.824   3.394 -0.5504 -0.7418  0.5687
11063SOL    HW233806   4.487   3.840   3.425 -1.1767 -0.2822 -2.2863
11064SOL     OW33807   4.101   1.907   4.895 -0.2608  0.1898  0.4512
11064SOL    HW133808   4.057   1.859   4.824  1.6895  0.5005 -1.0350
11064SOL    HW233809   4.073   1.998   4.883  1.2927  0.5243 -0.9808
11065SOL     OW33810   5.491   4.975   4.072 -0.0720 -0.1210  0.2001
11065SOL    HW133811   5.543   4.943   4.145 -1.4705  0.4242  1.4853
11065SOL    HW233812   5.519   5.065   4.060 -1.0891  0.3754  1.3086
11066SOL     OW33813   7.062   3.348   5.841 -0.2887  0.4127  0.1102
11066SOL    HW133814   7.090   3.399   5.917  1.4925 -0.7552  0.2882
11066SOL    HW233815   7.086   3.402   5.766  1.4438 -0.0673  0.2984
11067SOL     OW33816   1.303   4.568   4.254  0.2374  0.1535  0.1423
11067SOL    HW133817   1.392   4.585   4.285  0.8372 -3.7975  1.1411
11067SOL    HW233818   1.309   4.575   4.159  2.1878 -1.8215  0.0348
11068SOL     OW33819   0.737   4.515   1.778 -0.1473  0.2664 -0.1697
11068SOL    HW133820   0.720   4.516   1.872 -0.5750  0.4704 -0.2444
11068SOL    HW233821   0.669   4.456   1.743  0.8276 -0.8719 -0.2039
11069SOL     OW33822   6.493   4.604   6.984 -0.2684  0.4226 -0.0790
11069SOL    HW133823   6.554   4.601   7.058  0.3480  1.2544 -0.5387
11069SOL    HW233824   6.408   4.622   7.024 -0.0928  0.0278  0.4976
11070SOL     OW33825   3.307   5.529   1.253  0.0274  0.3675  0.5282
11070SOL    HW133826   3.381   5.483   1.215  1.1032  0.3283  2.5293
11070SOL    HW233827   3.340   5.617   1.271 -1.6191  1.6556 -2.0541
11071SOL     OW33828   5.999   2.679   3.010 -0.0055  0.0262 -0.1461
11071SOL    HW133829   6.045   2.615   2.957  1.5049 -0.4365  1.6464
11071SOL    HW233830   6.017   2.654   3.101 -2.7079  0.6124  0.6686
11072SOL     OW33831   6.681   3.292   0.356  0.4508 -0.3365 -0.0131
11072SOL    HW133832   6.681   3.228   0.285  0.6603 -0.1630 -0.1684
11072SOL    HW233833   6.738   3.363   0.325  0.2085 -0.0675  0.1512
11073SOL     OW33834   3.292   6.768   6.934 -0.1043  0.0886 -0.7417
11073SOL    HW133835   3.302   6.861   6.914  2.7159 -0.2661 -1.5436
11073SOL    HW233836   3.275   6.765   7.028  0.3807  1.4027 -0.5941
11074SOL     OW33837   4.171   0.769   2.792 -0.2635  0.0761  0.4533
11074SOL    HW133838   4.155   0.806   2.879 -0.4407 -1.9733  1.3459
11074SOL    HW233839   4.122   0.688   2.792  1.7322 -1.2027 -0.6402
11075SOL     OW33840   5.972   1.601   3.435  0.3097 -0.3669 -0.1246
11075SOL    HW133841   5.937   1.660   3.502  1.0487 -0.6892  0.5691
11075SOL    HW233842   5.895   1.556   3.400 -0.4703  2.0550 -1.7686
11076SOL     OW33843   6.511   3.960   3.975  0.0385 -0.1530 -0.1587
11076SOL    HW133844   6.433   3.971   3.921 -1.2010 -0.5297  1.4821
11076SOL    HW233845   6.578   3.930   3.913 -0.9726  0.5607 -1.6818
11077SOL     OW33846   3.647   1.958   3.423 -0.2137  0.1497  0.0574
11077SOL    HW133847   3.621   1.866   3.416 -1.9309  0.5398  0.8434
11077SOL    HW233848   3.568   2.003   3.451  0.4764  1.9541 -0.7530
11078SOL     OW33849   2.844   5.509   6.178  0.1477 -0.4166 -0.1291
11078SOL    HW133850   2.854   5.435   6.119  1.6327 -0.8914  0.6730
11078SOL    HW233851   2.789   5.571   6.130 -0.7044 -1.8116 -1.0145
11079SOL     OW33852   5.835   4.920   4.652  0.4138  0.0722  0.2798
11079SOL    HW133853   5.882   4.837   4.650 -1.7152 -1.2217  0.8234
11079SOL    HW233854   5.898   4.984   4.619  1.3391 -2.1579 -2.7330
11080SOL     OW33855   3.385   0.188   6.018  0.5053  0.1782 -0.0980
11080SOL    HW133856   3.328   0.255   5.979 -0.2219 -0.3056  0.1211
11080SOL    HW233857   3.466   0.193   5.967  0.0327  0.4243 -0.8333
11081SOL     OW33858   5.070   1.170   0.409  0.2576  0.5325 -0.0652
11081SOL    HW133859   5.158   1.132   0.400  0.4511  0.6737  1.1055
11081SOL    HW233860   5.052   1.166   0.502 -1.0515  0.3854 -0.3116
11082SOL     OW33861   0.607   2.182   1.712  0.3865 -0.5028  0.4208
11082SOL    HW133862   0.683   2.240   1.706  0.4020 -0.5900 -0.3526
11082SOL    HW233863   0.595   2.149   1.623 -1.2730  0.4550  0.2452
11083SOL     OW33864   5.952   4.745   2.760  0.2096  0.5160  0.1026
11083SOL    HW133865   5.961   4.667   2.705  1.8250 -1.6139  3.1435
11083SOL    HW233866   5.863   4.739   2.795 -0.4963  1.3826 -1.4495
11084SOL     OW33867   6.689   2.484   0.483  0.0711 -0.0640 -0.2487
11084SOL    HW133868   6.779   2.459   0.504 -0.2568 -0.0721  1.2189
11084SOL    HW233869   6.692   2.579   0.473 -0.0056  0.1274  1.2809
11085SOL     OW33870   2.605   4.082   1.427  0.0169 -0.8977 -0.9211
11085SOL    HW133871   2.566   4.134   1.356  0.4221  0.2267 -0.3417
11085SOL    HW233872   2.586   4.131   1.507  1.7229 -0.8319 -0.5048
11086SOL     OW33873   1.493   3.074   3.325  0.1163 -0.1615  0.3193
11086SOL    HW133874   1.534   3.159   3.313 -0.0037 -0.0999  0.3399
11086SOL    HW233875   1.515   3.049   3.415  1.6261 -0.9555 -0.2443
11087SOL     OW33876   2.863   4.391   1.249  0.9600 -0.0434  0.0857
11087SOL    HW133877   2.788   4.334   1.233 -0.0392  1.1509  0.3246
11087SOL    HW233878   2.860   4.408   1.344  0.1773  1.7761 -0.2268
11088SOL     OW33879   0.911   3.947   3.253  0.4453 -0.6902 -1.3757
11088SOL    HW133880   0.851   4.018   3.231  1.4884  0.0234 -1.9663
11088SOL    HW233881   0.898   3.883   3.182 -0.1243 -0.8757 -1.1145
11089SOL     OW33882   6.432   5.013   1.008  0.0040 -0.1337 -0.3005
11089SOL    HW133883   6.478   5.090   1.041  2.5329 -0.5824 -2.4314
11089SOL    HW233884   6.348   5.013   1.055  1.7684  1.2275  3.1849
11090SOL     OW33885   1.398   5.699   3.829  0.0283 -0.1400 -0.3781
11090SOL    HW133886   1.371   5.762   3.761  0.9532  0.7428  0.0441
11090SOL    HW233887   1.442   5.630   3.781 -1.5345 -0.8146 -0.9161
11091SOL     OW33888   2.934   5.149   1.667 -0.2826  0.5125 -0.3593
11091SOL    HW133889   3.002   5.118   1.607 -0.5034  0.6364 -0.6741
11091SOL    HW233890   2.981   5.205   1.729  0.0783 -0.2434  0.0664
11092SOL     OW33891   5.968   5.052   2.657 -0.5913  0.8225 -0.9406
11092SOL    HW133892   5.952   5.055   2.751  0.8658  3.2323 -0.6963
11092SOL    HW233893   6.014   4.969   2.643  1.6561  1.6420  0.9657
11093SOL     OW33894   6.570   4.797   4.828  0.5310  0.0288 -0.4560
11093SOL    HW133895   6.652   4.800   4.779 -0.9083 -0.3591 -3.0790
11093SOL    HW233896   6.517   4.732   4.782 -1.1534  0.0026  1.3666
11094SOL     OW33897   5.454   5.301   5.409  0.0626  0.3970 -0.5972
11094SOL    HW133898   5.509   5.231   5.446 -0.4616 -0.3042 -1.1385
11094SOL    HW233899   5.443   5.363   5.482  1.6863  0.6318 -0.5114
11095SOL     OW33900   0.225   1.076   4.967  0.1543  0.8357 -0.1199
11095SOL    HW133901   0.141   1.034   4.987  0.1614  0.0673 -1.5348
11095SOL    HW233902   0.255   1.111   5.050  0.1816 -2.0634  1.2167
11096SOL     OW33903   7.048   0.579   6.116  0.1103  0.2386 -0.0498
11096SOL    HW133904   7.086   0.521   6.050  0.9879 -0.7825  1.2707
11096SOL    HW233905   6.957   0.589   6.091  0.4173 -0.1257 -1.3893
11097SOL     OW33906   6.717   4.781   5.443  0.0942 -0.0814 -0.2102
11097SOL    HW133907   6.719   4.737   5.528  3.0106 -0.8467 -0.5610
11097SOL    HW233908   6.761   4.864   5.458 -0.9794  0.5757 -0.6146
11098SOL     OW33909   3.060   3.640   4.660 -0.5344  0.1718  0.3115
11098SOL    HW133910   3.037   3.653   4.752 -1.5008  0.8170 -0.0044
11098SOL    HW233911   3.086   3.727   4.629 -0.9526  0.1195 -0.2098
11099SOL     OW33912   4.028   4.075   2.827  0.0783  0.3885  0.7811
11099SOL    HW133913   4.109   4.091   2.876  0.2991  0.1439  0.4949
11099SOL    HW233914   4.035   4.130   2.749 -0.6807  1.4843  1.4497
11100SOL     OW33915   0.088   1.615   5.226 -0.1883 -0.1516  0.2334
11100SOL    HW133916   0.025   1.552   5.261  0.0793 -0.3635  0.3400
11100SOL    HW233917   0.094   1.683   5.292 -0.9058  0.2820 -0.1355
11101SOL     OW33918   3.638   1.639   4.461  0.1458 -0.4970 -0.2587
11101SOL    HW133919   3.696   1.652   4.385 -0.3855  0.3371 -0.5362
11101SOL    HW233920   3.600   1.553   4.447  0.4132 -0.5482 -0.7022
11102SOL     OW33921   0.596   6.871   5.293 -0.1565 -0.3785 -0.2185
11102SOL    HW133922   0.647   6.794   5.267 -0.4950 -0.0619 -1.9855
11102SOL    HW233923   0.554   6.846   5.375  1.5174 -1.2423  0.4124
11103SOL     OW33924   0.805   6.922   0.172  0.8415 -0.5710  0.4641
11103SOL    HW133925   0.713   6.937   0.151  0.5993 -1.0875  1.1263
11103SOL    HW233926   0.804   6.849   0.234  1.7122 -0.7335  0.3004
11104SOL     OW33927   5.293   5.120   0.530 -0.8366 -0.1744  0.1340
11104SOL    HW133928   5.273   5.162   0.446  1.8049 -0.6104 -0.8297
11104SOL    HW233929   5.315   5.193   0.588 -0.4748  0.0333 -0.2542
11105SOL     OW33930   5.816   0.868   0.493 -0.5493  0.2315  0.6932
11105SOL    HW133931   5.824   0.963   0.495  0.3630  0.1823  0.1691
11105SOL    HW233932   5.753   0.851   0.423  0.5935  0.4115 -0.4185
11106SOL     OW33933   2.395   4.678   1.683 -0.3688  0.0419  0.2083
11106SOL    HW133934   2.323   4.617   1.696 -2.5013  1.9011 -2.0849
11106SOL    HW233935   2.456   4.658   1.755 -2.6524 -2.2519  1.6717
11107SOL     OW33936   4.314   6.207   4.845  0.1713  0.0722  0.1288
11107SOL    HW133937   4.342   6.290   4.807  1.4208 -0.5951 -0.4791
11107SOL    HW233938   4.247   6.174   4.785 -1.4727  1.3170  1.1801
11108SOL     OW33939   0.297   1.431   0.070  0.0018 -0.9198 -0.0389
11108SOL    HW133940   0.236   1.470   0.007  0.6729  0.2633  0.0186
11108SOL    HW233941   0.308   1.341   0.041 -0.2379 -0.5855 -1.2088
11109SOL     OW33942   5.875   5.964   4.795 -0.0744 -0.4159  0.2674
11109SOL    HW133943   5.930   5.918   4.859 -0.5643 -1.2271  0.1140
11109SOL    HW233944   5.817   5.897   4.760 -2.3617  0.7037  1.6748
11110SOL     OW33945   6.451   6.556   6.765 -0.3845 -0.2409  0.6452
11110SOL    HW133946   6.371   6.606   6.782  0.2440  0.8972  0.3340
11110SOL    HW233947   6.509   6.617   6.719  0.3843 -1.2811  0.1838
11111SOL     OW33948   3.330   1.342   4.738  0.1076 -0.0102  0.3851
11111SOL    HW133949   3.398   1.325   4.673  0.0195 -0.3971  0.3905
11111SOL    HW233950   3.305   1.255   4.770 -0.7516  0.0843  0.0070
11112SOL     OW33951   1.809   1.960   5.253 -0.6418  0.1013  0.1012
11112SOL    HW133952   1.732   1.981   5.306 -1.1157  1.1904 -0.9441
11112SOL    HW233953   1.844   2.046   5.226  0.0984 -0.3979 -0.5892
11113SOL     OW33954   2.492   6.418   6.858 -0.7445 -0.7403 -0.7327
11113SOL    HW133955   2.571   6.365   6.868 -0.2943 -0.1134 -0.8724
11113SOL    HW233956   2.511   6.475   6.783  0.2315  2.0854  1.4952
11114SOL     OW33957   5.071   2.275   2.038 -0.5597 -0.1479  0.0517
11114SOL    HW133958   5.075   2.336   1.964  0.3542  1.0420  1.0415
11114SOL    HW233959   5.039   2.193   2.000 -1.8907  0.9534 -1.3030
11115SOL     OW33960   2.452   4.035   2.126  0.2889 -0.6207 -0.6735
11115SOL    HW133961   2.442   4.009   2.034  0.4809 -0.0052 -0.8733
11115SOL    HW233962   2.482   3.956   2.170  0.3312 -0.8850 -1.1703
11116SOL     OW33963   4.998   0.104   1.687 -0.1922 -0.0064 -0.4955
11116SOL    HW133964   4.992   0.026   1.743 -2.3927  0.4774  0.0569
11116SOL    HW233965   4.964   0.074   1.602 -2.5936  0.6551  0.1572
11117SOL     OW33966   5.740   1.494   0.306  0.1299  0.3445 -0.3601
11117SOL    HW133967   5.742   1.580   0.264 -1.1274  0.0853 -0.9856
11117SOL    HW233968   5.650   1.483   0.335  0.2302 -0.8277 -0.4238
11118SOL     OW33969   6.398   0.123   2.895  0.2397 -0.0457  0.2847
11118SOL    HW133970   6.375   0.174   2.972  1.9198  2.0959 -0.5348
11118SOL    HW233971   6.434   0.041   2.930  0.9367  0.8680  1.7721
11119SOL     OW33972   0.119   5.230   0.292 -0.0576  0.4775 -0.3325
11119SOL    HW133973   0.063   5.296   0.250 -0.8368 -0.7521 -1.2726
11119SOL    HW233974   0.194   5.223   0.233 -0.5473 -0.3246 -0.8796
11120SOL     OW33975   6.208   1.127   0.782 -0.0403  0.2726 -0.1313
11120SOL    HW133976   6.299   1.137   0.752  0.0947  0.0740  0.2188
11120SOL    HW233977   6.159   1.188   0.726  0.2694  0.1984 -0.4917
11121SOL     OW33978   0.906   6.425   6.301 -0.2989  0.1314 -0.3767
11121SOL    HW133979   0.854   6.449   6.224  0.2322 -0.7459 -1.0282
11121SOL    HW233980   0.996   6.444   6.276 -0.0889 -0.4913 -0.1064
11122SOL     OW33981   1.944   5.142   0.239  0.5976  0.2339  0.5863
11122SOL    HW133982   2.031   5.178   0.255 -0.3469  3.3025 -0.4373
11122SOL    HW233983   1.887   5.190   0.299 -0.5814 -0.7555  0.3003
11123SOL     OW33984   3.570   2.069   3.139 -0.1362 -0.5122  0.1565
11123SOL    HW133985   3.583   2.020   3.220 -0.5504  0.0963  0.6039
11123SOL    HW233986   3.604   2.012   3.070 -1.8425 -2.0077  0.4975
11124SOL     OW33987   0.335   3.189   0.631  0.3316 -0.0090  0.2182
11124SOL    HW133988   0.269   3.252   0.659 -1.9401 -2.9602  2.0885
11124SOL    HW233989   0.374   3.156   0.712 -0.4397 -2.7840 -0.4235
11125SOL     OW33990   0.058   3.852   4.785  0.8344 -0.5586  0.1642
11125SOL    HW133991  -0.005   3.834   4.715 -0.5328 -2.0897  1.6930
11125SOL    HW233992   0.012   3.910   4.845  0.5293 -2.2420  1.6587
11126SOL     OW33993   1.815   4.636   5.978  0.3771 -0.3159 -0.2376
11126SOL    HW133994   1.722   4.645   5.997  0.3544 -1.4169  0.2018
11126SOL    HW233995   1.826   4.680   5.893 -0.7702 -1.2039 -0.8784
11127SOL     OW33996   6.257   2.039   2.896 -0.3094  0.4583 -0.1710
11127SOL    HW133997   6.306   1.972   2.849 -1.0754 -0.3163  0.1224
11127SOL    HW233998   6.217   2.092   2.826 -0.0285  0.3703 -0.4008
11128SOL     OW33999   3.809   5.323   2.961  1.0398  0.6895 -0.1019
11128SOL    HW134000   3.893   5.317   2.916  0.3254  1.2477 -1.5834
11128SOL    HW234001   3.747   5.348   2.892  0.0696  2.5919  1.3702
11129SOL     OW34002   5.720   0.035   0.941 -0.0460 -0.6197 -0.2787
11129SOL    HW134003   5.738  -0.004   0.855  0.7932 -3.0123  0.8683
11129SOL    HW234004   5.796   0.091   0.959  0.0075 -0.4915 -0.8907
11130SOL     OW34005   3.058   0.564   0.752  0.6917 -0.3886 -0.6332
11130SOL    HW134006   2.987   0.623   0.777  1.1067  0.2925 -1.0260
11130SOL    HW234007   3.112   0.557   0.830  0.1603 -0.9846 -0.3019
11131SOL     OW34008   3.597   2.837   4.495  0.7042  0.6046 -0.7670
11131SOL    HW134009   3.546   2.873   4.423  1.9820 -0.4677 -2.2601
11131SOL    HW234010   3.688   2.843   4.466  1.1744 -0.9488  0.2432
11132SOL     OW34011   4.482   3.081   0.481  0.3506 -0.1533 -0.0979
11132SOL    HW134012   4.481   3.168   0.520  1.4106  0.5449 -1.5001
11132SOL    HW234013   4.488   3.097   0.386 -0.2695 -1.7480 -0.4470
11133SOL     OW34014   5.932   4.305   5.761 -0.0203 -0.5116  0.0204
11133SOL    HW134015   5.923   4.213   5.785  2.7141 -0.2506  2.5611
11133SOL    HW234016   5.948   4.303   5.666  0.5037 -2.7229  0.1017
11134SOL     OW34017   4.780   4.701   4.792 -0.1867  0.0890  0.1028
11134SOL    HW134018   4.798   4.636   4.861  2.4654 -0.8187 -1.2911
11134SOL    HW234019   4.807   4.784   4.831  3.4184 -0.6908 -0.4012
11135SOL     OW34020   2.525   4.965   5.565  0.1058  0.4832 -0.2485
11135SOL    HW134021   2.578   4.899   5.611 -0.0195  0.1113 -0.6356
11135SOL    HW234022   2.585   5.004   5.502  0.7094  2.0463  1.2052
11136SOL     OW34023   3.329   0.085   0.692  0.4852 -0.7281  0.5443
11136SOL    HW134024   3.245   0.045   0.712 -1.1509  0.3279 -3.3240
11136SOL    HW234025   3.324   0.173   0.730 -1.1482  0.0834 -1.3948
11137SOL     OW34026   3.545   0.083   3.941 -0.0160 -0.4572 -0.1368
11137SOL    HW134027   3.460   0.092   3.985 -1.0919 -1.0285 -1.9805
11137SOL    HW234028   3.523   0.062   3.850  2.1284 -1.6382 -0.4537
11138SOL     OW34029   5.572   2.324   2.217  0.0138  0.3634 -0.5320
11138SOL    HW134030   5.660   2.292   2.237  0.6776  1.5583 -1.4127
11138SOL    HW234031   5.576   2.418   2.232 -0.8932  0.5472 -1.2979
11139SOL     OW34032   2.986   1.538   6.482 -0.1752 -0.4145  0.1073
11139SOL    HW134033   3.058   1.477   6.498  0.4178  0.3428  0.3731
11139SOL    HW234034   2.997   1.563   6.390  0.0098 -0.1713  0.1931
11140SOL     OW34035   0.426   6.129   1.277 -0.5896 -0.0825  0.4091
11140SOL    HW134036   0.468   6.067   1.337  0.8841  1.0192  0.5825
11140SOL    HW234037   0.425   6.084   1.192  0.7051 -0.2651  0.4687
11141SOL     OW34038   6.175   6.557   6.217  0.2977 -0.0321 -0.2582
11141SOL    HW134039   6.189   6.503   6.138  1.3654 -0.0911 -0.0494
11141SOL    HW234040   6.255   6.544   6.268  0.5668  1.7243 -0.1803
11142SOL     OW34041   6.238   3.120   6.183  0.6858 -0.2424  0.0915
11142SOL    HW134042   6.230   3.149   6.274 -1.2120 -1.3929  0.3558
11142SOL    HW234043   6.178   3.176   6.135  1.2529 -0.0272 -0.3779
11143SOL     OW34044   6.271   2.493   3.814 -0.2199  0.4611  0.0697
11143SOL    HW134045   6.275   2.581   3.853 -0.1209  0.5535 -0.1497
11143SOL    HW234046   6.360   2.476   3.784 -0.5020  0.8031 -1.0186
11144SOL     OW34047   3.179   0.662   6.320 -0.1821  0.0717  0.0392
11144SOL    HW134048   3.252   0.675   6.381 -1.3554  0.4287  1.4413
11144SOL    HW234049   3.106   0.708   6.361 -1.2942 -0.5741 -1.1461
11145SOL     OW34050   3.389   1.840   4.127  0.0297  0.0886  0.3674
11145SOL    HW134051   3.388   1.835   4.031 -0.2764  0.2107  0.3622
11145SOL    HW234052   3.447   1.913   4.147 -1.7301  1.6187  0.1930
11146SOL     OW34053   2.086   0.337   6.988  0.7187 -0.1169  0.5430
11146SOL    HW134054   2.076   0.430   6.969  0.1182 -0.3546 -0.3750
11146SOL    HW234055   2.068   0.293   6.904 -0.2801 -1.1308  1.2510
11147SOL     OW34056   6.263   4.024   1.773  0.4761 -0.1506  0.0263
11147SOL    HW134057   6.187   3.981   1.813 -0.3917  0.4846 -0.8871
11147SOL    HW234058   6.266   4.110   1.814  0.2921  0.0717 -0.4200
11148SOL     OW34059   6.232   2.966   3.082 -0.0245 -0.3210 -0.0585
11148SOL    HW134060   6.193   2.931   3.162  1.1940 -4.0533 -0.9010
11148SOL    HW234061   6.163   2.959   3.016  0.0323 -0.4718 -0.0999
11149SOL     OW34062   2.443   1.739   2.859  0.0842  0.0350 -0.5980
11149SOL    HW134063   2.376   1.679   2.828 -1.2448 -0.1099  2.2210
11149SOL    HW234064   2.420   1.756   2.950  1.3752  3.4971 -0.7489
11150SOL     OW34065   1.913   5.945   1.022  0.3929 -0.4768 -0.1325
11150SOL    HW134066   2.003   5.940   0.990  0.2695 -1.8120 -0.3342
11150SOL    HW234067   1.868   5.998   0.956  0.8213 -0.6068 -0.5394
11151SOL     OW34068   3.935   4.675   0.750 -0.7305  0.3032  0.0312
11151SOL    HW134069   3.870   4.741   0.775 -2.0051 -0.0151 -2.2490
11151SOL    HW234070   3.939   4.617   0.826 -0.2217  2.4202  1.7543
11152SOL     OW34071   6.882   1.068   5.061 -0.1671  0.1846 -0.2024
11152SOL    HW134072   6.795   1.107   5.071 -0.1353  0.5650 -1.2912
11152SOL    HW234073   6.865   0.985   5.016  0.0162  0.2172 -0.3336
11153SOL     OW34074   3.313   1.314   1.100 -0.0827 -0.7965  0.1169
11153SOL    HW134075   3.294   1.237   1.046  0.5359 -1.3021  0.5939
11153SOL    HW234076   3.309   1.281   1.190 -0.5094 -0.1030  0.3611
11154SOL     OW34077   6.095   0.552   1.979  0.0866  0.0735 -0.0941
11154SOL    HW134078   6.153   0.569   1.905  0.1923  2.8824  0.5065
11154SOL    HW234079   6.007   0.554   1.942  0.2202 -1.6887 -0.5944
11155SOL     OW34080   2.473   5.428   2.645  0.3023  0.3518  0.2246
11155SOL    HW134081   2.458   5.355   2.585  2.9722  2.0648 -2.8587
11155SOL    HW234082   2.558   5.408   2.685  0.6897  1.3580 -0.0769
11156SOL     OW34083   4.769   4.509   3.375 -0.3775  0.2356  0.5000
11156SOL    HW134084   4.786   4.503   3.281 -0.8377 -0.9680  0.4744
11156SOL    HW234085   4.745   4.420   3.400  1.8476  0.0512  2.1797
11157SOL     OW34086   4.412   1.367   4.898 -0.6662  0.5638  0.6187
11157SOL    HW134087   4.331   1.418   4.886 -1.5028 -0.7477  0.5303
11157SOL    HW234088   4.459   1.378   4.815 -0.0618  2.4426  1.1528
11158SOL     OW34089   6.342   2.212   2.667 -0.3696 -0.5477 -0.6504
11158SOL    HW134090   6.369   2.302   2.687 -0.5288 -0.5438 -0.4570
11158SOL    HW234091   6.253   2.221   2.632  1.1382 -0.1110 -4.9540
11159SOL     OW34092   3.824   5.921   5.260  0.0459  0.4504  0.0554
11159SOL    HW134093   3.800   5.968   5.340  0.2427 -0.6658  0.7939
11159SOL    HW234094   3.758   5.852   5.253  1.0993 -0.5974  0.2797
11160SOL     OW34095   4.037   0.951   4.110 -0.3698  0.3048 -0.2660
11160SOL    HW134096   4.057   1.002   4.032  2.0094  0.9935  0.7185
11160SOL    HW234097   4.101   0.880   4.110  0.2677  0.8350  1.4913
11161SOL     OW34098   5.624   2.061   4.178  0.4074 -0.1545  0.3300
11161SOL    HW134099   5.566   1.989   4.153  0.0925 -0.2829  1.3608
11161SOL    HW234100   5.707   2.040   4.136 -0.2937  0.0745 -1.2366
11162SOL     OW34101   1.760   3.165   5.673 -0.6662  0.8553  0.3858
11162SOL    HW134102   1.780   3.142   5.764 -1.4407 -0.4181  0.2520
11162SOL    HW234103   1.839   3.207   5.641  0.6248 -1.1132  0.8447
11163SOL     OW34104   6.669   4.222   1.062 -0.2252 -0.3220  0.2950
11163SOL    HW134105   6.576   4.206   1.054 -0.2114 -0.1542 -0.2700
11163SOL    HW234106   6.701   4.154   1.121 -0.5043 -1.1013 -0.4393
11164SOL     OW34107   3.110   0.312   7.132 -0.1092 -0.2517 -0.2654
11164SOL    HW134108   3.138   0.227   7.097 -1.3675 -0.9413  0.3255
11164SOL    HW234109   3.124   0.304   7.227 -0.8035 -0.0310 -0.1416
11165SOL     OW34110   2.050   0.118   5.899  0.4366  0.4999  0.1708
11165SOL    HW134111   2.140   0.092   5.881  0.9585  1.2677  1.4908
11165SOL    HW234112   2.001   0.092   5.822  1.4288 -1.7297  0.2174
11166SOL     OW34113   6.030   7.248   4.266  0.3583  0.5793 -0.2418
11166SOL    HW134114   5.950   7.199   4.285  0.2985  0.8516  0.2478
11166SOL    HW234115   6.022   7.328   4.319  1.2443  0.3163  0.3055
11167SOL     OW34116   2.394   1.124   3.882 -0.4330 -0.2202 -0.1033
11167SOL    HW134117   2.336   1.118   3.958 -1.2468 -0.2048 -0.7166
11167SOL    HW234118   2.380   1.043   3.833 -0.7243  0.2477 -0.8078
11168SOL     OW34119   2.531   2.213   3.146  0.0133 -0.1738  0.2233
11168SOL    HW134120   2.590   2.139   3.157 -0.7466 -0.5320  2.2498
11168SOL    HW234121   2.450   2.175   3.111  0.5394  0.1418 -1.4034
11169SOL     OW34122   1.266   0.410   2.724 -0.4596  0.8766  0.7880
11169SOL    HW134123   1.248   0.317   2.707  1.1807  0.8918 -1.5470
11169SOL    HW234124   1.329   0.410   2.796  1.2768 -0.0533 -0.6303
11170SOL     OW34125   1.841   1.660   0.195  0.1951 -0.1770 -0.3062
11170SOL    HW134126   1.773   1.646   0.262 -1.2245 -2.0558 -2.0145
11170SOL    HW234127   1.890   1.578   0.193 -0.2043 -0.4063 -1.9730
11171SOL     OW34128   4.091   3.570   1.445  0.4485  0.1897 -0.4612
11171SOL    HW134129   4.127   3.481   1.447  0.8125  0.3396 -0.2184
11171SOL    HW234130   3.997   3.558   1.456  0.5441 -0.1452  0.0401
11172SOL     OW34131   2.610   5.708   0.208  1.0334  0.1509 -0.4356
11172SOL    HW134132   2.624   5.637   0.145  0.6651 -0.4944  0.1968
11172SOL    HW234133   2.660   5.781   0.172  0.6751 -0.1412 -1.5735
11173SOL     OW34134   1.853   5.063   5.075  0.3666  0.4996  0.0431
11173SOL    HW134135   1.937   5.108   5.072  1.5558 -1.6206 -1.7537
11173SOL    HW234136   1.795   5.123   5.122  2.8623  2.0177  1.4108
11174SOL     OW34137   5.901   0.791   4.222 -0.1251  0.1420  0.4222
11174SOL    HW134138   5.857   0.707   4.221 -0.0713  0.1144 -0.7579
11174SOL    HW234139   5.960   0.789   4.147 -0.2867  1.3115  0.2393
11175SOL     OW34140   6.858   2.034   5.754 -0.7053  0.6946  0.0163
11175SOL    HW134141   6.842   2.121   5.791  0.5328  0.6526  0.7243
11175SOL    HW234142   6.896   2.050   5.668 -0.5079  0.8580  0.1338
11176SOL     OW34143   5.152   2.353   4.302 -0.3649 -0.1429 -0.0259
11176SOL    HW134144   5.164   2.405   4.223  0.0177 -2.1995 -1.4058
11176SOL    HW234145   5.060   2.367   4.326 -0.7212 -0.0895 -1.3228
11177SOL     OW34146   0.128   4.148   0.196 -0.0926 -0.4436  0.1276
11177SOL    HW134147   0.164   4.229   0.160  0.4458 -0.0355  1.5434
11177SOL    HW234148   0.033   4.162   0.196 -0.0800 -0.2924 -0.7256
11178SOL     OW34149   1.123   2.965   2.275  0.5120  0.2331  0.0194
11178SOL    HW134150   1.082   3.049   2.254  2.5321  1.6840  1.4976
11178SOL    HW234151   1.067   2.928   2.343  0.0667  0.8029 -0.0273
11179SOL     OW34152   2.441   0.420   3.820 -0.4132  0.0132 -0.5020
11179SOL    HW134153   2.426   0.398   3.728  1.6795 -2.0721 -0.4380
11179SOL    HW234154   2.358   0.400   3.863 -1.0105 -0.2675 -1.7484
11180SOL     OW34155   1.598   6.697   2.154 -0.2424 -0.5016 -0.3983
11180SOL    HW134156   1.556   6.724   2.072 -1.3028 -1.2933 -0.1356
11180SOL    HW234157   1.588   6.602   2.156  2.5829 -0.8876 -0.8445
11181SOL     OW34158   6.967   0.709   6.704 -0.8007 -0.8544  0.0472
11181SOL    HW134159   6.965   0.770   6.777 -3.4860 -1.3300  0.4754
11181SOL    HW234160   6.963   0.622   6.744  0.0067 -1.2232 -0.6320
11182SOL     OW34161   4.548   4.270   6.665 -0.0862 -0.4075  0.8481
11182SOL    HW134162   4.638   4.262   6.695 -0.1575 -0.3566  1.0790
11182SOL    HW234163   4.506   4.188   6.693 -0.0476 -0.5462  0.5096
11183SOL     OW34164   6.154   5.039   0.335  0.3734  0.0670  0.0408
11183SOL    HW134165   6.088   5.105   0.357 -0.5354 -0.3475 -1.2855
11183SOL    HW234166   6.145   4.973   0.403  0.4883  0.7428  0.7295
11184SOL     OW34167   5.466   3.426   3.393 -0.0433 -0.5026  0.3822
11184SOL    HW134168   5.523   3.470   3.330  3.0439 -0.8547  2.6421
11184SOL    HW234169   5.455   3.338   3.358  1.2347 -0.5497  0.0457
11185SOL     OW34170   1.232   1.825   1.396  0.0335 -0.0780 -0.0347
11185SOL    HW134171   1.139   1.829   1.376  0.1295  0.8891 -0.3690
11185SOL    HW234172   1.239   1.766   1.471 -0.6078 -1.8018 -1.2705
11186SOL     OW34173   5.546   4.825   1.853  0.5136 -0.3567 -0.3579
11186SOL    HW134174   5.551   4.791   1.943 -0.5862  0.6244  0.1096
11186SOL    HW234175   5.467   4.785   1.817  0.1510  0.3494 -0.3757
11187SOL     OW34176   0.816   1.656   6.272  0.0995  0.2212 -0.6455
11187SOL    HW134177   0.795   1.733   6.325  0.0999 -0.2780  0.0927
11187SOL    HW234178   0.909   1.640   6.288 -0.0992 -0.4385 -0.1229
11188SOL     OW34179   4.949   2.829   1.485  0.1372  0.2832  0.5407
11188SOL    HW134180   4.973   2.863   1.399 -1.1710  1.0567  0.4639
11188SOL    HW234181   5.021   2.857   1.542  0.6245  0.4487 -0.1391
11189SOL     OW34182   1.121   7.043   4.672 -0.1015 -0.1612  0.2537
11189SOL    HW134183   1.059   6.992   4.621  0.9392  0.6659 -1.9915
11189SOL    HW234184   1.205   7.000   4.658  0.2729  0.2990  1.0031
11190SOL     OW34185   3.280   4.631   0.607  0.1671  0.4574  1.4551
11190SOL    HW134186   3.350   4.573   0.577 -0.1638  1.0849 -0.7232
11190SOL    HW234187   3.249   4.592   0.689 -1.4268 -3.6343 -0.8130
11191SOL     OW34188   4.698   0.493   3.344  0.0758 -0.3752  0.4141
11191SOL    HW134189   4.661   0.490   3.255 -0.1069  1.9391  0.3346
11191SOL    HW234190   4.793   0.488   3.330  0.3042  3.0476 -0.3375
11192SOL     OW34191   6.460   5.425   2.009 -0.2781 -0.1298  0.0820
11192SOL    HW134192   6.518   5.485   2.054  1.2324 -0.6921 -1.0208
11192SOL    HW234193   6.386   5.414   2.068  0.7767  0.5319  1.5903
11193SOL     OW34194   5.443   1.525   4.142  0.1585  0.6964  0.4033
11193SOL    HW134195   5.463   1.458   4.076 -2.3612  0.3348 -0.0768
11193SOL    HW234196   5.501   1.504   4.215  1.5525 -0.1571 -0.8752
11194SOL     OW34197   5.685   1.357   4.004 -0.3524  0.2760  0.1881
11194SOL    HW134198   5.752   1.335   4.068  0.3935 -1.1087 -1.0181
11194SOL    HW234199   5.618   1.289   4.015  1.0030 -1.5613 -2.1888
11195SOL     OW34200   3.956   0.831   0.913  0.3571  0.4670  0.6267
11195SOL    HW134201   4.016   0.757   0.917 -0.0148 -0.0277 -1.4236
11195SOL    HW234202   3.874   0.793   0.880  0.3840  1.8566 -1.2317
11196SOL     OW34203   0.899   0.468   0.104 -0.3358  0.5110 -0.7128
11196SOL    HW134204   0.958   0.541   0.085 -1.1831  1.3835 -0.0936
11196SOL    HW234205   0.941   0.422   0.176 -0.5834  1.3508 -0.0159
11197SOL     OW34206   3.191   6.147   0.203  0.3388  0.5402 -0.4573
11197SOL    HW134207   3.270   6.146   0.258  1.1009  0.8898 -1.5099
11197SOL    HW234208   3.131   6.205   0.249  0.5763  0.0363  0.5131
11198SOL     OW34209   6.547   0.673   5.758 -0.5667 -0.0447 -0.6370
11198SOL    HW134210   6.629   0.713   5.728 -0.7396  1.1087  0.3561
11198SOL    HW234211   6.481   0.706   5.697 -0.6487  0.9249 -0.0452
11199SOL     OW34212   2.289   2.776   7.070 -0.0521 -0.1903 -0.2358
11199SOL    HW134213   2.222   2.837   7.098  0.2401 -0.8803  2.1910
11199SOL    HW234214   2.352   2.830   7.023  0.9793  1.8225  3.0905
11200SOL     OW34215   6.607   6.111   3.300  0.5235  0.5484 -0.6474
11200SOL    HW134216   6.557   6.082   3.223  0.1474 -1.1623  0.2067
11200SOL    HW234217   6.694   6.131   3.265  0.7325 -1.4068 -1.3662
11201SOL     OW34218   4.841   4.313   6.675  0.0083 -0.0750 -0.0902
11201SOL    HW134219   4.788   4.386   6.643 -0.6625 -0.9591 -1.0441
11201SOL    HW234220   4.931   4.335   6.649 -0.3132 -0.0021 -1.1813
11202SOL     OW34221   5.415   2.711   0.646  0.2485 -0.4008 -0.4818
11202SOL    HW134222   5.417   2.806   0.645 -1.0522 -0.3320 -2.3467
11202SOL    HW234223   5.333   2.689   0.691  1.0363 -0.7073  0.8687
11203SOL     OW34224   6.956   6.768   2.382  0.0155  0.0688  0.1015
11203SOL    HW134225   7.032   6.820   2.354  0.1887 -0.7830 -1.0888
11203SOL    HW234226   6.942   6.794   2.473 -1.1523  3.7083 -0.9333
11204SOL     OW34227   1.128   0.443   6.317  0.1408  0.1396 -0.0868
11204SOL    HW134228   1.173   0.433   6.233  0.6807 -0.9018  0.3071
11204SOL    HW234229   1.084   0.359   6.331  0.5355  0.0872  0.9263
11205SOL     OW34230   2.446   3.907   4.760  0.3373  0.1448  0.7999
11205SOL    HW134231   2.471   3.827   4.806  0.3400  0.6431  1.6926
11205SOL    HW234232   2.414   3.877   4.675 -0.4169 -0.8762  1.4193
11206SOL     OW34233   4.057   7.053   4.946 -0.5249  0.5843 -0.1155
11206SOL    HW134234   4.125   7.068   5.012 -0.5718  2.1994 -0.3904
11206SOL    HW234235   4.036   6.960   4.954  0.2231  0.5098  1.4160
11207SOL     OW34236   2.404   6.265   5.102  0.5690  0.2713 -0.1307
11207SOL    HW134237   2.450   6.318   5.038 -1.3036  1.4853 -0.5359
11207SOL    HW234238   2.398   6.178   5.063 -0.2183  0.9039 -1.4698
11208SOL     OW34239   3.854   5.896   3.171  0.0360 -0.6740 -0.0852
11208SOL    HW134240   3.762   5.873   3.164  0.1554 -1.0908 -0.3491
11208SOL    HW234241   3.897   5.841   3.105  0.4480 -0.3623 -0.0774
11209SOL     OW34242   0.439   1.395   4.845  0.1666  0.2676 -0.4772
11209SOL    HW134243   0.505   1.327   4.852  0.7173  0.7918 -0.5091
11209SOL    HW234244   0.414   1.413   4.936  1.3122  1.2550 -0.3309
11210SOL     OW34245   2.135   5.615   5.123  0.2056  0.0359 -0.9239
11210SOL    HW134246   2.100   5.533   5.159  0.2272 -0.1501 -1.3161
11210SOL    HW234247   2.069   5.643   5.060 -0.5087  1.1026  0.2574
11211SOL     OW34248   6.949   0.140   0.319 -0.1356  0.0250 -0.1456
11211SOL    HW134249   6.989   0.185   0.393 -0.6203  0.4806 -0.1495
11211SOL    HW234250   6.926   0.211   0.258 -1.6406 -0.1316  0.1944
11212SOL     OW34251   4.442   4.204   0.835  0.0906  0.7861 -0.1398
11212SOL    HW134252   4.428   4.199   0.741  2.7571 -0.4377 -0.5576
11212SOL    HW234253   4.535   4.188   0.847 -0.5471 -1.7793  2.8757
11213SOL     OW34254   1.929   0.711   3.391 -0.0783  0.7972  0.3775
11213SOL    HW134255   1.982   0.677   3.320 -0.3033 -1.2498  1.0995
11213SOL    HW234256   1.856   0.648   3.398 -1.5101  2.4169  0.6994
11214SOL     OW34257   1.850   1.007   1.829 -0.0889 -0.5952  0.1366
11214SOL    HW134258   1.853   1.101   1.845 -0.7087 -0.4835 -0.3650
11214SOL    HW234259   1.938   0.976   1.852 -0.5652 -0.2970  2.5940
11215SOL     OW34260   4.693   1.060   6.279 -0.0824  0.2149 -0.8570
11215SOL    HW134261   4.713   1.030   6.190  0.4131 -1.1555 -0.3198
11215SOL    HW234262   4.748   1.004   6.335 -2.2369 -0.7075  0.4536
11216SOL     OW34263   0.916   3.444   0.398  0.4125 -0.0937 -0.3410
11216SOL    HW134264   0.845   3.498   0.433  0.5822 -0.1593  0.1159
11216SOL    HW234265   0.891   3.427   0.307 -1.5859 -2.4639  0.5331
11217SOL     OW34266   2.913   4.200   4.022 -0.3849 -0.1757 -0.2770
11217SOL    HW134267   2.854   4.195   3.948 -0.8454 -0.5932  0.1112
11217SOL    HW234268   2.955   4.114   4.026 -0.8642 -0.3866  0.3510
11218SOL     OW34269   0.529   4.616   3.989  0.0468 -0.0955  0.2907
11218SOL    HW134270   0.507   4.525   4.008 -1.3297  0.3632  0.9908
11218SOL    HW234271   0.494   4.632   3.902  1.5549 -0.6115 -0.4593
11219SOL     OW34272   5.732   3.005   2.520 -0.3134  0.1065 -0.4116
11219SOL    HW134273   5.823   2.989   2.497 -0.0857  0.3911  0.2541
11219SOL    HW234274   5.684   2.996   2.438  0.1530 -1.1794 -0.5645
11220SOL     OW34275   5.221   7.132   1.515 -0.6061 -0.4358  0.0066
11220SOL    HW134276   5.265   7.102   1.595 -1.0592 -0.4930  0.2393
11220SOL    HW234277   5.159   7.063   1.494 -0.3444 -0.5121 -0.5145
11221SOL     OW34278   0.716   4.328   2.011 -0.3057  0.3457 -0.3035
11221SOL    HW134279   0.724   4.265   2.082 -1.6679  1.8063  1.2254
11221SOL    HW234280   0.659   4.396   2.046  1.1331  2.4681 -1.8654
11222SOL     OW34281   3.084   0.531   4.803 -0.0425 -0.7989 -0.9172
11222SOL    HW134282   3.090   0.596   4.733  2.5166  0.0114 -0.0276
11222SOL    HW234283   3.030   0.461   4.766 -0.1629  0.3582 -3.0692
11223SOL     OW34284   7.093   5.574   5.400  0.4908 -0.5599  0.4747
11223SOL    HW134285   7.123   5.617   5.320 -0.2235 -0.1696  0.4100
11223SOL    HW234286   6.999   5.589   5.401  0.4492 -0.8554  1.2178
11224SOL     OW34287   6.975   4.881   6.527  0.1258  0.4514 -0.5284
11224SOL    HW134288   7.012   4.849   6.610  1.7429  0.4941 -1.2099
11224SOL    HW234289   6.922   4.808   6.496 -0.1221  0.2575  0.3114
11225SOL     OW34290   2.150   4.526   0.651 -0.5534  0.0919  0.1497
11225SOL    HW134291   2.195   4.445   0.625 -1.5213 -1.1321  2.0765
11225SOL    HW234292   2.220   4.592   0.654  0.1944 -0.5258 -1.8452
11226SOL     OW34293   2.180   0.609   0.170 -0.2431  0.0570  0.5296
11226SOL    HW134294   2.107   0.634   0.113  0.1902  1.4409  0.5256
11226SOL    HW234295   2.151   0.530   0.214 -0.9553 -0.5233 -0.9309
11227SOL     OW34296   5.919   6.637   1.220 -0.0934  0.0959  0.2368
11227SOL    HW134297   5.957   6.559   1.260  0.0022 -0.6493 -1.2762
11227SOL    HW234298   5.826   6.632   1.242 -0.3026 -1.0982 -0.8794
11228SOL     OW34299   3.537   0.632   1.275 -0.4536 -0.1979  0.5696
11228SOL    HW134300   3.591   0.677   1.339  0.6961 -0.6983 -0.0230
11228SOL    HW234301   3.559   0.673   1.191  0.2487 -1.4782  0.0863
11229SOL     OW34302   0.915   5.225   5.616  0.6171 -0.1481  0.5825
11229SOL    HW134303   0.960   5.142   5.601 -0.2789 -0.6543  0.6189
11229SOL    HW234304   0.981   5.281   5.657  1.8655 -0.1249 -1.3165
11230SOL     OW34305   2.252   0.780   0.922 -0.7334  0.3679  0.0899
11230SOL    HW134306   2.277   0.694   0.891  0.8629  0.7649  0.2066
11230SOL    HW234307   2.206   0.764   1.005 -0.5690 -0.3607  0.0439
11231SOL     OW34308   2.501   4.197   1.649 -0.6123  0.2740  0.0013
11231SOL    HW134309   2.547   4.263   1.701  1.3018  0.7973 -2.1917
11231SOL    HW234310   2.474   4.131   1.713  0.9234  1.2211  1.7422
11232SOL     OW34311   5.091   1.596   6.289  0.4607  0.2432 -0.8917
11232SOL    HW134312   5.070   1.592   6.383 -0.4162 -2.8414 -1.1131
11232SOL    HW234313   5.025   1.655   6.253 -1.0294 -0.7547  0.0741
11233SOL     OW34314   0.055   1.803   0.059  0.0607 -0.6599 -0.0234
11233SOL    HW134315   0.124   1.831   0.118 -0.4938  0.6454  0.0284
11233SOL    HW234316  -0.015   1.772   0.117 -0.8878  1.5599  0.0888
11234SOL     OW34317   4.615   0.845   3.319  0.0081 -0.5216  0.1599
11234SOL    HW134318   4.529   0.811   3.293 -0.2539  0.5109 -0.3966
11234SOL    HW234319   4.604   0.940   3.317  1.0013 -0.3849  0.6736
11235SOL     OW34320   5.137   4.434   0.597 -0.4492 -0.0371  0.1413
11235SOL    HW134321   5.214   4.405   0.646  0.3719  1.8448  0.0252
11235SOL    HW234322   5.153   4.402   0.508 -0.3489 -0.5858  0.3479
11236SOL     OW34323   2.239   7.183   3.495  0.5728 -0.1921  0.2794
11236SOL    HW134324   2.149   7.161   3.521  0.6440  0.7871  1.4963
11236SOL    HW234325   2.268   7.246   3.561  2.4471 -1.0757  0.3740
11237SOL     OW34326   4.983   7.047   3.236  0.5173  0.1234 -0.4902
11237SOL    HW134327   5.027   6.974   3.193  0.2247  0.0517 -0.6683
11237SOL    HW234328   5.017   7.125   3.193  1.2600  0.1300  0.0822
11238SOL     OW34329   4.393   3.824   1.574 -0.2940 -0.2981 -0.2924
11238SOL    HW134330   4.309   3.812   1.532 -1.3277  1.2748  1.1918
11238SOL    HW234331   4.424   3.735   1.592 -0.9721 -0.9280 -2.0185
11239SOL     OW34332   1.825   2.357   2.547  0.3379  0.6727 -0.2419
11239SOL    HW134333   1.820   2.453   2.547 -0.5224  0.6868  2.0101
11239SOL    HW234334   1.856   2.335   2.459 -1.1024  2.9330 -1.4289
11240SOL     OW34335   4.733   4.819   3.683  0.3851  0.3158 -0.4049
11240SOL    HW134336   4.749   4.796   3.592  0.6408 -2.1111  0.1819
11240SOL    HW234337   4.813   4.794   3.729 -0.7997 -1.2927  0.8817
11241SOL     OW34338   0.605   6.139   6.214 -0.4122 -0.0199  0.0757
11241SOL    HW134339   0.697   6.112   6.209 -0.0942  1.0703 -0.1483
11241SOL    HW234340   0.568   6.111   6.130 -0.3855 -0.7857  0.3117
11242SOL     OW34341   3.399   5.306   3.178  0.5444  0.2720 -0.4667
11242SOL    HW134342   3.367   5.311   3.088  0.7279 -0.5309 -0.5806
11242SOL    HW234343   3.474   5.366   3.181  1.8911 -1.2928 -1.4343
11243SOL     OW34344   1.701   4.777   6.576  0.1830 -0.1972  0.0791
11243SOL    HW134345   1.693   4.690   6.539 -1.8140  0.3952 -1.0855
11243SOL    HW234346   1.749   4.828   6.511  0.4324 -0.1730  0.2792
11244SOL     OW34347   5.199   0.726   5.191  0.6354 -0.0032  0.5320
11244SOL    HW134348   5.116   0.713   5.147 -0.5651  2.4387  1.8628
11244SOL    HW234349   5.264   0.725   5.121 -0.7045 -0.3010 -0.7601
11245SOL     OW34350   3.244   3.930   0.603  0.2831  0.2432  0.5894
11245SOL    HW134351   3.265   3.874   0.678  0.0133  0.4617  0.8286
11245SOL    HW234352   3.328   3.968   0.578  0.6098 -0.8647 -0.0630
11246SOL     OW34353   5.113   7.034   2.284 -0.4371  0.5496  0.1288
11246SOL    HW134354   5.078   6.962   2.232 -1.3885  1.2417 -0.2289
11246SOL    HW234355   5.124   7.105   2.221  0.7537  0.6361  0.4264
11247SOL     OW34356   0.282   4.857   2.219 -0.2263 -0.4449  0.1906
11247SOL    HW134357   0.269   4.795   2.291  0.4317 -2.9940 -1.7034
11247SOL    HW234358   0.375   4.877   2.220 -0.3606  0.1515  0.5401
11248SOL     OW34359   4.693   4.118   0.827  0.3337  0.0697  0.1633
11248SOL    HW134360   4.696   4.032   0.870  0.5593  0.2221  0.4629
11248SOL    HW234361   4.742   4.175   0.887  0.8528  0.2381 -0.4144
11249SOL     OW34362   2.109   3.002   3.301  0.2041 -0.4096 -0.6562
11249SOL    HW134363   2.078   3.038   3.218 -1.5129  0.4483  0.3197
11249SOL    HW234364   2.191   3.048   3.318 -0.2654  0.5935 -1.0710
11250SOL     OW34365   3.308   6.477   3.127 -0.0566 -0.2092 -0.3151
11250SOL    HW134366   3.400   6.464   3.104  0.3242  0.3864  0.8187
11250SOL    HW234367   3.298   6.437   3.213 -0.2679  1.6882  0.6039
11251SOL     OW34368   7.065   1.381   1.930 -0.2006  0.0771  0.5488
11251SOL    HW134369   7.064   1.325   1.852  0.2008 -0.3438  0.8406
11251SOL    HW234370   6.974   1.410   1.940 -0.3995 -0.4719  0.3512
11252SOL     OW34371   2.182   2.102   0.601 -0.6295  0.7248 -0.4371
11252SOL    HW134372   2.189   2.187   0.644 -0.2950  0.3298  0.2922
11252SOL    HW234373   2.148   2.043   0.668 -0.6123  0.2182 -0.8622
11253SOL     OW34374   2.839   3.804   5.823  0.0379  0.5956  0.1290
11253SOL    HW134375   2.796   3.862   5.759 -1.2381 -0.7013 -0.2396
11253SOL    HW234376   2.883   3.864   5.883 -0.3744  1.9173 -0.8350
11254SOL     OW34377   3.775   6.425   1.199 -0.1900 -0.1830  0.1056
11254SOL    HW134378   3.750   6.340   1.163  0.0373 -0.5267  0.7504
11254SOL    HW234379   3.845   6.456   1.142 -0.2845 -0.4196 -0.1402
11255SOL     OW34380   5.474   3.039   0.049 -0.7408 -0.0472 -0.0517
11255SOL    HW134381   5.409   2.985   0.003 -0.9233  0.2677 -0.1722
11255SOL    HW234382   5.521   2.978   0.106 -0.0797 -0.5733 -1.1240
11256SOL     OW34383   0.148   1.737   5.830 -0.0258 -0.7999 -0.1074
11256SOL    HW134384   0.192   1.715   5.912  1.2993  1.0119 -0.2646
11256SOL    HW234385   0.204   1.699   5.762 -0.8071 -1.7927 -0.2149
11257SOL     OW34386   3.747   2.340   2.716  0.1678 -0.6216  0.0668
11257SOL    HW134387   3.812   2.276   2.746  0.1595  0.0374  1.6053
11257SOL    HW234388   3.666   2.290   2.707  0.4077 -1.0394  0.1983
11258SOL     OW34389   3.918   6.875   5.506  0.1733  0.4917 -0.2653
11258SOL    HW134390   3.907   6.836   5.419  1.2295  1.2340 -0.7432
11258SOL    HW234391   3.829   6.878   5.542 -0.2156 -0.2347 -1.1310
11259SOL     OW34392   6.665   5.600   5.538  0.5613  0.4816 -0.3870
11259SOL    HW134393   6.671   5.670   5.603 -0.3408 -1.0279  1.3844
11259SOL    HW234394   6.644   5.522   5.588 -3.1875 -0.2651 -2.7275
11260SOL     OW34395   1.210   4.864   4.139 -0.6630  0.0609 -0.1678
11260SOL    HW134396   1.281   4.803   4.118 -1.4157 -0.6825 -0.5644
11260SOL    HW234397   1.202   4.860   4.234  0.0111  0.3755 -0.0855
11261SOL     OW34398   5.387   1.298   1.646 -0.6466 -0.9210  0.4627
11261SOL    HW134399   5.430   1.345   1.717  1.0101  1.8247 -2.0940
11261SOL    HW234400   5.294   1.319   1.656 -0.2264  1.0220  0.8226
11262SOL     OW34401   4.701   6.195   4.702 -0.3302  0.1712 -0.6790
11262SOL    HW134402   4.750   6.181   4.784 -0.9724 -0.9032 -0.4540
11262SOL    HW234403   4.693   6.107   4.665 -2.4074  0.2466 -0.5117
11263SOL     OW34404   4.787   5.187   3.997 -0.1474  0.3899  0.9751
11263SOL    HW134405   4.802   5.097   4.026 -0.3656  0.4580  1.3084
11263SOL    HW234406   4.811   5.187   3.904 -0.8205 -0.1779  0.7997
11264SOL     OW34407   5.908   2.104   4.644 -0.2963  0.2908  0.0068
11264SOL    HW134408   5.870   2.050   4.574  0.3096 -1.7747  1.1665
11264SOL    HW234409   5.834   2.130   4.697 -0.4517 -1.1865  0.5717
11265SOL     OW34410   5.970   7.041   3.734 -0.5105  0.1531 -0.0647
11265SOL    HW134411   6.044   7.050   3.673  1.1061  1.0264  1.9072
11265SOL    HW234412   5.901   7.096   3.695  0.8051  1.4678 -0.6441
11266SOL     OW34413   0.780   2.944   2.649 -0.1498  0.1512  0.1662
11266SOL    HW134414   0.694   2.986   2.649 -1.1130 -1.3547  4.0371
11266SOL    HW234415   0.810   2.949   2.740  2.6840 -1.6671 -0.5178
11267SOL     OW34416   6.843   0.954   1.431 -0.3468 -0.6051  0.7977
11267SOL    HW134417   6.877   0.955   1.341  0.1673 -2.7900  0.9292
11267SOL    HW234418   6.845   1.046   1.458  3.0784 -0.2867 -0.1161
11268SOL     OW34419   0.335   5.508   2.171  0.2317  0.3373 -0.4572
11268SOL    HW134420   0.251   5.521   2.215  0.5291  2.8923 -0.4730
11268SOL    HW234421   0.389   5.462   2.235 -0.1680  1.6596  0.9026
11269SOL     OW34422   6.824   6.706   6.725 -0.0027  0.4497 -0.7364
11269SOL    HW134423   6.754   6.734   6.666  1.6520  0.3914 -2.8939
11269SOL    HW234424   6.898   6.689   6.666  0.6175 -3.5685  0.9170
11270SOL     OW34425   2.623   2.101   0.847  0.1344  0.1794  0.1138
11270SOL    HW134426   2.599   2.056   0.928 -2.1093  0.5142 -0.2955
11270SOL    HW234427   2.718   2.106   0.849  0.3082 -2.2352  1.4162
11271SOL     OW34428   4.038   3.532   5.950  0.5781  0.6339  1.2557
11271SOL    HW134429   3.947   3.525   5.979  0.1689  2.3271  0.4738
11271SOL    HW234430   4.090   3.521   6.030 -0.2685 -0.7105  1.6601
11272SOL     OW34431   3.624   1.431   5.158  0.1617  0.1846  0.2445
11272SOL    HW134432   3.565   1.382   5.215  1.1551  0.8502  1.9131
11272SOL    HW234433   3.637   1.374   5.082 -1.1878 -0.7366  0.6686
11273SOL     OW34434   5.716   5.419   1.095  0.1667  0.3240 -0.4322
11273SOL    HW134435   5.757   5.501   1.121  0.5739 -0.0699  0.2197
11273SOL    HW234436   5.680   5.436   1.008  1.3227  0.8315 -0.8294
11274SOL     OW34437   2.164   2.280   2.236  0.3746  0.0555  0.3821
11274SOL    HW134438   2.111   2.322   2.168  1.7191  0.3523 -0.5162
11274SOL    HW234439   2.121   2.196   2.251 -0.9494  0.7206  0.4366
11275SOL     OW34440   3.582   4.895   0.534  0.6714  0.4030  0.3034
11275SOL    HW134441   3.620   4.983   0.535  0.0560  0.6905 -0.6732
11275SOL    HW234442   3.517   4.897   0.464  1.6827 -1.2465 -0.7890
11276SOL     OW34443   6.197   7.126   1.074 -0.2280  0.0852  0.3653
11276SOL    HW134444   6.245   7.192   1.024 -0.5964 -1.3566 -1.9868
11276SOL    HW234445   6.145   7.079   1.009 -1.1742 -1.5234  2.1934
11277SOL     OW34446   7.185   5.981   2.515 -0.3279  0.0269 -0.5675
11277SOL    HW134447   7.167   6.074   2.531  1.4614  0.3917 -0.4538
11277SOL    HW234448   7.145   5.963   2.430 -1.7421  0.5652 -0.0434
11278SOL     OW34449   5.408   2.732   6.761 -0.9227  0.0427  0.6652
11278SOL    HW134450   5.491   2.744   6.806 -0.0942 -3.2148  0.2769
11278SOL    HW234451   5.342   2.732   6.831 -0.4065  0.9879  1.1635
11279SOL     OW34452   1.466   0.078   4.840 -0.0929 -0.3505 -0.2541
11279SOL    HW134453   1.440   0.051   4.752 -0.7045  1.2409 -0.6029
11279SOL    HW234454   1.553   0.116   4.829 -1.4323  2.8735 -0.8767
11280SOL     OW34455   7.219   2.534   5.120  0.3411  0.6829 -0.0633
11280SOL    HW134456   7.138   2.551   5.072  0.8312  1.4231 -0.6316
11280SOL    HW234457   7.275   2.609   5.102  1.7026 -0.4662 -0.8225
11281SOL     OW34458   0.336   1.773   3.465  0.3211 -0.4034 -0.6078
11281SOL    HW134459   0.408   1.805   3.411  2.1656 -0.8194  1.4146
11281SOL    HW234460   0.354   1.809   3.552 -2.0320 -0.4304 -0.0481
11282SOL     OW34461   3.447   4.159   1.361  0.0626 -0.2030  0.0202
11282SOL    HW134462   3.372   4.179   1.305  0.1639 -0.3133 -0.1535
11282SOL    HW234463   3.408   4.125   1.442 -0.0507 -1.0968 -0.4024
11283SOL     OW34464   4.393   5.243   5.631 -0.8329  0.0371 -0.0960
11283SOL    HW134465   4.386   5.339   5.625 -0.3411  0.0581 -0.3715
11283SOL    HW234466   4.347   5.221   5.712 -0.3042  0.5745  0.3607
11284SOL     OW34467   6.412   2.685   0.285  0.4118 -0.3622  0.2853
11284SOL    HW134468   6.360   2.744   0.341  1.2070  0.5249  0.1125
11284SOL    HW234469   6.422   2.605   0.337 -0.0172 -0.0577  0.8502
11285SOL     OW34470   2.057   4.036   3.814 -0.0232  0.4597  0.7602
11285SOL    HW134471   1.976   4.057   3.769 -1.1413 -1.2010  1.8604
11285SOL    HW234472   2.054   3.941   3.826  2.6184  0.1867 -0.1196
11286SOL     OW34473   7.037   1.414   3.207  0.0329 -0.0597  0.3795
11286SOL    HW134474   6.950   1.390   3.174 -1.4732  3.5810  1.1736
11286SOL    HW234475   7.024   1.426   3.301  0.8587  2.3423  0.2404
11287SOL     OW34476   1.473   4.996   5.761 -0.2631  0.4656  0.2005
11287SOL    HW134477   1.442   4.967   5.675  0.1035 -1.3999  0.6330
11287SOL    HW234478   1.407   4.963   5.823 -1.5020  3.3678  0.5694
11288SOL     OW34479   3.258   3.085   1.702  0.7277 -0.5897  0.8099
11288SOL    HW134480   3.259   3.180   1.687  1.1510 -0.8719 -1.2932
11288SOL    HW234481   3.199   3.051   1.635  0.6595 -1.8364  1.4795
11289SOL     OW34482   0.773   4.452   6.200  0.1463 -0.5406  0.0598
11289SOL    HW134483   0.753   4.443   6.107  0.1666 -1.0493  0.1021
11289SOL    HW234484   0.705   4.510   6.234 -0.2165 -0.8408 -0.1486
11290SOL     OW34485   5.584   4.201   4.827 -0.1909 -0.2848  0.1683
11290SOL    HW134486   5.565   4.294   4.843  1.2150  0.0460  0.0626
11290SOL    HW234487   5.537   4.180   4.747 -1.9999 -0.1719  1.1662
11291SOL     OW34488   0.576   2.113   3.460 -0.3824  0.0980 -0.2975
11291SOL    HW134489   0.602   2.024   3.435 -1.7910  0.1355 -2.1597
11291SOL    HW234490   0.614   2.169   3.392 -2.3082  0.4950 -1.1395
11292SOL     OW34491   1.440   3.434   3.588 -0.6762 -0.1793  0.6960
11292SOL    HW134492   1.478   3.377   3.656 -1.5868 -1.5726  0.0762
11292SOL    HW234493   1.399   3.374   3.526 -1.0998  1.1392 -0.3529
11293SOL     OW34494   3.890   5.683   4.172 -0.3727 -0.1839 -0.0762
11293SOL    HW134495   3.960   5.655   4.232 -0.0434 -1.5411 -1.0523
11293SOL    HW234496   3.904   5.777   4.161  2.0042 -0.5828 -1.1005
11294SOL     OW34497   0.058   5.521   5.741  0.5714 -0.2039  0.3642
11294SOL    HW134498   0.062   5.456   5.671 -1.5606  1.1453 -1.1342
11294SOL    HW234499   0.091   5.601   5.702 -2.0961  0.9601  0.2883
11295SOL     OW34500   0.820   3.540   4.585 -0.2981 -0.0630  0.1829
11295SOL    HW134501   0.801   3.458   4.630 -2.2484  0.6118  0.6731
11295SOL    HW234502   0.737   3.565   4.544  0.5998  0.9951 -1.0879
11296SOL     OW34503   3.607   1.395   1.013 -0.0409 -0.7174 -0.1974
11296SOL    HW134504   3.527   1.393   1.065 -0.4128 -1.8075 -0.7722
11296SOL    HW234505   3.678   1.392   1.077 -0.4230  0.7515  0.3367
11297SOL     OW34506   0.911   2.228   4.100  0.1252  0.6886  0.2958
11297SOL    HW134507   0.985   2.172   4.121  0.2501  0.7887  0.1297
11297SOL    HW234508   0.845   2.208   4.167 -0.0080  0.0178 -0.0288
11298SOL     OW34509   3.641   0.299   6.903 -0.3044  0.1239  0.4139
11298SOL    HW134510   3.619   0.209   6.928 -0.6452 -0.2943 -1.2583
11298SOL    HW234511   3.728   0.313   6.940 -0.9464 -0.2779  2.1286
11299SOL     OW34512   2.922   0.408   6.983 -0.2670 -0.7554 -0.7980
11299SOL    HW134513   2.957   0.398   6.895 -0.5124 -0.6605 -0.9056
11299SOL    HW234514   2.988   0.366   7.039 -1.0739 -2.6568 -1.1861
11300SOL     OW34515   1.351   2.814   6.190  0.3995  0.2235 -0.3511
11300SOL    HW134516   1.316   2.793   6.104 -0.4152 -2.3362  0.5155
11300SOL    HW234517   1.274   2.842   6.240  0.2404 -1.3741  0.3756
11301SOL     OW34518   0.217   0.582   0.605 -0.0077  0.8079  0.6493
11301SOL    HW134519   0.219   0.563   0.511 -1.0378 -0.8337  0.9364
11301SOL    HW234520   0.308   0.604   0.626  1.0436 -2.3504 -0.0809
11302SOL     OW34521   3.205   5.774   4.636  0.3292 -0.2323  0.1388
11302SOL    HW134522   3.250   5.837   4.580 -0.4658 -0.1506 -0.4246
11302SOL    HW234523   3.276   5.729   4.682  1.1587 -1.4841 -2.1809
11303SOL     OW34524   1.281   2.340   6.136  0.3090 -0.2569  0.7133
11303SOL    HW134525   1.211   2.352   6.071  1.8365 -1.2769 -1.2555
11303SOL    HW234526   1.235   2.325   6.218 -1.8087 -1.0269 -0.5222
11304SOL     OW34527   1.753   2.816   3.460  0.1995 -0.1813 -0.1733
11304SOL    HW134528   1.688   2.755   3.426 -1.0147  0.3556  1.1191
11304SOL    HW234529   1.747   2.808   3.555  1.2890  0.6464 -0.0120
11305SOL     OW34530   6.897   3.949   0.889 -0.0310  0.4275 -0.3428
11305SOL    HW134531   6.846   3.895   0.949  0.6350  0.5181  0.3099
11305SOL    HW234532   6.968   3.893   0.859  1.4606  1.2973  1.3803
11306SOL     OW34533   1.947   2.861   0.061 -0.6135 -0.5660  0.2797
11306SOL    HW134534   1.944   2.888  -0.031 -0.1866 -2.3163 -0.2881
11306SOL    HW234535   2.037   2.876   0.088 -1.3335  2.6364  1.3552
11307SOL     OW34536   1.116   0.709   0.245  0.1421  0.1078  0.2963
11307SOL    HW134537   1.141   0.682   0.334  1.6997 -0.2630 -0.2237
11307SOL    HW234538   1.179   0.665   0.188 -0.7736  0.4228 -0.9995
11308SOL     OW34539   1.268   6.823   4.155  1.0463 -0.0651  0.0408
11308SOL    HW134540   1.259   6.918   4.159  0.8778 -0.0013 -1.2930
11308SOL    HW234541   1.345   6.804   4.209  0.6404  0.7353  0.9260
11309SOL     OW34542   7.120   5.402   4.480  0.2109  1.0658 -0.9361
11309SOL    HW134543   7.024   5.398   4.485  0.2520  0.7949 -0.2149
11309SOL    HW234544   7.141   5.370   4.393 -0.1880 -1.9022 -0.0521
11310SOL     OW34545   6.464   0.933   2.923  0.1212  0.6402 -0.0287
11310SOL    HW134546   6.550   0.944   2.882 -0.7133 -0.0929 -2.1514
11310SOL    HW234547   6.453   0.838   2.931 -1.0821  0.6455 -1.2373
11311SOL     OW34548   3.548   5.090   0.733 -0.5489 -0.0224 -0.0434
11311SOL    HW134549   3.471   5.104   0.678 -0.5391 -2.1570 -0.7282
11311SOL    HW234550   3.544   4.997   0.756  1.6369 -0.1122  0.2012
11312SOL     OW34551   5.588   5.512   0.024  0.2825 -0.1668  0.8328
11312SOL    HW134552   5.525   5.509  -0.048  0.8362 -1.8032  0.3656
11312SOL    HW234553   5.552   5.576   0.085  0.2760  2.0204 -1.3199
11313SOL     OW34554   1.336   0.422   6.488  0.3003  0.2971  0.4035
11313SOL    HW134555   1.409   0.400   6.429  1.1761  4.0081 -0.1789
11313SOL    HW234556   1.259   0.423   6.432  0.4856  0.1582  0.1445
11314SOL     OW34557   4.258   0.224   0.841 -0.1624  0.1019  0.4297
11314SOL    HW134558   4.314   0.224   0.763 -1.1894  2.0602 -0.3628
11314SOL    HW234559   4.189   0.162   0.820 -0.7130  0.9924 -0.4653
11315SOL     OW34560   2.694   2.829   4.740  0.2598  0.5929  0.6695
11315SOL    HW134561   2.679   2.796   4.828  1.5435  0.5253  0.8782
11315SOL    HW234562   2.659   2.918   4.741 -0.6442  0.2472  0.9318
11316SOL     OW34563   3.160   3.970   3.654 -0.5954  0.0498  0.6633
11316SOL    HW134564   3.179   4.017   3.736 -2.1077  2.2164 -0.1694
11316SOL    HW234565   3.108   3.894   3.682 -0.9834  0.6871  1.7257
11317SOL     OW34566   4.728   1.758   2.476 -0.4681  0.5027 -0.2395
11317SOL    HW134567   4.716   1.836   2.530  0.6096  1.0095 -0.7128
11317SOL    HW234568   4.806   1.776   2.424 -0.6667 -0.5632 -0.9419
11318SOL     OW34569   3.566   2.079   4.659 -0.4247 -0.7964  0.0827
11318SOL    HW134570   3.484   2.117   4.691 -0.2904 -0.1567 -0.3247
11318SOL    HW234571   3.584   2.125   4.577  0.6482 -0.5068  0.4634
11319SOL     OW34572   4.594   4.730   6.886 -0.2066  0.2585  0.3522
11319SOL    HW134573   4.592   4.748   6.792  1.3369  0.4452  0.3297
11319SOL    HW234574   4.675   4.683   6.899 -1.3280 -1.4893  1.3344
11320SOL     OW34575   4.625   5.477   4.746  0.4928  0.1173 -0.3316
11320SOL    HW134576   4.656   5.421   4.817  0.7722  0.7327  0.0353
11320SOL    HW234577   4.671   5.444   4.668  2.2449  1.1141  0.2230
11321SOL     OW34578   7.036   5.641   4.852 -0.3752  0.2552 -0.1166
11321SOL    HW134579   6.993   5.721   4.882  3.4030  0.8858  4.8806
11321SOL    HW234580   6.981   5.570   4.885 -0.7292  0.9410  0.7995
11322SOL     OW34581   1.043   5.318   4.691 -0.4940 -0.2578 -0.3923
11322SOL    HW134582   1.095   5.367   4.627 -0.8326  0.6699  0.0198
11322SOL    HW234583   0.976   5.274   4.639  0.5649 -1.3129 -0.9039
11323SOL     OW34584   0.717   0.289   6.148  0.7205  0.1898 -0.3058
11323SOL    HW134585   0.806   0.278   6.182  0.5071  1.5747  0.7648
11323SOL    HW234586   0.701   0.383   6.152 -0.7370 -0.0232 -0.6661
11324SOL     OW34587   3.768   5.853   5.681 -0.0255 -0.6332  0.2221
11324SOL    HW134588   3.677   5.858   5.710 -0.6645 -0.2004 -1.7258
11324SOL    HW234589   3.776   5.766   5.641  0.1820 -0.3727 -0.3120
11325SOL     OW34590   2.143   1.867   7.089  0.2263  0.9458 -0.8685
11325SOL    HW134591   2.088   1.912   7.153 -0.9063 -0.4936 -0.7882
11325SOL    HW234592   2.093   1.870   7.007  0.5342  0.6187 -1.0749
11326SOL     OW34593   4.596   7.137   2.686 -0.4113 -0.0777  0.2931
11326SOL    HW134594   4.686   7.145   2.652  0.7330 -0.3446  3.0103
11326SOL    HW234595   4.607   7.133   2.781 -3.4504  1.7794  0.8588
11327SOL     OW34596   0.770   4.585   5.065  0.4118  0.1981 -0.5986
11327SOL    HW134597   0.743   4.573   5.156  0.7250 -1.1645 -0.6671
11327SOL    HW234598   0.845   4.644   5.070  1.3512 -1.0075  0.1832
11328SOL     OW34599   1.006   3.372   0.835 -0.4428 -0.0159 -0.2023
11328SOL    HW134600   0.938   3.305   0.843 -1.4845  1.1583  1.5913
11328SOL    HW234601   0.965   3.452   0.870  1.6633  0.8825  0.3896
11329SOL     OW34602   2.404   5.677   6.703  0.3757  0.4559  0.2973
11329SOL    HW134603   2.486   5.726   6.701  1.0722 -0.7046 -0.6938
11329SOL    HW234604   2.428   5.589   6.733  0.1191 -0.8641 -2.9529
11330SOL     OW34605   6.101   4.941   6.505 -0.1382  0.3567  0.5060
11330SOL    HW134606   6.113   4.848   6.523 -0.9064  0.0146 -0.6920
11330SOL    HW234607   6.188   4.979   6.520 -0.1327 -0.2907  2.3750
11331SOL     OW34608   1.441   3.924   3.019  0.1429  0.2356  0.5291
11331SOL    HW134609   1.505   3.968   3.076 -0.0082 -1.0265  1.7364
11331SOL    HW234610   1.416   3.846   3.068  0.0323 -0.9406 -1.3186
11332SOL     OW34611   6.675   7.082   0.872  0.0027 -0.4490 -0.5366
11332SOL    HW134612   6.741   7.012   0.882 -0.3256 -0.8254 -0.9880
11332SOL    HW234613   6.644   7.097   0.961  1.0618  0.0894 -0.2387
11333SOL     OW34614   0.123   7.238   0.854 -0.3033 -0.0088 -0.0569
11333SOL    HW134615   0.046   7.215   0.802  0.1063 -1.0047 -0.2347
11333SOL    HW234616   0.099   7.321   0.896 -0.0463  1.7525 -3.0859
11334SOL     OW34617   0.081   6.999   6.348  0.1092  0.1907  0.1056
11334SOL    HW134618   0.166   6.956   6.360  0.6972  1.1092 -0.5662
11334SOL    HW234619   0.090   7.083   6.393 -0.9642 -0.2943  1.2680
11335SOL     OW34620   3.066   6.023   6.529  0.3978  0.1349  0.4070
11335SOL    HW134621   3.090   5.932   6.513  0.4912  0.3256 -0.5707
11335SOL    HW234622   3.141   6.074   6.500  0.2246  0.5431  0.6624
11336SOL     OW34623   5.011   6.864   6.335 -0.1431 -0.9033 -0.3124
11336SOL    HW134624   4.950   6.812   6.386  0.7739 -0.4666  1.2931
11336SOL    HW234625   4.974   6.953   6.336 -0.1412 -0.8993 -0.4644
11337SOL     OW34626   5.401   6.062   5.449  0.5337 -0.6253  0.2855
11337SOL    HW134627   5.405   6.093   5.540 -0.7834  1.4853 -0.2843
11337SOL    HW234628   5.410   6.142   5.397  1.8378 -1.8599 -1.4859
11338SOL     OW34629   1.430   0.062   6.557 -0.3226  0.1960 -0.0153
11338SOL    HW134630   1.438  -0.029   6.586  0.5179 -0.0958 -1.1215
11338SOL    HW234631   1.335   0.076   6.550 -0.4889 -0.3345  0.9057
11339SOL     OW34632   2.212   0.550   3.584  0.2346 -0.1135 -0.4094
11339SOL    HW134633   2.278   0.480   3.586 -0.5739 -0.9030 -0.7850
11339SOL    HW234634   2.244   0.611   3.518  1.4278  0.3743  0.5848
11340SOL     OW34635   2.369   2.041   6.937 -0.2515 -0.3658  0.4088
11340SOL    HW134636   2.337   2.131   6.928  1.0091  0.1732  1.1529
11340SOL    HW234637   2.311   2.002   7.002 -0.7812 -0.0964  0.1139
11341SOL     OW34638   4.192   5.947   4.102  0.1650  0.6291  0.0560
11341SOL    HW134639   4.225   6.030   4.138  1.3387 -0.4944  1.7493
11341SOL    HW234640   4.267   5.910   4.055  0.4385 -0.5477  1.3611
11342SOL     OW34641   0.266   4.734   2.510  0.1339  0.1208 -0.1722
11342SOL    HW134642   0.190   4.675   2.506  0.8445 -0.7652 -3.3017
11342SOL    HW234643   0.341   4.676   2.515  0.7175  0.9803  2.1704
11343SOL     OW34644   0.372   6.997   3.011 -0.6157  0.1604 -0.3443
11343SOL    HW134645   0.304   7.059   2.982 -0.2681  0.4099 -0.6299
11343SOL    HW234646   0.444   7.010   2.950 -0.6529 -0.7449 -0.5912
11344SOL     OW34647   1.595   5.270   1.522  0.0129 -0.5496  0.1593
11344SOL    HW134648   1.684   5.235   1.528 -0.5619 -2.1987 -0.3855
11344SOL    HW234649   1.606   5.355   1.480  1.3542 -0.6090  0.3428
11345SOL     OW34650   6.222   4.043   4.776  0.0845  0.4812  0.0547
11345SOL    HW134651   6.240   4.070   4.685  1.2131  1.2901  0.4983
11345SOL    HW234652   6.207   4.125   4.822 -0.1962  0.0878  0.6736
11346SOL     OW34653   2.301   4.266   5.371 -0.0151  0.2034 -0.1396
11346SOL    HW134654   2.302   4.271   5.275 -2.1702  0.0391 -0.2242
11346SOL    HW234655   2.240   4.336   5.397 -0.1854 -0.3750  1.0431
11347SOL     OW34656   4.572   4.320   2.954 -0.4563 -0.0811  0.0268
11347SOL    HW134657   4.609   4.288   2.872 -1.1107  0.5945 -0.5494
11347SOL    HW234658   4.484   4.350   2.930 -1.2096 -1.1726  1.2382
11348SOL     OW34659   7.197   3.535   4.749 -1.3144 -0.7028 -0.1888
11348SOL    HW134660   7.174   3.502   4.662  0.7503 -2.0200 -0.2957
11348SOL    HW234661   7.280   3.580   4.736 -0.5123 -1.7123  1.2618
11349SOL     OW34662   4.349   1.423   4.031 -0.7246  0.3169  0.3614
11349SOL    HW134663   4.444   1.417   4.038 -0.7943 -0.8921  0.4230
11349SOL    HW234664   4.321   1.453   4.118 -0.3368  1.7811  0.0069
11350SOL     OW34665   5.157   2.555   1.626 -0.5569 -0.1013  0.3449
11350SOL    HW134666   5.110   2.527   1.547 -0.8778  0.4725  0.3317
11350SOL    HW234667   5.148   2.650   1.627  1.1771  0.0933 -0.0214
11351SOL     OW34668   0.317   3.383   3.665 -0.0123  0.7987 -0.0833
11351SOL    HW134669   0.236   3.364   3.713 -0.8965 -1.4062 -2.2259
11351SOL    HW234670   0.378   3.315   3.694  0.5415  1.4329  0.2668
11352SOL     OW34671   5.195   4.235   6.071 -0.3543  0.0486  0.5043
11352SOL    HW134672   5.166   4.171   6.006  2.6074 -1.0711  0.1618
11352SOL    HW234673   5.121   4.295   6.080 -0.5259  1.0953 -4.8949
11353SOL     OW34674   5.263   5.765   4.157  0.1881  0.0282 -0.1525
11353SOL    HW134675   5.300   5.690   4.110  0.6871 -0.3804  0.8553
11353SOL    HW234676   5.188   5.728   4.204  0.4595  0.1530  0.3783
11354SOL     OW34677   7.127   3.235   5.506 -0.1025 -0.2355  0.0548
11354SOL    HW134678   7.057   3.257   5.567  2.1805 -1.2211  3.3194
11354SOL    HW234679   7.173   3.318   5.491  2.3530 -0.5360  4.1086
11355SOL     OW34680   3.056   1.381   4.625 -0.4730 -0.1894  0.5772
11355SOL    HW134681   3.111   1.459   4.619  2.0436 -1.8734  0.3222
11355SOL    HW234682   3.052   1.361   4.718  1.2450 -1.2605  0.4619
11356SOL     OW34683   6.846   4.830   0.790 -0.0373  0.8087  0.0954
11356SOL    HW134684   6.912   4.774   0.748  0.3659  1.1402  0.2814
11356SOL    HW234685   6.767   4.817   0.738 -0.1468 -0.4872  0.5491
11357SOL     OW34686   1.056   1.767   3.290 -0.8006  0.0051  0.0637
11357SOL    HW134687   1.138   1.778   3.338 -0.2355 -0.7569 -0.7082
11357SOL    HW234688   1.067   1.819   3.210 -1.5373  0.8426  0.4786
11358SOL     OW34689   7.123   5.356   0.142 -0.1740 -0.2855 -0.4340
11358SOL    HW134690   7.090   5.416   0.209  0.3410  0.0741 -0.5014
11358SOL    HW234691   7.103   5.399   0.059 -1.6270 -1.1431 -0.5569
11359SOL     OW34692   1.225   0.686   2.726 -0.2437  0.6132 -0.0004
11359SOL    HW134693   1.228   0.721   2.637  1.2366  0.4205 -0.0437
11359SOL    HW234694   1.226   0.591   2.714 -2.0284  0.5296  0.1918
11360SOL     OW34695   5.574   1.009   2.154  0.3452  0.7332 -0.5342
11360SOL    HW134696   5.528   1.079   2.200  0.6843  1.5776 -1.4693
11360SOL    HW234697   5.519   0.990   2.078  1.4911  1.7070 -1.6242
11361SOL     OW34698   7.142   0.928   5.573 -0.3325  0.2638  0.2478
11361SOL    HW134699   7.060   0.928   5.524  0.5301  1.7568 -1.3233
11361SOL    HW234700   7.190   0.852   5.540 -0.5291  0.1860  0.1413
11362SOL     OW34701   3.081   0.417   0.517 -0.5304  0.0978 -0.5282
11362SOL    HW134702   3.056   0.486   0.455 -0.0105  0.0342 -0.8234
11362SOL    HW234703   3.075   0.458   0.603 -0.8359  0.3216 -0.6543
11363SOL     OW34704   6.326   2.156   7.191 -0.0964 -0.3168  0.3891
11363SOL    HW134705   6.281   2.125   7.112 -2.2553 -0.0222  1.4443
11363SOL    HW234706   6.335   2.250   7.177 -0.3843 -0.2802  0.4430
11364SOL     OW34707   5.504   0.519   0.245  0.1665  0.4869 -0.3017
11364SOL    HW134708   5.480   0.552   0.332  0.1607  1.2840 -0.5970
11364SOL    HW234709   5.574   0.455   0.262  0.3255  0.8061  0.2760
11365SOL     OW34710   3.331   0.142   6.678  0.3732 -0.4195 -0.0586
11365SOL    HW134711   3.275   0.127   6.754  0.4779  1.0424  0.3397
11365SOL    HW234712   3.273   0.132   6.603 -0.0082 -0.6819  0.2630
11366SOL     OW34713   4.095   0.184   6.257  0.2358 -0.1824  0.1557
11366SOL    HW134714   4.131   0.182   6.168  0.7227 -0.5979  0.3578
11366SOL    HW234715   4.049   0.267   6.262 -0.2681 -0.3918 -0.6744
11367SOL     OW34716   5.002   0.366   1.102  0.0821 -0.0141 -0.7357
11367SOL    HW134717   5.037   0.403   1.021 -0.0757 -1.0751 -1.3155
11367SOL    HW234718   5.044   0.280   1.109 -0.4197 -0.2143 -0.0494
11368SOL     OW34719   4.165   0.769   6.180 -0.1553 -0.0231 -1.1911
11368SOL    HW134720   4.107   0.846   6.182 -1.2139 -0.7932 -1.5580
11368SOL    HW234721   4.138   0.720   6.103  2.3871  0.6067 -2.6064
11369SOL     OW34722   6.134   6.513   3.714  0.1154  0.2661  0.3181
11369SOL    HW134723   6.184   6.577   3.763  0.6050 -0.5576  0.9264
11369SOL    HW234724   6.115   6.555   3.630  0.3955  1.2011  0.7179
11370SOL     OW34725   3.532   3.104   2.668  0.2287 -0.1138  0.4044
11370SOL    HW134726   3.476   3.066   2.601  0.5922  0.7214 -0.3964
11370SOL    HW234727   3.503   3.063   2.750  1.1974 -2.8111 -0.4848
11371SOL     OW34728   5.157   3.937   2.868  0.1040  0.9173  0.0018
11371SOL    HW134729   5.251   3.931   2.855 -0.1011  1.3452 -2.1671
11371SOL    HW234730   5.125   3.847   2.860  0.2670  0.8385  0.2258
11372SOL     OW34731   0.353   4.444   4.361  0.1548 -0.2289 -0.1387
11372SOL    HW134732   0.433   4.392   4.357  0.9810  1.0520 -1.6712
11372SOL    HW234733   0.378   4.529   4.325 -2.1294 -0.1012 -1.6361
11373SOL     OW34734   2.680   1.496   2.237 -0.3895  0.6611 -0.5990
11373SOL    HW134735   2.633   1.496   2.154  0.4340 -0.9347 -1.1136
11373SOL    HW234736   2.614   1.475   2.303 -0.5967 -0.6130 -1.1896
11374SOL     OW34737   7.170   5.518   1.632  0.3971  0.0156  0.1803
11374SOL    HW134738   7.106   5.552   1.570  0.6768 -0.5993 -0.4550
11374SOL    HW234739   7.172   5.583   1.702  0.2589  0.8421 -0.5686
11375SOL     OW34740   3.519   3.109   5.306 -0.2851  0.1123 -0.1404
11375SOL    HW134741   3.530   3.026   5.259  0.3668 -0.0668  0.2994
11375SOL    HW234742   3.592   3.110   5.368 -0.4351  0.9037  0.0292
11376SOL     OW34743   5.969   4.888   4.978  0.3316 -0.1520  0.3664
11376SOL    HW134744   5.953   4.893   5.072 -0.5654 -1.3699  0.3067
11376SOL    HW234745   6.015   4.805   4.965  1.5704  0.5955 -0.1437
11377SOL     OW34746   6.247   3.609   7.159  0.1963  0.7742  0.0415
11377SOL    HW134747   6.334   3.568   7.163 -0.7400 -1.2758  3.5659
11377SOL    HW234748   6.189   3.539   7.131 -0.6722  1.3578  0.3534
11378SOL     OW34749   0.227   1.548   5.005  0.4868 -0.5716 -0.2876
11378SOL    HW134750   0.184   1.538   4.921  0.4738  0.5676 -0.4384
11378SOL    HW234751   0.157   1.567   5.067  0.5105 -1.2731 -0.0360
11379SOL     OW34752   3.203   3.491   6.819  0.2522 -0.2235 -0.0140
11379SOL    HW134753   3.170   3.471   6.907 -0.7316  1.3305 -0.0055
11379SOL    HW234754   3.161   3.573   6.795  2.1115  0.4650 -1.1114
11380SOL     OW34755   3.029   0.362   5.673  0.2607  0.2046 -0.4301
11380SOL    HW134756   2.991   0.277   5.695  0.5556  0.2406  0.2550
11380SOL    HW234757   3.013   0.372   5.579  0.9611 -0.9872 -0.7006
11381SOL     OW34758   5.836   4.317   0.742  0.1199 -0.8927  0.0562
11381SOL    HW134759   5.806   4.277   0.824  0.1480 -0.7020  0.1590
11381SOL    HW234760   5.770   4.291   0.678 -0.7889  0.3113  0.4719
11382SOL     OW34761   4.979   6.534   5.304 -0.1455  0.2804 -0.6986
11382SOL    HW134762   4.970   6.527   5.209 -0.6831  0.0867 -0.6409
11382SOL    HW234763   5.015   6.621   5.319 -0.5869  0.5306 -1.0530
11383SOL     OW34764   2.975   6.685   6.058  0.1918  0.0477 -0.0198
11383SOL    HW134765   3.013   6.737   6.129 -2.1600  0.7522  0.7934
11383SOL    HW234766   2.956   6.749   5.989  0.1222 -0.2370 -0.2683
11384SOL     OW34767   2.780   5.706   6.560  0.1408  0.1520  0.3673
11384SOL    HW134768   2.764   5.775   6.495  0.1806 -0.8599 -0.7564
11384SOL    HW234769   2.726   5.732   6.635 -1.3936  0.4137 -0.7546
11385SOL     OW34770   2.930   6.457   6.616 -0.1558 -0.0034  0.5450
11385SOL    HW134771   2.907   6.508   6.693 -0.1245  0.3991  0.2928
11385SOL    HW234772   2.960   6.522   6.552 -1.4522 -0.1870 -0.2868
11386SOL     OW34773   5.479   3.276   2.039 -0.6884 -0.1877  0.0724
11386SOL    HW134774   5.435   3.360   2.052 -1.4844 -0.5325 -0.2946
11386SOL    HW234775   5.475   3.261   1.945  1.6305  0.4988 -0.1897
11387SOL     OW34776   3.668   4.752   1.264  0.2920  0.1391  0.4616
11387SOL    HW134777   3.650   4.781   1.353 -1.5482  0.3690  0.0543
11387SOL    HW234778   3.759   4.724   1.266  0.6405  1.2315  2.1163
11388SOL     OW34779   6.626   0.678   5.479  0.4006 -0.4674  0.0307
11388SOL    HW134780   6.647   0.723   5.397  1.0032  0.3898  0.6279
11388SOL    HW234781   6.534   0.700   5.495  0.6797  0.5556  0.2990
11389SOL     OW34782   6.567   2.255   6.753 -0.5258 -0.5729 -0.3723
11389SOL    HW134783   6.522   2.235   6.671  0.4385 -1.2949 -0.7564
11389SOL    HW234784   6.599   2.170   6.784 -1.1911 -0.3762  0.9682
11390SOL     OW34785   1.309   7.082   5.067 -0.5864  0.1095  0.6206
11390SOL    HW134786   1.333   7.168   5.101  1.8498  0.2214 -1.0508
11390SOL    HW234787   1.360   7.020   5.119  1.7771  0.1631 -1.4204
11391SOL     OW34788   4.906   5.556   5.462  0.3799  0.1889 -0.3386
11391SOL    HW134789   4.925   5.632   5.407  1.7407 -0.4631 -0.7940
11391SOL    HW234790   4.893   5.594   5.550  1.2136  0.9424 -0.5219
11392SOL     OW34791   2.082   6.915   6.441 -0.2318 -0.4822 -0.4255
11392SOL    HW134792   2.110   6.836   6.395  0.6570  0.6056 -1.8444
11392SOL    HW234793   2.161   6.968   6.448 -0.8651  0.4045  0.2683
11393SOL     OW34794   4.438   2.051   1.654  0.2869  0.2986 -0.0612
11393SOL    HW134795   4.456   2.126   1.597 -1.1061  0.7825  0.1157
11393SOL    HW234796   4.431   1.977   1.593 -1.0180  0.7844 -0.5322
11394SOL     OW34797   1.406   4.492   2.839 -0.2772 -0.4432 -0.3680
11394SOL    HW134798   1.335   4.557   2.835 -0.4234 -0.6083 -0.4788
11394SOL    HW234799   1.385   4.439   2.916 -1.2134 -1.5588 -1.3395
11395SOL     OW34800   4.916   6.195   0.583  0.3951 -0.5641 -0.0718
11395SOL    HW134801   4.971   6.157   0.514 -1.5191  0.3775 -2.2160
11395SOL    HW234802   4.924   6.289   0.572 -0.9268 -0.4045  0.1669
11396SOL     OW34803   2.025   2.982   2.229  0.8403  0.4712  0.1592
11396SOL    HW134804   1.956   3.044   2.252 -1.0391 -1.5646  0.3103
11396SOL    HW234805   2.041   2.932   2.309 -1.1260 -2.3336 -1.0087
11397SOL     OW34806   5.858   0.733   3.179  0.0590 -0.4547  0.3285
11397SOL    HW134807   5.889   0.753   3.090  1.2040 -0.8190  0.6171
11397SOL    HW234808   5.827   0.816   3.213 -1.9563 -0.6078 -0.9695
11398SOL     OW34809   1.568   1.058   3.677  0.4003 -0.3394  0.1907
11398SOL    HW134810   1.625   1.122   3.635  0.5380 -0.1820  0.6085
11398SOL    HW234811   1.618   0.977   3.675 -0.2050 -0.7026 -1.2984
11399SOL     OW34812   6.778   4.507   3.684 -0.5149  0.1766  0.1978
11399SOL    HW134813   6.730   4.427   3.703 -1.6196  0.4848 -1.1633
11399SOL    HW234814   6.852   4.505   3.745 -0.5476 -1.8324  0.2538
11400SOL     OW34815   5.088   2.558   5.441  0.3588  0.7610  0.0201
11400SOL    HW134816   5.024   2.507   5.491  0.0162  0.2272 -0.9328
11400SOL    HW234817   5.160   2.497   5.425 -0.0117  0.5877 -1.0450
11401SOL     OW34818   3.631   2.406   0.114 -0.2188  0.7404 -0.2386
11401SOL    HW134819   3.536   2.403   0.126 -0.3154  0.8896 -0.9211
11401SOL    HW234820   3.643   2.443   0.027  0.4551  0.2434 -0.3697
11402SOL     OW34821   3.554   2.291   3.416 -0.2066 -0.4596 -0.1828
11402SOL    HW134822   3.494   2.317   3.346 -0.6327 -1.5577 -0.2376
11402SOL    HW234823   3.639   2.327   3.390 -0.0212 -2.0772 -2.0420
11403SOL     OW34824   4.418   2.905   3.360 -0.2413  0.0802 -0.3558
11403SOL    HW134825   4.412   2.915   3.265  2.3223  1.6035 -0.4652
11403SOL    HW234826   4.376   2.984   3.395 -1.0676 -0.4168 -0.1856
11404SOL     OW34827   6.196   3.800   3.169 -0.5969  0.2627 -0.0718
11404SOL    HW134828   6.277   3.755   3.194  0.0809  1.5325  0.0989
11404SOL    HW234829   6.136   3.780   3.241  0.0875  0.6259  0.6268
11405SOL     OW34830   4.173   0.945   6.616  0.5790 -0.5239  0.0286
11405SOL    HW134831   4.174   0.882   6.688  2.0121 -0.8189 -0.2207
11405SOL    HW234832   4.163   0.892   6.538  1.1470 -0.3929 -0.1367
11406SOL     OW34833   0.491   4.696   5.446 -0.7689 -0.2452  0.1025
11406SOL    HW134834   0.501   4.760   5.517 -0.6345 -0.4811  0.2988
11406SOL    HW234835   0.453   4.746   5.374 -1.1623 -0.0628  0.4306
11407SOL     OW34836   2.851   7.017   0.411 -0.0805 -0.2583 -0.1320
11407SOL    HW134837   2.806   7.002   0.327  0.5433  0.0511 -0.5262
11407SOL    HW234838   2.843   6.934   0.457 -1.9097  0.0642  0.2192
11408SOL     OW34839   5.882   0.222   5.271  0.3397 -0.4757 -0.3727
11408SOL    HW134840   5.903   0.152   5.333  0.0484  0.1249  0.4245
11408SOL    HW234841   5.804   0.264   5.308  1.0221  0.8259 -0.3605
11409SOL     OW34842   1.225   1.057   6.503  0.1181 -0.1751 -0.1919
11409SOL    HW134843   1.149   1.078   6.558  0.3943  1.7337 -0.4668
11409SOL    HW234844   1.221   0.962   6.493 -3.3057 -0.0300 -1.7331
11410SOL     OW34845   1.653   2.271   4.371  0.0494  0.1004  0.0357
11410SOL    HW134846   1.725   2.323   4.405  0.7597 -1.6228  1.3397
11410SOL    HW234847   1.673   2.259   4.278  0.1544  1.6214 -0.1576
11411SOL     OW34848   1.863   4.891   3.424 -0.3572 -0.5128 -0.5130
11411SOL    HW134849   1.768   4.889   3.412 -0.4388  0.6845 -0.2662
11411SOL    HW234850   1.884   4.985   3.425  0.6494 -0.7347  0.8274
11412SOL     OW34851   6.127   3.142   4.570  0.7517 -0.3471  0.3585
11412SOL    HW134852   6.119   3.167   4.661 -1.5043 -0.9512  0.3855
11412SOL    HW234853   6.151   3.222   4.524  0.8935  0.1826  1.3551
11413SOL     OW34854   1.601   6.876   1.160  0.2149 -0.0893 -0.3216
11413SOL    HW134855   1.519   6.827   1.164  0.6264 -0.8180 -0.7284
11413SOL    HW234856   1.656   6.837   1.227  0.2164  0.4430 -0.0044
11414SOL     OW34857   2.945   1.861   5.061  0.1840 -0.4104 -0.2026
11414SOL    HW134858   2.871   1.804   5.042 -0.3252 -0.4829  1.7208
11414SOL    HW234859   3.019   1.802   5.071 -0.2209 -0.7214  1.1993
11415SOL     OW34860   7.078   3.962   2.178  0.0359 -0.2810 -0.1099
11415SOL    HW134861   7.047   3.890   2.233  2.7627 -0.8514  0.8301
11415SOL    HW234862   7.024   3.956   2.099 -0.0048 -3.2663  0.0015
11416SOL     OW34863   3.529   5.418   0.609  0.0645  0.4515  0.5797
11416SOL    HW134864   3.555   5.354   0.543 -1.6516  1.5559 -1.2880
11416SOL    HW234865   3.534   5.503   0.563 -1.9786  1.1709  1.5774
11417SOL     OW34866   0.134   2.594   5.990 -0.0368 -0.0858  0.2449
11417SOL    HW134867   0.187   2.618   6.066  0.0352  0.0955  0.1357
11417SOL    HW234868   0.044   2.595   6.022 -0.4099  3.6130 -0.5564
11418SOL     OW34869   0.321   6.853   4.611 -0.0120 -0.0139 -0.4171
11418SOL    HW134870   0.382   6.779   4.610  1.7556  1.3692  0.3449
11418SOL    HW234871   0.269   6.840   4.690  2.0300  0.8251  1.1620
11419SOL     OW34872   6.159   6.860   0.768 -0.4819  0.1318  0.1398
11419SOL    HW134873   6.248   6.863   0.804 -0.2854  1.9312 -0.3891
11419SOL    HW234874   6.171   6.860   0.673 -0.9754  2.5905 -0.0054
11420SOL     OW34875   3.024   6.185   0.726 -0.0136 -0.4674 -0.1650
11420SOL    HW134876   3.031   6.159   0.634 -0.2135 -0.4891 -0.1741
11420SOL    HW234877   3.036   6.280   0.725 -0.6124 -0.3881 -0.2841
11421SOL     OW34878   5.437   3.938   2.891  0.0906  0.2821 -0.0523
11421SOL    HW134879   5.532   3.938   2.877  0.5855  3.8125  2.0013
11421SOL    HW234880   5.424   3.882   2.967  0.4047 -0.5958 -0.6199
11422SOL     OW34881   6.740   1.561   4.125 -0.3078  0.0417  0.1638
11422SOL    HW134882   6.741   1.546   4.220  0.6611  1.3050  0.3794
11422SOL    HW234883   6.664   1.617   4.111 -1.5499 -1.6215 -0.0983
11423SOL     OW34884   3.882   2.441   2.130  0.1569  0.2466 -0.2369
11423SOL    HW134885   3.794   2.461   2.162 -0.7162  0.7438 -2.6687
11423SOL    HW234886   3.913   2.369   2.185 -1.7857  0.0543  0.6710
11424SOL     OW34887   3.610   3.885   3.156  0.0897  0.5629 -0.1413
11424SOL    HW134888   3.531   3.889   3.209  1.1489 -0.0264  1.5690
11424SOL    HW234889   3.640   3.794   3.165  1.2212  0.8987 -0.3421
11425SOL     OW34890   6.551   3.942   5.961 -0.0949 -0.0587 -0.2735
11425SOL    HW134891   6.511   3.979   6.040 -0.0150  0.2554 -0.3788
11425SOL    HW234892   6.494   3.869   5.938  0.1721 -0.4809  0.3753
11426SOL     OW34893   4.645   3.645   2.568 -0.7238  0.2319 -0.0913
11426SOL    HW134894   4.685   3.573   2.615  0.2795 -1.2336 -2.9358
11426SOL    HW234895   4.578   3.679   2.627  0.4763 -1.3618  2.3297
11427SOL     OW34896   4.250   7.173   1.850 -0.6604 -0.1850  0.1727
11427SOL    HW134897   4.341   7.178   1.820 -0.5071  0.3114  0.6948
11427SOL    HW234898   4.226   7.081   1.840 -0.3828 -0.1628 -0.7838
11428SOL     OW34899   5.822   3.928   3.292 -0.1206  0.1794 -0.2676
11428SOL    HW134900   5.868   3.984   3.355 -1.2819  0.5711  0.2478
11428SOL    HW234901   5.797   3.988   3.221 -0.7162  0.1673 -0.0669
11429SOL     OW34902   1.610   2.926   5.189 -0.3999  0.0911 -0.0738
11429SOL    HW134903   1.609   3.011   5.233  4.6166  1.8593 -2.5448
11429SOL    HW234904   1.581   2.945   5.100 -1.0642 -1.2831 -0.1773
11430SOL     OW34905   0.801   3.778   2.579 -0.0860  0.2554  0.2570
11430SOL    HW134906   0.708   3.801   2.585 -0.1311  0.5220 -1.0920
11430SOL    HW234907   0.835   3.792   2.667 -1.0441  1.3966  0.4708
11431SOL     OW34908   3.926   5.866   6.782 -0.5668  0.1297 -0.2050
11431SOL    HW134909   3.936   5.951   6.738 -2.7876 -0.0766 -1.2106
11431SOL    HW234910   3.841   5.872   6.826 -0.0789 -1.0609  0.9694
11432SOL     OW34911   4.441   3.783   4.165 -0.5554  0.2723  0.0939
11432SOL    HW134912   4.514   3.769   4.226 -0.2694  0.5855 -0.1723
11432SOL    HW234913   4.363   3.785   4.220 -0.5162 -1.3939  0.2536
11433SOL     OW34914   6.038   2.705   5.039  0.3324 -0.2645  0.2402
11433SOL    HW134915   6.023   2.756   4.959  1.4354 -0.8036 -0.3376
11433SOL    HW234916   6.132   2.689   5.040  0.0082 -2.4786  0.2698
11434SOL     OW34917   5.813   1.016   3.238  0.4810 -0.4097 -0.1161
11434SOL    HW134918   5.845   1.081   3.301  1.0085 -0.9930  0.2290
11434SOL    HW234919   5.762   1.067   3.175  1.2770  0.4051 -0.1214
11435SOL     OW34920   4.624   4.049   3.526  0.3362 -0.4283 -0.5013
11435SOL    HW134921   4.669   4.056   3.610  0.7304  0.6810 -0.7858
11435SOL    HW234922   4.536   4.020   3.548  1.0459 -2.2965  0.1004
11436SOL     OW34923   2.184   0.727   6.552  0.5217  0.9504  0.1787
11436SOL    HW134924   2.199   0.704   6.460 -0.0811  1.8657 -0.1593
11436SOL    HW234925   2.161   0.644   6.594  0.3428  0.6034 -0.5862
11437SOL     OW34926   2.382   6.911   4.780 -0.2305  0.4612 -0.1774
11437SOL    HW134927   2.384   6.818   4.761  0.6830  0.7638 -1.6785
11437SOL    HW234928   2.328   6.918   4.860  2.2732 -1.6286  1.8575
11438SOL     OW34929   6.552   2.453   3.915  0.0960  0.1815 -0.2397
11438SOL    HW134930   6.625   2.393   3.903 -0.5570 -1.1913  1.9574
11438SOL    HW234931   6.570   2.526   3.856  2.5173 -0.7282 -0.7348
11439SOL     OW34932   2.735   1.818   4.296 -0.2350 -0.4719 -0.2876
11439SOL    HW134933   2.731   1.740   4.241  0.1593 -0.1015 -0.8556
11439SOL    HW234934   2.693   1.792   4.378 -0.4709 -1.1543 -0.6172
11440SOL     OW34935   5.538   2.542   6.583  0.2227 -0.1145 -0.1800
11440SOL    HW134936   5.471   2.606   6.609  0.7715  0.1100  0.7082
11440SOL    HW234937   5.620   2.579   6.613  0.5575 -1.2045  0.3016
11441SOL     OW34938   0.804   5.553   1.770 -0.4725  0.1322  0.5594
11441SOL    HW134939   0.832   5.477   1.720  0.8527  0.6440  0.4614
11441SOL    HW234940   0.761   5.610   1.705  1.4940  0.9248 -0.1317
11442SOL     OW34941   0.268   2.488   4.514  0.0250 -0.0223  0.2787
11442SOL    HW134942   0.264   2.415   4.574 -0.0717  0.2280  0.5802
11442SOL    HW234943   0.200   2.471   4.449  1.0553 -1.0088 -0.5900
11443SOL     OW34944   1.581   1.682   1.601 -0.4709  0.2943  0.0525
11443SOL    HW134945   1.521   1.712   1.670 -1.0368  0.8841 -0.6683
11443SOL    HW234946   1.557   1.736   1.525  0.2985 -0.1810 -0.5314
11444SOL     OW34947   6.808   6.422   6.061  0.3761 -0.7756 -0.1839
11444SOL    HW134948   6.725   6.463   6.039  0.7362 -0.7892 -1.7174
11444SOL    HW234949   6.787   6.329   6.073 -0.1671 -0.4471  1.6583
11445SOL     OW34950   2.270   3.347   1.667 -0.2409 -0.2468 -0.4074
11445SOL    HW134951   2.360   3.320   1.650  0.7416  2.0720  0.7516
11445SOL    HW234952   2.254   3.318   1.757 -0.5305 -0.3151 -0.4799
11446SOL     OW34953   6.555   2.900   4.819  0.0908  0.0486 -0.2163
11446SOL    HW134954   6.508   2.982   4.805  0.5761  0.4357  0.3578
11446SOL    HW234955   6.490   2.832   4.801 -0.9900  0.5702  1.4047
11447SOL     OW34956   2.845   2.159   4.705 -0.0337 -0.0838  0.7311
11447SOL    HW134957   2.824   2.068   4.725  0.5608 -0.1170  1.2449
11447SOL    HW234958   2.908   2.155   4.633 -0.9254 -0.0254 -0.0687
11448SOL     OW34959   1.265   3.927   5.880  0.2785 -0.5665 -0.3314
11448SOL    HW134960   1.244   4.017   5.855  0.4457 -0.1440  0.9476
11448SOL    HW234961   1.218   3.872   5.817 -0.4376  0.4099 -0.6637
11449SOL     OW34962   5.452   5.447   5.642  0.2206 -0.8125  0.7191
11449SOL    HW134963   5.528   5.461   5.698 -0.2470  1.6472  0.8601
11449SOL    HW234964   5.380   5.491   5.688 -0.9257 -1.5939 -0.2387
11450SOL     OW34965   0.522   3.808   0.093  0.1240 -0.1995  0.3662
11450SOL    HW134966   0.544   3.764   0.011  0.1144 -0.2674  0.4005
11450SOL    HW234967   0.432   3.839   0.080 -0.2426 -1.0909  0.7305
11451SOL     OW34968   2.883   3.641   2.505  0.2436  0.2056 -0.5650
11451SOL    HW134969   2.877   3.702   2.432  1.3179 -0.1217 -0.9423
11451SOL    HW234970   2.968   3.599   2.494 -0.4012 -1.2362 -0.2002
11452SOL     OW34971   0.669   1.698   4.567  0.1188  0.5487  0.0500
11452SOL    HW134972   0.619   1.674   4.645  1.1276 -2.3707 -0.1057
11452SOL    HW234973   0.618   1.663   4.494  1.0481 -0.0925 -0.3011
11453SOL     OW34974   5.305   6.232   6.943 -0.4174 -0.1990  0.1065
11453SOL    HW134975   5.239   6.189   6.890 -0.4633 -0.9072  0.7310
11453SOL    HW234976   5.324   6.313   6.895  0.3966 -1.3429 -1.6341
11454SOL     OW34977   0.700   1.967   6.648  0.0521  0.7697 -0.0544
11454SOL    HW134978   0.731   1.887   6.690 -1.1123  0.8459  0.9854
11454SOL    HW234979   0.736   1.962   6.559 -1.1067 -1.5942 -0.4778
11455SOL     OW34980   2.990   1.603   0.036  0.0144  0.2344 -0.2220
11455SOL    HW134981   3.024   1.542  -0.030 -0.5465 -0.2152 -0.1043
11455SOL    HW234982   3.069   1.637   0.079  0.3253 -1.1157  0.3374
11456SOL     OW34983   5.107   5.268   4.124  0.4619 -0.3141 -0.6586
11456SOL    HW134984   5.043   5.229   4.184  0.7447  1.1968  0.6862
11456SOL    HW234985   5.068   5.351   4.098  2.5394  1.5159  1.6136
11457SOL     OW34986   0.490   5.735   6.197 -0.1766 -0.0410  0.4084
11457SOL    HW134987   0.523   5.754   6.285 -0.9064 -0.8898  0.8861
11457SOL    HW234988   0.402   5.773   6.196 -0.0883  0.1661 -0.0457
11458SOL     OW34989   5.037   5.659   4.276 -0.1681  0.2691  0.2100
11458SOL    HW134990   5.001   5.748   4.285 -0.3854 -0.0201  2.9304
11458SOL    HW234991   5.045   5.627   4.366  1.4283 -1.8934 -0.6225
11459SOL     OW34992   2.729   1.184   4.152 -0.1586  0.5338 -0.0019
11459SOL    HW134993   2.716   1.137   4.234  1.9845 -1.7951 -0.8705
11459SOL    HW234994   2.794   1.251   4.173 -0.9033  1.0990  0.5517
11460SOL     OW34995   6.115   2.874   3.339 -0.2340  0.2985  0.3220
11460SOL    HW134996   6.033   2.851   3.296  1.0729 -0.0498 -2.1388
11460SOL    HW234997   6.090   2.938   3.405 -2.9146 -2.2527  2.0207
11461SOL     OW34998   0.310   4.121   3.854 -0.2105  0.2684 -0.1469
11461SOL    HW134999   0.270   4.035   3.872 -1.7694  1.2088  1.2195
11461SOL    HW235000   0.297   4.170   3.935  2.1725  1.2696 -0.3093
11462SOL     OW35001   6.060   1.271   2.248  0.1012 -0.1356 -0.7154
11462SOL    HW135002   5.969   1.260   2.223 -0.7196 -0.2620  1.9815
11462SOL    HW235003   6.071   1.366   2.258 -0.5968 -0.2351  1.5516
11463SOL     OW35004   0.391   0.344   0.452 -0.5384 -0.1251 -0.1311
11463SOL    HW135005   0.429   0.286   0.518 -0.6644  1.2619  1.2310
11463SOL    HW235006   0.463   0.402   0.426 -0.8971  0.4217  0.0591
11464SOL     OW35007   5.516   1.138   4.051  0.1482 -0.0143  0.3695
11464SOL    HW135008   5.575   1.081   4.100  0.0470 -0.3749  0.0756
11464SOL    HW235009   5.428   1.104   4.071  0.0293  0.5392  0.8344
11465SOL     OW35010   5.840   2.981   0.215 -0.1366 -0.0522 -0.1315
11465SOL    HW135011   5.906   2.915   0.235  0.3001  0.6730  0.8997
11465SOL    HW235012   5.763   2.931   0.187  0.4647 -0.9501 -0.2094
11466SOL     OW35013   5.898   5.700   0.679 -0.2126 -0.0596  0.2486
11466SOL    HW135014   5.935   5.635   0.739  2.1600 -1.3731 -2.4433
11466SOL    HW235015   5.817   5.660   0.647 -0.2385 -0.4111  0.7403
11467SOL     OW35016   2.873   2.009   3.218 -0.2991 -0.6189 -0.0577
11467SOL    HW135017   2.863   2.064   3.296  1.3597  0.2588 -0.4224
11467SOL    HW235018   2.874   1.919   3.253 -2.7826 -0.4858  0.5694
11468SOL     OW35019   2.511   3.262   5.661 -0.3397 -0.6830  0.4856
11468SOL    HW135020   2.517   3.351   5.625  1.4537 -1.3955 -1.1488
11468SOL    HW235021   2.439   3.222   5.612 -0.4355 -0.4448  0.4306
11469SOL     OW35022   5.869   3.546   3.864  0.3582  0.6649  0.1053
11469SOL    HW135023   5.788   3.597   3.872 -0.0065  0.3218 -1.1276
11469SOL    HW235024   5.840   3.455   3.873  0.4328  0.4811 -1.2433
11470SOL     OW35025   7.026   6.677   1.222 -0.3796  0.0187 -0.4928
11470SOL    HW135026   7.068   6.762   1.238 -0.8479 -0.0271  1.0962
11470SOL    HW235027   7.099   6.616   1.214 -0.0585  0.0979  1.3145
11471SOL     OW35028   2.820   0.127   7.209  0.0632 -0.4731  0.3335
11471SOL    HW135029   2.766   0.147   7.133  0.8158 -0.0471 -0.1021
11471SOL    HW235030   2.789   0.186   7.277  1.8497  1.8985 -0.7574
11472SOL     OW35031   5.370   1.325   2.073 -0.2573 -0.4169  0.1694
11472SOL    HW135032   5.367   1.269   2.150 -0.6337 -0.2890  0.2498
11472SOL    HW235033   5.319   1.278   2.007  0.9795 -1.0621 -0.3691
11473SOL     OW35034   7.080   6.977   1.536  0.1527  0.1659  0.8145
11473SOL    HW135035   7.104   6.893   1.575 -0.0451 -0.0781  0.4160
11473SOL    HW235036   7.072   7.037   1.610  0.9982  0.0101  1.0419
11474SOL     OW35037   6.337   0.044   4.504  0.2218  0.4842 -0.1840
11474SOL    HW135038   6.252   0.048   4.459 -0.3504 -0.3865  0.7772
11474SOL    HW235039   6.334  -0.038   4.553  1.8077  0.2103 -0.4833
11475SOL     OW35040   4.591   4.399   4.293  0.0111  0.0185  0.0104
11475SOL    HW135041   4.651   4.336   4.331  0.6522 -0.1277 -1.1837
11475SOL    HW235042   4.647   4.461   4.246 -0.7455 -0.1396 -1.1469
11476SOL     OW35043   3.549   4.261   0.761  0.3637 -0.4422 -0.0069
11476SOL    HW135044   3.612   4.322   0.799  0.1126 -1.3481  2.0149
11476SOL    HW235045   3.603   4.194   0.719  0.6448  0.8378 -1.7889
11477SOL     OW35046   4.013   0.975   1.702  0.1404 -0.6781  0.5774
11477SOL    HW135047   4.065   1.048   1.667 -2.8390  1.0782 -0.5665
11477SOL    HW235048   3.997   0.919   1.627 -1.9884  0.3880  0.1625
11478SOL     OW35049   1.910   4.983   2.834  0.2784  0.5840 -0.7158
11478SOL    HW135050   1.894   5.046   2.905  1.0591  0.3000 -0.2734
11478SOL    HW235051   1.952   5.034   2.765 -0.7507  0.9236 -1.0962
11479SOL     OW35052   5.326   4.861   2.450  0.6024  0.2185  0.1689
11479SOL    HW135053   5.360   4.918   2.519  3.9935  0.5043 -1.5102
11479SOL    HW235054   5.317   4.775   2.491 -0.2579  0.9528  1.6083
11480SOL     OW35055   6.034   5.587   1.706  0.2396  0.1121 -0.5198
11480SOL    HW135056   5.990   5.660   1.750 -0.1694  0.1375 -0.9570
11480SOL    HW235057   6.124   5.616   1.696  0.3464  0.0993  0.3098
11481SOL     OW35058   0.731   1.622   2.650 -0.2025 -0.0482 -0.2325
11481SOL    HW135059   0.697   1.622   2.560  0.0426 -0.8672 -0.3348
11481SOL    HW235060   0.825   1.607   2.641 -0.1928 -0.2444  0.1642
11482SOL     OW35061   2.526   2.466   5.279  0.3128  0.2137 -0.4735
11482SOL    HW135062   2.490   2.542   5.324 -0.3374 -0.5599  0.3356
11482SOL    HW235063   2.455   2.403   5.277  0.5904 -0.0827 -1.8727
11483SOL     OW35064   4.899   1.690   6.130  0.1270 -0.1412  0.1637
11483SOL    HW135065   4.891   1.723   6.040 -1.3955  1.3798  0.8041
11483SOL    HW235066   4.871   1.598   6.125 -1.4464  0.3493 -0.6875
11484SOL     OW35067   2.927   4.898   3.193 -0.2693 -0.5997 -0.3167
11484SOL    HW135068   2.902   4.987   3.218  1.0637  0.0086 -1.0450
11484SOL    HW235069   2.866   4.875   3.123  1.4950  1.1269 -2.5669
11485SOL     OW35070   1.063   0.414   0.769 -0.0632 -0.0611  0.1248
11485SOL    HW135071   1.003   0.352   0.810 -1.8101 -0.3590 -2.6313
11485SOL    HW235072   1.144   0.364   0.757 -1.5601 -2.1554 -2.4542
11486SOL     OW35073   1.116   6.949   0.430  0.1247 -0.0223  0.0742
11486SOL    HW135074   1.125   6.895   0.352  0.8642 -0.5806  0.5414
11486SOL    HW235075   1.021   6.953   0.446  0.0484 -0.9000 -0.1524
11487SOL     OW35076   4.758   4.208   1.894 -0.7528 -0.1745  0.4733
11487SOL    HW135077   4.721   4.134   1.941 -0.8651  0.5055  1.4845
11487SOL    HW235078   4.850   4.185   1.880 -1.1837 -1.2555 -0.7934
11488SOL     OW35079   6.802   5.378   2.608  0.1119 -0.3306 -0.1151
11488SOL    HW135080   6.762   5.465   2.598  0.1124 -0.4102 -0.8235
11488SOL    HW235081   6.808   5.344   2.519 -0.1426 -1.1734  0.1816
11489SOL     OW35082   0.204   0.685   4.985  0.1617  0.0935 -0.2811
11489SOL    HW135083   0.164   0.705   4.901 -0.8980 -0.0396  0.1719
11489SOL    HW235084   0.141   0.625   5.027  2.0168 -2.2334 -0.5916
11490SOL     OW35085   3.868   2.143   6.245 -0.2556  0.4950  0.2731
11490SOL    HW135086   3.830   2.124   6.330  0.4593 -1.5210  0.1895
11490SOL    HW235087   3.961   2.160   6.263 -0.2120  0.6035 -0.0383
11491SOL     OW35088   5.086   7.164   0.554  0.2771  0.0719 -0.1086
11491SOL    HW135089   5.144   7.215   0.497  0.9146  0.7928  1.1390
11491SOL    HW235090   5.102   7.200   0.642 -0.8662 -0.8308  0.4868
11492SOL     OW35091   4.262   5.263   3.436  0.5998  0.0560 -0.3426
11492SOL    HW135092   4.190   5.269   3.373 -0.2739 -0.1019  0.6247
11492SOL    HW235093   4.261   5.346   3.483  0.8252 -0.0808 -0.0900
11493SOL     OW35094   1.987   2.984   0.457  0.0427 -0.0453  0.0345
11493SOL    HW135095   1.962   2.892   0.449 -0.0916  0.0066 -0.1589
11493SOL    HW235096   2.007   2.996   0.550  2.8445 -0.9752 -0.3577
11494SOL     OW35097   6.242   1.797   7.232 -0.2896  0.5293 -0.1865
11494SOL    HW135098   6.324   1.753   7.208 -0.3737  0.6743 -0.7685
11494SOL    HW235099   6.183   1.726   7.257 -0.3567  0.3248 -0.9095
11495SOL     OW35100   2.218   1.386   0.147  0.3733 -0.4703  0.0886
11495SOL    HW135101   2.309   1.363   0.128  1.3340  1.3626  2.0723
11495SOL    HW235102   2.224   1.457   0.211 -2.4705 -1.9222  2.1916
11496SOL     OW35103   3.724   2.692   6.523  0.3687  0.1954  0.7345
11496SOL    HW135104   3.782   2.650   6.587 -0.5482 -0.8000  0.9297
11496SOL    HW235105   3.668   2.750   6.575 -1.1339 -1.4479  1.0255
11497SOL     OW35106   1.986   6.241   4.065 -1.0289 -0.0219  0.5605
11497SOL    HW135107   2.020   6.152   4.078  0.1901  0.3594  0.1616
11497SOL    HW235108   1.936   6.236   3.984 -0.4612 -0.2150  0.2173
11498SOL     OW35109   0.452   6.101   0.344  0.2976  0.8686  0.2444
11498SOL    HW135110   0.407   6.183   0.324 -2.1668 -0.5579 -0.5229
11498SOL    HW235111   0.390   6.052   0.398  1.6308 -0.5851  0.5547
11499SOL     OW35112   5.637   4.631   4.266  0.6659 -0.3382  0.7080
11499SOL    HW135113   5.590   4.554   4.234  1.4881 -0.3055 -0.6539
11499SOL    HW235114   5.728   4.602   4.274  1.0026  0.5050  0.0761
11500SOL     OW35115   6.984   1.785   0.612  0.2164  0.1311  0.7382
11500SOL    HW135116   7.078   1.768   0.609  0.1874 -0.4040 -3.6369
11500SOL    HW235117   6.977   1.880   0.612  0.7696  0.1752  0.7229
11501SOL     OW35118   2.618   2.505   4.104  0.3790  0.1220  0.1145
11501SOL    HW135119   2.650   2.459   4.026  0.4539  0.7322 -0.2183
11501SOL    HW235120   2.695   2.514   4.160  0.0262 -1.6900  0.9731
11502SOL     OW35121   1.672   1.581   6.728  0.0450  0.4010  0.0748
11502SOL    HW135122   1.728   1.651   6.762  0.7699 -0.1987  0.1436
11502SOL    HW235123   1.596   1.581   6.786  0.1569  0.9537  0.2307
11503SOL     OW35124   2.000   5.880   6.940 -0.5883 -0.2663  0.4027
11503SOL    HW135125   1.997   5.967   6.980 -0.4948  0.4792 -1.1404
11503SOL    HW235126   2.094   5.864   6.926 -0.3665 -1.8213  3.1131
11504SOL     OW35127   6.569   3.950   3.329  0.1024 -0.1054 -0.1889
11504SOL    HW135128   6.618   4.029   3.306 -0.5151 -0.1332 -1.6704
11504SOL    HW235129   6.574   3.895   3.251  1.2202 -1.9211  1.0987
11505SOL     OW35130   6.412   6.001   3.769 -0.2830 -0.0490 -0.1814
11505SOL    HW135131   6.415   6.093   3.746  1.4298  0.0875  0.4333
11505SOL    HW235132   6.332   5.991   3.820 -1.2229  0.7783 -1.4601
11506SOL     OW35133   2.317   5.459   5.888  0.0570  0.8353  0.2204
11506SOL    HW135134   2.318   5.417   5.974 -0.4314 -0.2281 -0.2770
11506SOL    HW235135   2.289   5.549   5.906 -0.3077  0.5534  1.1372
11507SOL     OW35136   6.849   0.025   2.240 -0.1479 -0.3954 -0.2632
11507SOL    HW135137   6.805   0.068   2.314 -0.5479 -4.5591  2.2418
11507SOL    HW235138   6.931   0.073   2.230 -0.8911  1.4567  1.6314
11508SOL     OW35139   6.257   7.207   2.623  0.0452  0.1065 -0.3272
11508SOL    HW135140   6.254   7.300   2.642  3.0785 -0.0373  1.4524
11508SOL    HW235141   6.206   7.166   2.693  1.2815  0.3091  0.7319
11509SOL     OW35142   3.329   4.436   1.768 -0.1195  0.2097 -0.0848
11509SOL    HW135143   3.290   4.359   1.726  1.1101  0.0813 -1.0450
11509SOL    HW235144   3.419   4.439   1.735  0.3824  1.0919  1.2506
11510SOL     OW35145   3.454   5.218   5.771 -0.7698 -0.4927 -0.1640
11510SOL    HW135146   3.360   5.210   5.787 -0.8050  0.6279  0.1974
11510SOL    HW235147   3.481   5.296   5.819  0.1083 -0.0750 -1.2880
11511SOL     OW35148   5.467   0.251   7.054  0.1070  0.5201 -0.0422
11511SOL    HW135149   5.392   0.297   7.017  1.0118  1.2105 -1.1299
11511SOL    HW235150   5.541   0.282   7.001  0.7728 -2.1999 -0.8627
11512SOL     OW35151   1.555   0.288   6.636 -0.2016 -0.0642  0.3158
11512SOL    HW135152   1.473   0.335   6.618 -1.1692 -0.6907  2.6272
11512SOL    HW235153   1.538   0.198   6.606 -0.2167 -0.0886  0.3956
11513SOL     OW35154   3.059   5.839   3.794 -0.3092 -0.0793  0.0397
11513SOL    HW135155   3.028   5.915   3.745  0.3973  1.1049  1.3747
11513SOL    HW235156   3.084   5.776   3.726  1.3405  1.7791 -1.2004
11514SOL     OW35157   0.244   6.295   2.972  0.8037  0.6619 -0.2117
11514SOL    HW135158   0.271   6.330   3.056 -0.4967  0.6154  0.2456
11514SOL    HW235159   0.244   6.371   2.913  2.1762  0.6052 -0.3067
11515SOL     OW35160   5.059   1.730   1.003  0.2287  0.2377  0.1443
11515SOL    HW135161   4.991   1.721   0.935  0.1383  1.4743  0.0378
11515SOL    HW235162   5.011   1.764   1.079  0.2297 -1.6563  1.0454
11516SOL     OW35163   3.885   1.483   4.832  0.4640 -0.4026 -0.2948
11516SOL    HW135164   3.877   1.431   4.752 -1.3093  1.2179 -1.2765
11516SOL    HW235165   3.897   1.419   4.902 -0.8364 -2.0905 -1.5287
11517SOL     OW35166   5.115   2.002   4.193  0.1464  0.1953  0.0724
11517SOL    HW135167   5.051   2.072   4.178 -1.1341 -1.2284 -1.4151
11517SOL    HW235168   5.143   2.015   4.284 -1.5357  1.4488  0.4648
11518SOL     OW35169   3.087   4.249   2.820 -0.5566  0.3334  0.0788
11518SOL    HW135170   3.014   4.259   2.882  0.2058 -0.5280  1.1668
11518SOL    HW235171   3.146   4.186   2.862 -0.7406 -1.5144 -2.2413
11519SOL     OW35172   1.485   4.235   2.647 -0.6418  0.2214 -0.0502
11519SOL    HW135173   1.395   4.262   2.666 -0.3149 -0.6479  3.3985
11519SOL    HW235174   1.478   4.141   2.632 -0.4297  0.3577 -1.0496
11520SOL     OW35175   1.550   6.245   3.223 -0.2282 -0.4784 -0.7071
11520SOL    HW135176   1.536   6.297   3.303 -0.8458  0.8587 -1.6489
11520SOL    HW235177   1.534   6.155   3.250  1.4700 -0.2877  1.1338
11521SOL     OW35178   6.383   6.563   5.855  0.0867  0.3241 -0.7734
11521SOL    HW135179   6.417   6.588   5.769  0.0440  0.0105 -0.8792
11521SOL    HW235180   6.300   6.610   5.862 -0.5146 -0.6072 -1.4165
11522SOL     OW35181   1.521   6.227   0.615 -0.6045  0.2345 -0.2553
11522SOL    HW135182   1.516   6.294   0.683 -2.1011 -0.0645 -0.0295
11522SOL    HW235183   1.596   6.253   0.561  1.3384 -0.1173  2.0998
11523SOL     OW35184   1.085   3.477   3.307  0.1579 -0.1127 -0.3379
11523SOL    HW135185   1.089   3.389   3.342 -0.7154  0.5847  1.6695
11523SOL    HW235186   1.018   3.473   3.239  0.3455 -1.0487 -0.4749
11524SOL     OW35187   6.247   5.336   3.534 -0.2058  0.0419  0.1831
11524SOL    HW135188   6.194   5.332   3.454 -0.4402  0.2891  0.3221
11524SOL    HW235189   6.315   5.271   3.521 -1.2006 -1.0978  0.4729
11525SOL     OW35190   2.588   6.193   2.082  0.0732 -0.1079  0.1973
11525SOL    HW135191   2.521   6.130   2.106 -0.4741  0.3134 -0.2025
11525SOL    HW235192   2.662   6.140   2.051 -0.9377 -0.5291 -1.6074
11526SOL     OW35193   1.892   7.065   7.048 -0.2331  0.6850  0.2330
11526SOL    HW135194   1.908   7.159   7.040  1.3130  0.3625 -1.1637
11526SOL    HW235195   1.898   7.033   6.958 -1.1985 -0.6871  0.6429
11527SOL     OW35196   4.957   4.357   3.982  0.3947 -0.0613  0.3221
11527SOL    HW135197   4.981   4.392   3.897  1.5486  0.6501  0.9116
11527SOL    HW235198   4.923   4.269   3.964  0.3085  0.2174 -0.8918
11528SOL     OW35199   3.529   0.366   6.248  0.5520  0.5138 -0.2641
11528SOL    HW135200   3.539   0.362   6.343  0.2352  0.2853 -0.2390
11528SOL    HW235201   3.435   0.371   6.234  0.4241 -1.7226 -0.6387
11529SOL     OW35202   4.918   2.268   4.463  0.6995 -0.7471  0.3443
11529SOL    HW135203   4.847   2.318   4.423 -0.2392 -2.5344 -0.3372
11529SOL    HW235204   4.918   2.296   4.554  1.2500  1.5985 -0.3247
11530SOL     OW35205   1.290   1.415   4.481  0.0228  0.0577  0.7303
11530SOL    HW135206   1.310   1.338   4.534  0.2575  0.3014  0.9993
11530SOL    HW235207   1.349   1.483   4.514 -0.0207  0.2885  0.3402
11531SOL     OW35208   7.030   1.433   2.865 -0.9446 -0.1374  0.2246
11531SOL    HW135209   6.997   1.494   2.799 -0.7924  0.1899  0.4502
11531SOL    HW235210   6.997   1.467   2.948 -1.1333 -0.5478  0.3202
11532SOL     OW35211   6.961   4.767   5.296 -0.3257 -0.2298  0.6255
11532SOL    HW135212   6.967   4.676   5.268 -1.0934 -0.5870  1.5658
11532SOL    HW235213   6.868   4.779   5.316 -0.4841  1.1476 -0.7468
11533SOL     OW35214   1.348   1.667   5.196 -0.3685  0.1322  0.5759
11533SOL    HW135215   1.373   1.581   5.162  1.6381  0.4630  1.0699
11533SOL    HW235216   1.364   1.727   5.123  0.3043  0.3420  0.8839
11534SOL     OW35217   3.951   4.102   1.339 -0.2907  0.3284  0.3130
11534SOL    HW135218   3.910   4.188   1.327  0.5413  0.7099  0.1068
11534SOL    HW235219   3.958   4.066   1.251 -1.3980 -0.3334  0.4734
11535SOL     OW35220   6.286   3.193   5.431  0.3292  0.0651  0.7130
11535SOL    HW135221   6.243   3.134   5.492  0.4084 -1.6281 -0.7842
11535SOL    HW235222   6.216   3.223   5.373  0.5170  0.4142  0.6632
11536SOL     OW35223   1.950   3.915   2.899  0.2784 -0.4386 -0.3520
11536SOL    HW135224   1.920   3.831   2.864 -2.3321  0.6251 -0.9221
11536SOL    HW235225   1.989   3.960   2.823  0.2118 -0.5151 -0.4308
11537SOL     OW35226   5.628   2.802   6.913  0.7295 -0.3720  0.2527
11537SOL    HW135227   5.641   2.865   6.842 -1.1044 -1.4206 -1.0901
11537SOL    HW235228   5.716   2.787   6.948  1.3650  1.9822 -0.1741
11538SOL     OW35229   5.011   2.639   4.217 -0.0949  0.1322 -0.2777
11538SOL    HW135230   5.072   2.687   4.162  0.7921  1.1849  1.5303
11538SOL    HW235231   4.962   2.583   4.157  1.6321  0.3534 -1.9560
11539SOL     OW35232   7.063   5.332   2.849  0.1342  0.3808 -0.5296
11539SOL    HW135233   7.003   5.405   2.832 -0.4451  0.3905  1.4116
11539SOL    HW235234   7.011   5.254   2.827 -1.9043  0.1621  4.0359
11540SOL     OW35235   1.051   1.907   3.026 -0.4646  0.1135  0.5637
11540SOL    HW135236   0.996   1.951   2.960 -1.3940  0.7009  1.6907
11540SOL    HW235237   1.120   1.970   3.046  0.2884 -0.3766 -0.3923
11541SOL     OW35238   6.153   2.366   0.135 -0.1590 -0.2316  0.2528
11541SOL    HW135239   6.153   2.461   0.129  0.2738 -0.2939 -1.3470
11541SOL    HW235240   6.245   2.343   0.146 -0.1306 -0.4979 -0.4845
11542SOL     OW35241   3.583   3.880   1.598  0.0258  0.5423 -0.2164
11542SOL    HW135242   3.541   3.851   1.679 -0.8025  0.2458 -0.7371
11542SOL    HW235243   3.675   3.892   1.621  0.3593 -2.1241  0.1530
11543SOL     OW35244   6.712   2.736   2.450  0.5456 -0.1402 -0.4362
11543SOL    HW135245   6.709   2.815   2.504 -0.5746  0.2399 -1.0125
11543SOL    HW235246   6.766   2.675   2.500  1.3210  0.9294  0.0857
11544SOL     OW35247   6.847   5.125   3.180  0.6488 -0.6738  0.7646
11544SOL    HW135248   6.874   5.054   3.122 -0.0685 -1.8710  1.8330
11544SOL    HW235249   6.756   5.142   3.157  0.6055 -0.6027  0.9850
11545SOL     OW35250   1.016   0.574   4.564 -0.4006 -0.1243  0.3114
11545SOL    HW135251   0.950   0.643   4.576 -1.0926 -0.4780 -1.2453
11545SOL    HW235252   0.968   0.492   4.577 -0.4378 -0.4042 -1.3229
11546SOL     OW35253   5.895   5.055   2.921 -0.2329  0.2124 -0.0688
11546SOL    HW135254   5.853   4.984   2.970  0.3050 -0.4249 -0.5173
11546SOL    HW235255   5.824   5.116   2.902 -0.5431  0.2521  1.1026
11547SOL     OW35256   5.441   1.917   5.159  0.0497 -0.1351  0.0989
11547SOL    HW135257   5.414   1.874   5.241 -0.3701  0.6827  0.4051
11547SOL    HW235258   5.411   1.858   5.091 -3.2581  0.9680  0.3798
11548SOL     OW35259   6.352   2.490   2.658  0.2194 -0.2556 -0.4480
11548SOL    HW135260   6.385   2.554   2.721 -0.6215 -1.8394  1.7552
11548SOL    HW235261   6.258   2.487   2.674  0.0596 -1.1159 -1.4147
11549SOL     OW35262   3.534   0.990   1.682 -0.1198  0.1662 -1.0033
11549SOL    HW135263   3.468   0.968   1.615  1.0415  0.7692 -2.4087
11549SOL    HW235264   3.581   1.064   1.645  1.7704 -0.6532 -0.3533
11550SOL     OW35265   0.716   3.134   1.315  0.3158  0.0651  0.1612
11550SOL    HW135266   0.708   3.227   1.334  0.2053 -0.1413  1.1998
11550SOL    HW235267   0.753   3.096   1.395 -1.9267 -1.1451  0.6990
11551SOL     OW35268   0.708   5.693   2.783 -0.5297  0.3405 -0.1683
11551SOL    HW135269   0.704   5.667   2.875  0.3024 -1.8410 -0.7039
11551SOL    HW235270   0.670   5.620   2.735  0.4102  0.7970 -1.6754
11552SOL     OW35271   2.493   5.669   1.342  0.6974 -0.1687  0.3545
11552SOL    HW135272   2.532   5.589   1.306  0.2912 -0.1114 -0.2332
11552SOL    HW235273   2.557   5.700   1.406  1.3680 -0.3746 -0.1939
11553SOL     OW35274   3.563   1.301   5.563 -0.0567  0.0164 -0.5686
11553SOL    HW135275   3.641   1.309   5.617 -0.7028 -1.4665  0.6555
11553SOL    HW235276   3.499   1.256   5.619 -1.6542  0.8221 -1.6684
11554SOL     OW35277   3.222   4.947   3.812 -0.4155 -0.3670 -0.2942
11554SOL    HW135278   3.250   4.935   3.721 -0.8307 -1.7066 -0.2630
11554SOL    HW235279   3.302   4.933   3.863  0.3321  2.5143 -0.5034
11555SOL     OW35280   5.981   1.233   3.254 -0.2118 -0.3464 -0.2000
11555SOL    HW135281   6.034   1.189   3.320  1.9953 -0.9471 -2.2460
11555SOL    HW235282   6.015   1.322   3.250  1.4310 -0.9861 -2.1711
11556SOL     OW35283   3.751   4.613   3.722  0.4289  0.2270  0.4645
11556SOL    HW135284   3.775   4.636   3.632 -2.2799 -1.0541 -0.6974
11556SOL    HW235285   3.795   4.678   3.776  1.1677  1.7952 -1.8696
11557SOL     OW35286   7.222   3.387   2.564 -0.4261 -0.7755  0.6700
11557SOL    HW135287   7.127   3.371   2.564 -0.4871 -0.4181  0.5319
11557SOL    HW235288   7.239   3.432   2.482 -0.4936  1.2243  1.6855
11558SOL     OW35289   0.302   4.470   2.719  0.2449  0.0361 -0.1074
11558SOL    HW135290   0.329   4.502   2.806 -2.7625  1.1361  0.5649
11558SOL    HW235291   0.241   4.399   2.738  1.2443 -1.2151 -1.4378
11559SOL     OW35292   3.037   0.946   5.747 -0.4965  0.0164  0.1385
11559SOL    HW135293   2.976   0.884   5.708 -0.2489 -0.4518  0.4847
11559SOL    HW235294   3.123   0.904   5.739 -0.3711  0.1623  0.6776
11560SOL     OW35295   3.587   3.039   4.261  0.3381 -0.5265  0.1970
11560SOL    HW135296   3.644   3.115   4.272  0.3303 -0.5728  0.5753
11560SOL    HW235297   3.620   2.996   4.182  2.5138 -2.0074  1.7962
11561SOL     OW35298   6.278   6.123   4.436 -0.3304 -0.0942 -0.1788
11561SOL    HW135299   6.206   6.177   4.468  0.3574  0.4911  0.4066
11561SOL    HW235300   6.320   6.088   4.515  1.7660  1.8633 -0.2988
11562SOL     OW35301   3.983   1.015   0.618  0.4859 -0.1148  0.0733
11562SOL    HW135302   4.012   1.103   0.592  1.7514 -1.5380 -4.1308
11562SOL    HW235303   3.890   1.027   0.641  0.5212  2.2697 -0.6681
11563SOL     OW35304   2.319   5.859   0.033 -0.1582 -0.0122  0.5201
11563SOL    HW135305   2.410   5.871   0.060  0.7870  1.6118 -2.8753
11563SOL    HW235306   2.287   5.948   0.018 -1.2783 -0.6774 -1.3114
11564SOL     OW35307   2.776   2.364   1.136  0.1523 -0.0768 -0.4282
11564SOL    HW135308   2.760   2.417   1.057  0.4171 -1.4737 -1.4465
11564SOL    HW235309   2.854   2.403   1.175  0.4295  0.2070 -1.2421
11565SOL     OW35310   5.867   3.945   5.017  0.4409 -0.2422 -0.0852
11565SOL    HW135311   5.796   3.887   5.044 -2.2969  2.2070 -1.4611
11565SOL    HW235312   5.847   4.028   5.059  1.9468  0.8232 -1.3539
11566SOL     OW35313   5.955   0.763   6.413 -0.2616  0.4610  0.2133
11566SOL    HW135314   6.021   0.698   6.437  1.1787  1.6329 -0.4486
11566SOL    HW235315   5.919   0.792   6.497 -0.7521 -0.9634  0.5355
11567SOL     OW35316   1.624   3.251   6.164  0.1958  0.4208 -0.1770
11567SOL    HW135317   1.565   3.232   6.237 -0.7234  2.1614 -0.4040
11567SOL    HW235318   1.660   3.166   6.139  0.0483 -0.2954  1.8880
11568SOL     OW35319   5.313   0.880   5.381 -0.1477  0.3645  0.2869
11568SOL    HW135320   5.247   0.841   5.324  0.3889  0.3005 -0.2981
11568SOL    HW235321   5.277   0.871   5.469 -0.7512 -0.0026  0.0057
11569SOL     OW35322   6.373   1.223   3.934 -0.2937  0.3442  0.8075
11569SOL    HW135323   6.430   1.179   3.871 -0.1214 -2.1967  2.5840
11569SOL    HW235324   6.423   1.300   3.961  1.9457 -1.2572  1.5710
11570SOL     OW35325   2.705   0.350   2.772  0.5243 -0.4011  0.1677
11570SOL    HW135326   2.786   0.320   2.732  0.3932 -0.7590  0.1637
11570SOL    HW235327   2.727   0.434   2.812  0.4541  0.4034 -1.3959
11571SOL     OW35328   3.629   0.713   3.639 -0.0883 -0.8173 -0.0526
11571SOL    HW135329   3.695   0.659   3.683 -0.2711 -1.0178 -0.0235
11571SOL    HW235330   3.569   0.738   3.709  0.5915  0.3389  0.1527
11572SOL     OW35331   1.887   1.365   6.401  0.9320 -0.0240  0.4998
11572SOL    HW135332   1.923   1.302   6.463  2.0564 -0.9896 -1.0671
11572SOL    HW235333   1.889   1.449   6.448  1.1055 -0.8351  1.9895
11573SOL     OW35334   0.013   3.009   4.529  0.4662  0.0109 -0.1848
11573SOL    HW135335   0.070   3.068   4.577  0.5628 -0.8266  0.7570
11573SOL    HW235336   0.072   2.947   4.487  0.3724  0.6309 -1.2871
11574SOL     OW35337   5.434   4.635   4.483 -0.2040  0.0106  0.6573
11574SOL    HW135338   5.387   4.667   4.406 -0.0710  0.3745  0.7264
11574SOL    HW235339   5.477   4.712   4.519 -1.7525  0.2337  2.1729
11575SOL     OW35340   6.425   0.422   0.486 -0.5497  0.4495 -0.2716
11575SOL    HW135341   6.418   0.337   0.442 -0.7086 -0.5290  1.5399
11575SOL    HW235342   6.519   0.442   0.484 -0.1375 -1.0260  1.4275
11576SOL     OW35343   3.514   0.559   5.797  0.2910  0.4205 -0.4058
11576SOL    HW135344   3.584   0.522   5.852 -0.3360 -2.1379 -1.1732
11576SOL    HW235345   3.443   0.495   5.803 -0.8330  1.4405 -2.0479
11577SOL     OW35346   1.501   6.612   6.962  0.1251  0.5792  0.1320
11577SOL    HW135347   1.456   6.616   6.877  1.7042  1.5433 -0.7124
11577SOL    HW235348   1.431   6.596   7.025 -1.1409  0.1293 -1.3142
11578SOL     OW35349   1.789   0.513   5.860  0.1763  0.0071 -0.1312
11578SOL    HW135350   1.869   0.501   5.808  0.4235  0.9219  0.0277
11578SOL    HW235351   1.740   0.580   5.813 -1.9318 -2.5808 -1.8726
11579SOL     OW35352   6.362   3.733   5.904 -0.2358 -0.1942 -0.2061
11579SOL    HW135353   6.318   3.648   5.895  0.8181 -0.6196 -1.6006
11579SOL    HW235354   6.293   3.797   5.887 -0.6021 -0.8328 -1.2568
11580SOL     OW35355   3.634   1.979   2.528 -0.5091 -0.1642  0.3082
11580SOL    HW135356   3.607   2.064   2.562 -0.9891  0.3206 -1.2473
11580SOL    HW235357   3.614   1.918   2.600  1.1852  1.1785  2.0150
11581SOL     OW35358   3.906   2.447   5.776  0.0588 -0.0509  0.7538
11581SOL    HW135359   3.933   2.364   5.814  0.7311 -0.3065 -0.2543
11581SOL    HW235360   3.864   2.494   5.849 -0.6966 -1.4191  1.2346
11582SOL     OW35361   4.959   3.818   1.298  0.2019 -0.5257  0.2174
11582SOL    HW135362   5.015   3.810   1.221 -0.0447 -0.0078 -0.0163
11582SOL    HW235363   4.875   3.783   1.271 -0.0350  0.1330  0.0885
11583SOL     OW35364   2.574   1.447   1.327 -0.8507 -0.2234 -0.0423
11583SOL    HW135365   2.547   1.536   1.350 -0.6711 -0.0571 -0.4597
11583SOL    HW235366   2.627   1.458   1.247  0.7897 -0.4890  0.9607
11584SOL     OW35367   2.365   2.223   5.252  0.0014 -0.5311  0.0606
11584SOL    HW135368   2.413   2.140   5.253 -0.9206 -1.0681  0.9203
11584SOL    HW235369   2.289   2.206   5.196  0.7079  0.2943 -1.2288
11585SOL     OW35370   0.921   6.939   0.761 -0.1168  0.1319  0.1352
11585SOL    HW135371   0.973   6.881   0.817 -0.2014 -0.3106 -0.2391
11585SOL    HW235372   0.953   6.921   0.672  0.3648  1.1832  0.0747
11586SOL     OW35373   5.984   2.814   6.298  0.0268 -0.0818 -0.2853
11586SOL    HW135374   5.895   2.812   6.335  1.6089 -1.6751  4.0944
11586SOL    HW235375   5.987   2.737   6.241 -0.1183 -3.5128  3.7967
11587SOL     OW35376   0.606   6.968   3.768 -0.6031 -0.5718 -0.4269
11587SOL    HW135377   0.519   7.007   3.758 -0.6614 -0.5482  0.1214
11587SOL    HW235378   0.612   6.904   3.697  0.1159  1.5237 -2.3697
11588SOL     OW35379   6.349   7.067   6.254  0.3055  0.2610  0.1826
11588SOL    HW135380   6.439   7.041   6.236 -0.0892 -2.1471  1.3588
11588SOL    HW235381   6.309   6.990   6.295 -2.3496  1.1813 -0.4660
11589SOL     OW35382   3.005   6.894   6.587 -0.5001 -0.1898  0.4534
11589SOL    HW135383   3.059   6.962   6.627  0.3019 -1.0639  0.8934
11589SOL    HW235384   2.920   6.937   6.571  0.5461  1.4564 -1.0436
11590SOL     OW35385   5.865   5.162   7.064  0.2342 -0.2720  0.2111
11590SOL    HW135386   5.936   5.220   7.035 -0.7837  0.5768 -0.6549
11590SOL    HW235387   5.863   5.093   6.998 -0.5304  0.3788 -0.4731
11591SOL     OW35388   4.095   2.935   1.259 -0.8792  0.0312  0.4917
11591SOL    HW135389   4.158   2.939   1.188 -0.9549  0.4285  0.4473
11591SOL    HW235390   4.106   2.847   1.295 -0.1409  0.1775  0.6381
11592SOL     OW35391   6.304   6.589   0.585  0.0218 -0.1543 -0.9279
11592SOL    HW135392   6.234   6.654   0.590 -0.4102 -0.6442 -0.5074
11592SOL    HW235393   6.383   6.636   0.608  0.1403  0.8607 -3.1849
11593SOL     OW35394   2.115   3.171   2.657 -0.7264 -0.0582 -0.0061
11593SOL    HW135395   2.036   3.206   2.696 -0.6758  0.6089 -0.4906
11593SOL    HW235396   2.171   3.247   2.641  0.9981 -0.6784  2.4273
11594SOL     OW35397   4.494   4.868   1.334  0.2859  0.0262  0.0151
11594SOL    HW135398   4.517   4.803   1.268 -0.0838  0.0575 -0.1488
11594SOL    HW235399   4.569   4.870   1.393 -0.4297 -1.9202  1.1102
11595SOL     OW35400   5.967   0.363   5.047  0.3294  0.6164  0.2139
11595SOL    HW135401   5.942   0.306   5.119 -3.4581  1.7824  0.0424
11595SOL    HW235402   5.990   0.446   5.089  1.6920  0.2618  0.2162
11596SOL     OW35403   0.419   5.194   5.065  0.5178  0.3266 -0.2971
11596SOL    HW135404   0.404   5.289   5.063 -2.6349 -0.0375  0.6247
11596SOL    HW235405   0.370   5.161   4.990 -0.3685 -0.7285  0.7115
11597SOL     OW35406   0.271   2.752   3.957  0.2559  0.2254  0.4268
11597SOL    HW135407   0.331   2.679   3.940  0.3533  0.2887  0.4989
11597SOL    HW235408   0.207   2.746   3.886 -1.2185 -1.4643  1.8033
11598SOL     OW35409   2.167   2.562   1.125  0.3617  0.2798 -0.1456
11598SOL    HW135410   2.221   2.585   1.049  0.6775 -1.0850 -0.3581
11598SOL    HW235411   2.217   2.493   1.169 -0.9938 -0.6692 -0.0713
11599SOL     OW35412   6.101   4.533   3.035  0.1285  0.6315 -0.1151
11599SOL    HW135413   6.069   4.618   3.064  0.4196  0.6854  0.0601
11599SOL    HW235414   6.146   4.551   2.952 -0.6830  0.4814 -0.6013
11600SOL     OW35415   4.511   6.530   4.655 -0.1793  0.0878  0.2982
11600SOL    HW135416   4.552   6.606   4.613 -2.0678  0.3903 -1.1202
11600SOL    HW235417   4.552   6.525   4.742  2.2452  0.8036 -0.7170
11601SOL     OW35418   4.775   0.597   1.486  0.0887  0.7188 -0.7930
11601SOL    HW135419   4.730   0.521   1.522 -0.1750  1.1545 -0.1726
11601SOL    HW235420   4.868   0.576   1.493 -0.0024  0.1331 -1.3513
11602SOL     OW35421   3.661   7.096   2.970 -0.3267 -0.6248  0.1939
11602SOL    HW135422   3.682   7.093   2.877 -0.7728 -1.0936  0.1011
11602SOL    HW235423   3.612   7.177   2.982 -2.0494 -1.5112 -0.3859
11603SOL     OW35424   3.472   0.585   1.810  0.6708 -0.1091 -0.6024
11603SOL    HW135425   3.390   0.623   1.842  0.8413 -1.4747  1.6497
11603SOL    HW235426   3.453   0.561   1.719 -1.5159 -0.6427 -0.0630
11604SOL     OW35427   2.415   6.154   1.151  0.5926 -0.2116  0.1172
11604SOL    HW135428   2.461   6.083   1.105  0.1117 -0.1851 -0.4061
11604SOL    HW235429   2.374   6.206   1.082 -1.7508 -1.2554  0.6164
11605SOL     OW35430   6.397   1.614   5.764 -0.2009  0.2183 -0.4290
11605SOL    HW135431   6.410   1.682   5.829 -0.5591  1.7201 -1.8610
11605SOL    HW235432   6.484   1.598   5.727  0.1033 -1.0395  0.7483
11606SOL     OW35433   6.139   3.758   1.634  0.2073  0.3826 -0.3441
11606SOL    HW135434   6.127   3.810   1.713 -0.3027 -0.1551 -0.0659
11606SOL    HW235435   6.051   3.737   1.605  0.4041 -0.5262 -0.3164
11607SOL     OW35436   2.238   0.874   5.335  0.0772 -0.2345 -0.2459
11607SOL    HW135437   2.209   0.897   5.423  0.1773  0.2973 -0.3471
11607SOL    HW235438   2.251   0.959   5.291  1.1392 -0.4635 -0.4052
11608SOL     OW35439   2.984   4.727   0.426 -0.9713  0.0055  0.2237
11608SOL    HW135440   2.989   4.721   0.331  2.6427 -3.3830  0.3574
11608SOL    HW235441   3.053   4.788   0.451 -0.3108 -0.8795  0.6518
11609SOL     OW35442   5.970   6.609   1.641 -0.2058 -0.0897 -0.3235
11609SOL    HW135443   5.972   6.700   1.612  0.0362 -0.2986 -0.9794
11609SOL    HW235444   6.054   6.573   1.612 -0.7425 -0.8025 -1.0209
11610SOL     OW35445   5.497   1.985   0.676 -0.4098 -0.2897  0.0539
11610SOL    HW135446   5.552   1.921   0.632  1.4854  1.8609 -0.8773
11610SOL    HW235447   5.536   1.996   0.762 -0.9872 -0.6789  0.3718
11611SOL     OW35448   6.555   2.795   0.843  0.5217 -0.4267 -0.3109
11611SOL    HW135449   6.520   2.880   0.814  1.7810 -0.3333 -1.6700
11611SOL    HW235450   6.530   2.734   0.773  0.4765 -0.9875  0.1841
11612SOL     OW35451   3.016   2.707   2.062  0.6143  0.0121  0.6038
11612SOL    HW135452   3.021   2.614   2.084  1.6204 -0.2520 -0.6095
11612SOL    HW235453   3.103   2.727   2.025  0.0795  1.1814 -0.0653
11613SOL     OW35454   5.223   5.403   5.886  1.2365 -0.4626  0.0594
11613SOL    HW135455   5.218   5.492   5.852  0.9321 -0.3929  0.2814
11613SOL    HW235456   5.133   5.369   5.877  1.1066 -0.3726  0.9833
11614SOL     OW35457   6.725   0.175   2.428  0.3563 -0.0822  0.1803
11614SOL    HW135458   6.705   0.157   2.520 -0.6983  0.9851  0.1801
11614SOL    HW235459   6.691   0.263   2.412  0.6464 -0.1891 -1.2007
11615SOL     OW35460   5.342   3.669   4.114  0.5898 -0.4733  0.9677
11615SOL    HW135461   5.252   3.697   4.097  0.7565  0.3267  1.3361
11615SOL    HW235462   5.370   3.628   4.032  0.1566  0.0186  0.5638
11616SOL     OW35463   6.112   7.095   3.519 -0.0969  0.4988 -0.4026
11616SOL    HW135464   6.203   7.122   3.526 -0.2101  0.6232  0.9262
11616SOL    HW235465   6.114   7.019   3.461  0.7465  0.9276 -0.9532
11617SOL     OW35466   0.253   3.076   7.120  0.0029 -0.4378 -0.6585
11617SOL    HW135467   0.166   3.036   7.122 -1.3522  2.0920 -2.7554
11617SOL    HW235468   0.302   3.030   7.188 -3.4646 -0.8398  1.8074
11618SOL     OW35469   4.771   3.538   4.013  0.5363  0.2780  0.3454
11618SOL    HW135470   4.696   3.481   4.030  0.3861  1.0483  2.5460
11618SOL    HW235471   4.735   3.611   3.963  0.4598 -0.7993 -1.2545
11619SOL     OW35472   5.533   4.163   0.349  0.4525 -0.2496  0.3406
11619SOL    HW135473   5.528   4.084   0.295 -0.5287 -0.9682  1.4509
11619SOL    HW235474   5.627   4.174   0.366  0.5679 -1.4065  0.5021
11620SOL     OW35475   3.662   1.018   5.509  0.3781 -0.0939  0.3233
11620SOL    HW135476   3.691   1.013   5.601  1.3145  0.0071  0.0473
11620SOL    HW235477   3.635   1.109   5.497 -1.9841 -0.6121  1.1156
11621SOL     OW35478   4.909   0.640   4.305 -0.6171 -0.2607 -0.2980
11621SOL    HW135479   5.004   0.632   4.312 -0.2774  1.0918 -2.3559
11621SOL    HW235480   4.890   0.728   4.337 -0.8441  0.3143 -1.9006
11622SOL     OW35481   5.306   4.687   3.864  0.1597 -0.3886  0.2168
11622SOL    HW135482   5.300   4.776   3.900 -0.2821  0.1049 -1.0128
11622SOL    HW235483   5.308   4.700   3.769 -0.3952 -1.7315  0.0030
11623SOL     OW35484   3.435   3.680   4.617  0.0648 -0.2267 -0.5663
11623SOL    HW135485   3.394   3.660   4.533  0.5594 -0.6248 -0.7239
11623SOL    HW235486   3.462   3.771   4.610 -1.5779  0.3307 -0.1160
11624SOL     OW35487   7.210   0.175   4.082 -0.5719 -0.1781  0.6554
11624SOL    HW135488   7.297   0.171   4.122  0.5804 -0.4441 -1.6922
11624SOL    HW235489   7.185   0.267   4.089  0.4371  0.1354  0.3398
11625SOL     OW35490   0.547   0.778   4.584 -0.1720 -0.0812 -0.2325
11625SOL    HW135491   0.634   0.740   4.574 -0.3854 -0.5480 -0.3826
11625SOL    HW235492   0.487   0.707   4.559 -0.6966 -0.7744  2.6327
11626SOL     OW35493   0.812   0.160   3.923  0.0425 -0.7416  0.4596
11626SOL    HW135494   0.744   0.117   3.871  0.6140 -0.7727 -0.2785
11626SOL    HW235495   0.843   0.091   3.983 -0.5342 -0.7396  0.7688
11627SOL     OW35496   6.785   5.101   0.873 -0.2109 -0.0102  0.3178
11627SOL    HW135497   6.876   5.116   0.848 -0.5611  0.6284 -0.6875
11627SOL    HW235498   6.768   5.009   0.850 -0.6152  0.6232 -2.3566
11628SOL     OW35499   5.515   6.093   0.156  0.2798  0.3260 -0.1763
11628SOL    HW135500   5.520   6.168   0.097  1.0279  0.8372  0.5209
11628SOL    HW235501   5.508   6.131   0.244 -0.4094 -0.4223  0.1111
11629SOL     OW35502   3.743   1.701   1.540  0.6422  0.3625  0.0461
11629SOL    HW135503   3.694   1.741   1.468  1.8229  1.5390 -0.1386
11629SOL    HW235504   3.680   1.696   1.612 -0.6074 -0.9784 -1.0817
11630SOL     OW35505   3.735   1.512   2.993  0.2766  0.4018  0.3141
11630SOL    HW135506   3.711   1.531   2.903 -1.8425 -1.0831  0.4891
11630SOL    HW235507   3.829   1.532   2.998  0.6536 -0.3020 -2.4286
11631SOL     OW35508   6.877   5.400   6.385 -0.2392 -0.3150 -0.2344
11631SOL    HW135509   6.909   5.315   6.414 -1.4627 -0.1741  1.7310
11631SOL    HW235510   6.956   5.451   6.367  0.5376 -2.1063 -2.4829
11632SOL     OW35511   1.908   6.108   5.194 -0.4637  0.0840  0.2185
11632SOL    HW135512   1.913   6.110   5.098 -1.7847 -1.3812  0.0853
11632SOL    HW235513   1.954   6.028   5.219  2.6103  1.9389  1.1190
11633SOL     OW35514   2.465   5.495   5.654  0.3059  0.0442  0.0661
11633SOL    HW135515   2.481   5.405   5.628 -0.5782 -0.1750  0.2388
11633SOL    HW235516   2.406   5.488   5.729 -1.0273  0.7946 -0.8787
11634SOL     OW35517   0.203   0.298   6.119 -0.3329 -0.0491  0.3916
11634SOL    HW135518   0.212   0.302   6.214 -0.9895  1.5924  0.4121
11634SOL    HW235519   0.152   0.219   6.102 -0.2924 -0.2971  1.3978
11635SOL     OW35520   5.635   5.834   1.578  0.1963 -0.0127  0.0506
11635SOL    HW135521   5.729   5.851   1.570  0.3162 -0.7966 -0.2450
11635SOL    HW235522   5.600   5.915   1.614  0.8815  0.5423 -0.4970
11636SOL     OW35523   0.606   4.105   5.238  0.0256 -0.2243 -0.0243
11636SOL    HW135524   0.564   4.095   5.153 -1.5694 -0.8538  0.7998
11636SOL    HW235525   0.557   4.175   5.282  0.5012 -0.2513  0.5755
11637SOL     OW35526   0.501   5.562   0.415 -0.4281  0.0052 -0.1686
11637SOL    HW135527   0.440   5.611   0.358 -0.4021  1.6215  1.1026
11637SOL    HW235528   0.587   5.597   0.393 -0.3270  0.0113  0.2249
11638SOL     OW35529   5.657   2.591   2.498  0.5093  0.3546  0.8497
11638SOL    HW135530   5.751   2.589   2.481  0.4467 -0.7037  0.5861
11638SOL    HW235531   5.641   2.519   2.558 -0.1813  0.3463  0.6657
11639SOL     OW35532   6.001   4.052   0.384  0.0523 -0.0024  0.0730
11639SOL    HW135533   6.005   3.956   0.388 -2.9269 -0.1824  1.1153
11639SOL    HW235534   6.026   4.080   0.472 -0.4897  0.0534  0.2160
11640SOL     OW35535   0.758   5.762   3.269 -0.5893  0.0692 -0.0716
11640SOL    HW135536   0.728   5.672   3.257  0.9622 -0.6223  0.9942
11640SOL    HW235537   0.699   5.799   3.335 -1.4076 -0.0436 -0.7168
11641SOL     OW35538   3.150   3.838   2.160  0.2289 -0.4664  0.0036
11641SOL    HW135539   3.138   3.746   2.182 -0.9925 -0.4813 -0.6714
11641SOL    HW235540   3.081   3.883   2.208  1.5914  0.2794  1.3492
11642SOL     OW35541   7.149   2.175   1.425 -0.2870  0.3083  0.0620
11642SOL    HW135542   7.236   2.171   1.465  0.1207  0.3586 -0.8013
11642SOL    HW235543   7.163   2.150   1.334 -1.0750  0.9540 -0.2502
11643SOL     OW35544   2.981   5.391   0.947 -0.5094 -0.1403 -0.1139
11643SOL    HW135545   3.003   5.351   0.863  2.7089  1.0348  0.0457
11643SOL    HW235546   3.018   5.332   1.012  0.4769  0.8853  0.2841
11644SOL     OW35547   2.310   6.644   5.302  0.0860  0.4923 -0.0506
11644SOL    HW135548   2.259   6.616   5.225 -1.7512  0.5696  1.0837
11644SOL    HW235549   2.375   6.705   5.266  0.4738 -0.8564 -1.7814
11645SOL     OW35550   6.533   0.981   1.182 -0.0793 -0.2162  0.4803
11645SOL    HW135551   6.493   0.931   1.110  1.6074 -0.2684 -0.4742
11645SOL    HW235552   6.477   0.963   1.257 -1.1370 -1.2496 -0.5086
11646SOL     OW35553   3.237   6.709   2.657 -0.8321 -0.0961  0.1300
11646SOL    HW135554   3.231   6.801   2.682  1.1524 -0.7089  3.3729
11646SOL    HW235555   3.203   6.661   2.732 -1.1911 -2.0834 -1.2237
11647SOL     OW35556   3.310   0.004   1.524 -0.4567  0.2993 -0.3511
11647SOL    HW135557   3.281  -0.043   1.603  0.3629 -0.8766 -0.7144
11647SOL    HW235558   3.230   0.014   1.472 -0.9492  0.8131  0.4830
11648SOL     OW35559   6.754   6.433   3.887 -0.2631 -0.3472 -0.1041
11648SOL    HW135560   6.675   6.382   3.870 -0.7621  1.0388 -2.4802
11648SOL    HW235561   6.773   6.476   3.803  2.6179 -0.0612  0.5818
11649SOL     OW35562   6.936   3.268   3.541  0.4739  0.3608 -0.4422
11649SOL    HW135563   6.973   3.324   3.609  1.7508 -0.1607 -0.6659
11649SOL    HW235564   6.920   3.185   3.584  0.4634  0.2945 -0.5738
11650SOL     OW35565   5.306   6.111   4.904  0.4660  0.1541 -0.3146
11650SOL    HW135566   5.221   6.069   4.920  1.1150 -1.1084 -0.0816
11650SOL    HW235567   5.325   6.157   4.985  0.9609 -1.3087  0.4341
11651SOL     OW35568   3.862   2.160   3.444  0.1257 -0.5667  0.1637
11651SOL    HW135569   3.874   2.178   3.538  3.1129 -1.2451 -0.0028
11651SOL    HW235570   3.792   2.095   3.441 -0.3589 -0.1857  1.8725
11652SOL     OW35571   4.175   6.786   6.713  0.2758  0.2149 -0.6560
11652SOL    HW135572   4.259   6.767   6.755  0.7379 -0.2131 -1.7496
11652SOL    HW235573   4.155   6.876   6.740 -0.5862 -0.7243  2.3130
11653SOL     OW35574   4.527   1.522   1.048  0.2052 -0.4168  0.5641
11653SOL    HW135575   4.464   1.594   1.059  0.0434 -0.5010  0.2062
11653SOL    HW235576   4.609   1.557   1.083  0.1989  0.0461  0.1245
11654SOL     OW35577   3.592   4.309   4.582 -0.1340 -0.0131  0.3699
11654SOL    HW135578   3.566   4.390   4.627  0.3884  0.6849 -0.5656
11654SOL    HW235579   3.528   4.244   4.612  0.2020  0.4212  2.1252
11655SOL     OW35580   2.869   4.107   1.343 -0.2689  0.7011 -0.0847
11655SOL    HW135581   2.937   4.082   1.406 -0.7495 -1.1750 -0.2517
11655SOL    HW235582   2.789   4.112   1.395 -0.2104  1.8838 -0.0786
11656SOL     OW35583   5.902   2.311   3.026  0.4055  0.2911 -0.1104
11656SOL    HW135584   5.837   2.319   2.956  0.8506  1.0906 -0.4501
11656SOL    HW235585   5.935   2.222   3.019 -0.5038 -0.0547 -0.0679
11657SOL     OW35586   3.405   6.278   2.473 -0.3459  0.6688  0.2467
11657SOL    HW135587   3.388   6.250   2.563 -1.1708 -0.2153 -0.1715
11657SOL    HW235588   3.389   6.372   2.474  1.5871  1.0559  1.4717
11658SOL     OW35589   5.591   3.421   3.641  0.4623  0.1351  0.1230
11658SOL    HW135590   5.572   3.381   3.556  2.6549  0.0566 -0.3919
11658SOL    HW235591   5.549   3.507   3.636 -0.8272 -0.4972 -0.3681
11659SOL     OW35592   1.168   4.420   3.601 -0.1381 -0.3458 -0.1851
11659SOL    HW135593   1.125   4.400   3.517 -0.0608 -1.8854  0.1177
11659SOL    HW235594   1.156   4.514   3.611 -0.6808 -0.2226 -1.6373
11660SOL     OW35595   4.012   5.629   2.990 -0.4697  0.0077 -0.1336
11660SOL    HW135596   4.101   5.660   3.010 -0.6033  0.3071  0.0013
11660SOL    HW235597   4.018   5.534   2.998  0.1002 -0.0605 -1.1559
11661SOL     OW35598   0.955   2.061   4.555 -0.3059 -0.2486  0.0763
11661SOL    HW135599   0.902   1.982   4.558  0.6723 -0.8904  0.8290
11661SOL    HW235600   0.923   2.115   4.627 -0.8684  0.0003 -0.3434
11662SOL     OW35601   4.524   0.851   5.379 -0.4068  0.1448  0.1285
11662SOL    HW135602   4.463   0.900   5.434  0.2021  1.5929 -0.4248
11662SOL    HW235603   4.593   0.914   5.357  1.2940 -1.4311  0.7076
11663SOL     OW35604   3.953   6.415   0.251 -0.2570 -0.1564 -0.6891
11663SOL    HW135605   3.887   6.414   0.182  0.4341  2.6975 -1.5399
11663SOL    HW235606   3.920   6.479   0.315 -0.4378 -2.0467  1.2358
11664SOL     OW35607   5.457   1.452   6.988  0.0313 -0.0264 -0.0189
11664SOL    HW135608   5.377   1.472   7.036  0.0029 -2.4767  1.1282
11664SOL    HW235609   5.518   1.419   7.054  0.6331 -1.7841 -1.3501
11665SOL     OW35610   5.761   3.684   4.279 -0.1196 -0.3887 -0.0034
11665SOL    HW135611   5.827   3.620   4.251  1.1923  1.3748 -1.2166
11665SOL    HW235612   5.776   3.759   4.222 -0.5538  1.6049  2.3676
11666SOL     OW35613   5.425   1.233   0.530 -0.1222 -0.0837 -0.0410
11666SOL    HW135614   5.427   1.291   0.606  1.6035  0.9419 -0.8145
11666SOL    HW235615   5.361   1.165   0.553 -2.4079  2.2276  0.7968
11667SOL     OW35616   2.718   6.168   3.901  1.0095 -0.1629  0.1024
11667SOL    HW135617   2.745   6.190   3.811 -0.8598 -0.4281 -0.5595
11667SOL    HW235618   2.630   6.203   3.909  0.7641 -1.0256  1.5176
11668SOL     OW35619   0.696   0.586   6.989 -0.0582 -0.0192  0.6101
11668SOL    HW135620   0.660   0.669   6.958  1.2078 -0.4957 -2.5715
11668SOL    HW235621   0.791   0.601   6.991  0.1329 -1.1899  0.6576
11669SOL     OW35622   0.841   6.115   2.133  0.5986 -0.2556 -0.6339
11669SOL    HW135623   0.766   6.163   2.169  0.3968 -1.2394  0.2997
11669SOL    HW235624   0.885   6.179   2.077  1.7579  1.8751  2.4186
11670SOL     OW35625   3.529   1.991   2.144 -0.0433 -0.1764 -0.2423
11670SOL    HW135626   3.536   2.072   2.195 -0.5286 -0.3581  0.1223
11670SOL    HW235627   3.551   1.922   2.205 -0.0929 -0.3566 -0.4272
11671SOL     OW35628   3.844   6.075   6.328  0.0039  0.2508 -0.0206
11671SOL    HW135629   3.934   6.106   6.337  0.6286 -1.4283 -0.0460
11671SOL    HW235630   3.838   6.045   6.238 -0.7183  0.7294 -0.1362
11672SOL     OW35631   2.373   0.642   5.469  0.4251  0.0099  0.4874
11672SOL    HW135632   2.331   0.717   5.426  0.5878 -0.6038 -0.7836
11672SOL    HW235633   2.400   0.676   5.555 -1.8511  0.6811  1.0174
11673SOL     OW35634   3.066   2.057   1.012 -0.0945 -0.5264 -0.0182
11673SOL    HW135635   3.041   2.131   0.958 -1.4044  0.1927  1.5009
11673SOL    HW235636   2.988   2.038   1.064  1.3925 -0.5363  2.3210
11674SOL     OW35637   1.384   4.692   0.040  0.1397 -0.2700 -0.5902
11674SOL    HW135638   1.448   4.719   0.105  1.3029  0.6155 -2.0445
11674SOL    HW235639   1.306   4.744   0.061 -0.6183 -2.2088  1.9230
11675SOL     OW35640   6.712   3.603   3.930  0.4922  0.4958 -0.0336
11675SOL    HW135641   6.621   3.625   3.951  0.5972  0.5304  0.3891
11675SOL    HW235642   6.711   3.507   3.920  0.7056  0.3163  1.4876
11676SOL     OW35643   3.928   0.206   0.614 -0.5483  0.7816 -0.3084
11676SOL    HW135644   3.970   0.171   0.536  0.6305  0.3183  0.4889
11676SOL    HW235645   3.844   0.239   0.584  0.1081  1.1333 -1.8615
11677SOL     OW35646   3.602   7.128   4.894 -0.5741  0.5155  0.0040
11677SOL    HW135647   3.626   7.060   4.831 -1.0525  1.4745 -1.2459
11677SOL    HW235648   3.639   7.097   4.977 -2.1120 -2.0363 -0.1609
11678SOL     OW35649   3.060   2.393   0.241  0.7082 -0.3948 -0.1138
11678SOL    HW135650   3.011   2.472   0.216  2.0516  1.9313  3.6624
11678SOL    HW235651   2.994   2.332   0.273 -0.1610  0.3693 -0.4064
11679SOL     OW35652   0.162   1.170   3.967  0.3139 -0.5062  0.4889
11679SOL    HW135653   0.257   1.174   3.978  0.1541  0.0656  1.8636
11679SOL    HW235654   0.142   1.077   3.970  0.9129 -0.6955 -0.7357
11680SOL     OW35655   3.673   3.212   2.400 -0.6618 -0.3838 -0.4043
11680SOL    HW135656   3.654   3.306   2.399  0.1737 -0.1953  0.3934
11680SOL    HW235657   3.738   3.201   2.469 -0.6516 -1.5381 -0.5741
11681SOL     OW35658   2.646   4.840   4.789 -0.0667  0.1823 -0.0607
11681SOL    HW135659   2.588   4.869   4.859 -0.3788  0.7246 -0.5351
11681SOL    HW235660   2.657   4.746   4.804  0.7076  0.4634  1.3144
11682SOL     OW35661   2.162   1.121   6.030  0.6320  0.2573  0.3117
11682SOL    HW135662   2.126   1.203   6.065 -0.2240  0.4661 -0.9921
11682SOL    HW235663   2.088   1.060   6.033  1.0165 -0.2105  0.4116
11683SOL     OW35664   6.690   5.181   6.363  0.3524 -0.8030 -0.8223
11683SOL    HW135665   6.726   5.266   6.338 -0.6678  0.2210  0.9631
11683SOL    HW235666   6.702   5.178   6.458 -2.2765 -1.3430 -0.4386
11684SOL     OW35667   5.846   1.199   2.053 -0.1632 -0.1346 -0.2185
11684SOL    HW135668   5.847   1.137   2.126  1.0324 -0.0127 -0.1122
11684SOL    HW235669   5.755   1.231   2.050 -0.0358  0.5447  1.7911
11685SOL     OW35670   6.820   1.286   5.579  0.4898  0.3078 -0.1718
11685SOL    HW135671   6.748   1.223   5.582  0.7254  0.0394 -0.0103
11685SOL    HW235672   6.852   1.283   5.489 -0.6876  1.5692 -0.6553
11686SOL     OW35673   1.940   3.779   4.566  0.2817  0.1863 -0.1563
11686SOL    HW135674   1.857   3.744   4.533  0.0794 -0.9757  1.4712
11686SOL    HW235675   2.004   3.711   4.545  0.5027  0.3207  0.0776
11687SOL     OW35676   0.649   4.429   3.692 -0.2727 -0.0542 -0.0387
11687SOL    HW135677   0.588   4.503   3.687 -0.2834 -0.1083 -0.8490
11687SOL    HW235678   0.636   4.393   3.780 -2.0490 -0.5891 -0.4654
11688SOL     OW35679   6.151   5.934   1.639  0.0839  0.3706  0.1436
11688SOL    HW135680   6.195   5.943   1.554 -0.3578 -1.3306 -0.2968
11688SOL    HW235681   6.220   5.906   1.699 -0.1701 -1.3891 -0.3439
11689SOL     OW35682   7.074   7.201   3.432  0.0687 -0.1132 -0.1771
11689SOL    HW135683   7.125   7.280   3.413 -0.5927  0.1027 -1.1343
11689SOL    HW235684   7.089   7.184   3.525  1.1993  0.4254 -0.2485
11690SOL     OW35685   1.774   7.175   0.300  0.0393  0.0210  0.0685
11690SOL    HW135686   1.817   7.175   0.386 -1.1876  1.2816  0.7299
11690SOL    HW235687   1.680   7.183   0.320 -0.2676  0.3608 -1.3809
11691SOL     OW35688   1.313   0.987   1.327  0.6760  0.0376 -0.1705
11691SOL    HW135689   1.242   0.958   1.385  0.5054 -0.9042 -0.8332
11691SOL    HW235690   1.286   1.075   1.299 -0.1740 -0.2623 -0.3247
11692SOL     OW35691   4.047   5.544   1.897  0.2456  0.2768 -0.2182
11692SOL    HW135692   4.140   5.548   1.875 -0.0668  0.6422 -1.5458
11692SOL    HW235693   4.002   5.548   1.813 -0.9876  0.3796  0.4223
11693SOL     OW35694   2.459   0.666   5.727  0.0705 -0.0257 -0.2229
11693SOL    HW135695   2.516   0.593   5.704 -0.1072  0.4534 -2.4092
11693SOL    HW235696   2.516   0.743   5.723 -0.2546  0.2164 -0.2950
11694SOL     OW35697   0.790   0.003   5.962 -0.1227  0.0878 -0.0243
11694SOL    HW135698   0.865  -0.032   6.010 -0.1995  0.6102  0.4888
11694SOL    HW235699   0.809   0.096   5.952  0.5315 -0.2494 -2.2332
11695SOL     OW35700   5.857   0.545   1.820  0.4970  0.2189  0.0698
11695SOL    HW135701   5.775   0.505   1.849  0.0498  0.2201 -1.1339
11695SOL    HW235702   5.830   0.611   1.756  1.4375  0.1280 -0.4428
11696SOL     OW35703   6.288   7.192   0.227  0.3148  0.0431 -0.7234
11696SOL    HW135704   6.303   7.099   0.212  0.8463 -0.3280  1.6281
11696SOL    HW235705   6.194   7.204   0.212 -0.3249 -1.5073  1.4900
11697SOL     OW35706   5.598   3.446   5.738  0.0373  0.5617  0.1466
11697SOL    HW135707   5.685   3.477   5.713 -0.7326  2.7350  0.0002
11697SOL    HW235708   5.602   3.351   5.725  2.0476  0.7298 -0.8312
11698SOL     OW35709   6.393   0.551   6.310  0.3548  0.2381 -0.1825
11698SOL    HW135710   6.418   0.472   6.358 -0.5613 -1.6144 -2.5520
11698SOL    HW235711   6.447   0.549   6.232  0.1676  1.8897 -0.3807
11699SOL     OW35712   6.627   1.608   4.684 -0.2192  0.1689 -0.2127
11699SOL    HW135713   6.561   1.539   4.680 -0.3994  0.3637 -0.7108
11699SOL    HW235714   6.618   1.645   4.772  0.2385 -0.7825  0.2588
11700SOL     OW35715   6.928   1.195   2.528 -0.3545 -0.1572 -0.0549
11700SOL    HW135716   6.880   1.188   2.610 -0.3692 -0.1883 -0.0662
11700SOL    HW235717   7.020   1.196   2.554 -0.3761  1.5259  0.0982
11701SOL     OW35718   2.546   2.724   3.939  0.2782 -0.1645  0.4650
11701SOL    HW135719   2.451   2.735   3.937  0.3959  0.8491 -1.1355
11701SOL    HW235720   2.560   2.655   4.003 -1.5781 -0.7572  0.3039
11702SOL     OW35721   4.950   0.432   3.201 -0.2453 -0.0507  0.3707
11702SOL    HW135722   4.945   0.433   3.105  0.2770 -0.6621  0.3324
11702SOL    HW235723   4.925   0.343   3.226 -2.3225  0.6425  0.9386
11703SOL     OW35724   3.416   3.657   1.524  0.3454  0.8588 -0.2971
11703SOL    HW135725   3.458   3.741   1.536  1.0798  1.0009 -3.1785
11703SOL    HW235726   3.486   3.593   1.537  0.2137  0.7823  0.0549
11704SOL     OW35727   4.313   6.199   5.818  0.3702  0.1370  0.1587
11704SOL    HW135728   4.397   6.193   5.774  1.3511  0.2167  1.9195
11704SOL    HW235729   4.295   6.293   5.824  0.5038  0.1475  0.3995
11705SOL     OW35730   4.901   1.155   3.381 -0.0848 -0.3139 -0.1718
11705SOL    HW135731   4.974   1.152   3.320 -0.2868 -2.5423 -0.3854
11705SOL    HW235732   4.892   1.065   3.412 -0.6665  0.5420  2.3646
11706SOL     OW35733   0.146   5.953   6.733  0.3405 -0.2308 -0.2344
11706SOL    HW135734   0.058   5.967   6.697  1.3161 -1.1197 -3.1952
11706SOL    HW235735   0.182   6.041   6.741 -0.7530  0.1499  1.0545
11707SOL     OW35736   3.863   6.268   1.710  1.2006  0.3399 -0.0335
11707SOL    HW135737   3.840   6.325   1.637 -0.2330  0.4276  0.4572
11707SOL    HW235738   3.849   6.321   1.788 -3.3604 -1.4353  0.6892
11708SOL     OW35739   1.499   6.431   3.405  0.0951 -0.4459  0.2447
11708SOL    HW135740   1.483   6.497   3.473  2.9097  3.5612 -2.5323
11708SOL    HW235741   1.420   6.433   3.350 -0.0150  0.3087  0.4259
11709SOL     OW35742   7.135   6.598   5.471 -0.0641 -0.4790 -0.5267
11709SOL    HW135743   7.219   6.576   5.510  1.3908  0.0026 -3.1599
11709SOL    HW235744   7.150   6.681   5.426 -2.0854 -0.1575 -0.7114
11710SOL     OW35745   2.093   1.915   2.157  0.1562 -0.9271 -0.0064
11710SOL    HW135746   2.084   1.945   2.248  0.5034  2.0123 -0.8764
11710SOL    HW235747   2.003   1.909   2.125  0.1091  1.3408 -0.4206
11711SOL     OW35748   0.851   3.255   4.690 -0.1251  0.3350 -0.1060
11711SOL    HW135749   0.862   3.179   4.633  0.9275  0.6126 -0.2787
11711SOL    HW235750   0.896   3.232   4.771  2.6623  1.8133 -1.1296
11712SOL     OW35751   2.419   1.313   3.697 -0.3716  0.2349  0.3824
11712SOL    HW135752   2.419   1.249   3.769 -0.6878 -1.1838 -0.8421
11712SOL    HW235753   2.510   1.343   3.692 -0.1039 -0.5035  0.6539
11713SOL     OW35754   3.915   3.869   0.425 -0.0580  0.4938  0.3261
11713SOL    HW135755   3.834   3.843   0.381 -0.6668  1.0786  1.0765
11713SOL    HW235756   3.970   3.904   0.355 -0.6718  0.6105 -0.1075
11714SOL     OW35757   1.690   6.578   0.762 -0.0197 -0.2451 -0.0412
11714SOL    HW135758   1.754   6.630   0.810  0.2008 -0.1230 -0.4675
11714SOL    HW235759   1.625   6.641   0.732 -1.1381 -0.5353  1.6073
11715SOL     OW35760   6.141   0.753   5.854 -0.2940  0.3534 -0.4722
11715SOL    HW135761   6.137   0.692   5.928  1.4199 -0.0156 -0.6418
11715SOL    HW235762   6.101   0.705   5.782  0.9305 -0.5699 -0.5706
11716SOL     OW35763   6.344   1.342   1.049 -0.0729  0.3506 -0.2290
11716SOL    HW135764   6.347   1.382   0.963  1.0728  0.8268  0.0067
11716SOL    HW235765   6.419   1.380   1.096  1.0244 -1.9659  0.0405
11717SOL     OW35766   5.588   3.213   2.727 -0.2264  0.4305  0.3141
11717SOL    HW135767   5.675   3.227   2.765  0.0039 -1.8033  0.7887
11717SOL    HW235768   5.578   3.118   2.726 -1.4371  0.4909 -2.5931
11718SOL     OW35769   6.105   5.682   2.239  0.4290  0.3823  0.2665
11718SOL    HW135770   6.156   5.668   2.318  0.2803  1.1817  0.5187
11718SOL    HW235771   6.164   5.657   2.167  0.2933 -1.0952  0.6380
11719SOL     OW35772   6.916   6.278   4.384  0.2525  0.3970 -0.3246
11719SOL    HW135773   6.982   6.330   4.428 -0.2399  1.0136 -0.2998
11719SOL    HW235774   6.869   6.340   4.328  0.5008 -0.2602 -1.2952
11720SOL     OW35775   3.836   0.789   7.030 -0.2264 -0.0996  0.2657
11720SOL    HW135776   3.817   0.697   7.012  0.0517 -0.1978  0.4592
11720SOL    HW235777   3.852   0.828   6.944 -1.7456  0.0972  0.0509
11721SOL     OW35778   2.691   5.244   3.472 -0.2698  0.0391 -0.1079
11721SOL    HW135779   2.601   5.255   3.503  0.0370  1.6879  0.3108
11721SOL    HW235780   2.744   5.245   3.551  0.1408 -0.6842 -0.3668
11722SOL     OW35781   0.190   3.537   0.585  0.5509  0.1091 -0.4018
11722SOL    HW135782   0.200   3.460   0.642  3.6608 -1.2564 -2.5300
11722SOL    HW235783   0.132   3.508   0.515  0.0118  0.4331 -0.0943
11723SOL     OW35784   6.385   4.983   2.545 -0.1229 -0.1336 -0.1662
11723SOL    HW135785   6.352   4.893   2.547  0.3320 -0.3243 -0.8010
11723SOL    HW235786   6.333   5.029   2.611 -1.3562 -0.5190 -0.8414
11724SOL     OW35787   1.848   2.875   3.000 -0.4216 -0.0148  0.3707
11724SOL    HW135788   1.923   2.844   2.949 -0.0332  0.9592  0.3295
11724SOL    HW235789   1.797   2.796   3.018 -1.2047 -0.3016 -2.5184
11725SOL     OW35790   3.850   1.443   5.367  0.1648 -0.4007  0.1075
11725SOL    HW135791   3.846   1.467   5.274 -1.4264  2.2842  0.7610
11725SOL    HW235792   3.826   1.523   5.414  2.4966 -1.1752  2.9498
11726SOL     OW35793   6.777   2.132   1.647 -0.3338 -0.4056 -0.0411
11726SOL    HW135794   6.736   2.112   1.731 -0.2124  0.2662  0.1795
11726SOL    HW235795   6.817   2.049   1.620 -0.7649 -0.7449  0.3345
11727SOL     OW35796   3.055   1.638   4.061  0.2175  0.7073  0.1653
11727SOL    HW135797   3.137   1.600   4.031 -0.3084 -0.0251 -0.3917
11727SOL    HW235798   3.017   1.571   4.118 -0.3236  0.7312 -0.1563
11728SOL     OW35799   6.270   2.772   1.010 -0.2952  0.2009  0.0074
11728SOL    HW135800   6.356   2.754   1.048 -0.5293  2.0906  1.5825
11728SOL    HW235801   6.271   2.867   0.994 -3.2096  1.0165  3.3473
11729SOL     OW35802   2.455   3.291   0.917  0.1445 -0.1693  0.6615
11729SOL    HW135803   2.414   3.324   0.997  0.3322  1.4552  0.1305
11729SOL    HW235804   2.540   3.257   0.946 -0.0058 -0.0809  1.2220
11730SOL     OW35805   5.046   5.200   4.705  0.7671  0.1872 -0.7231
11730SOL    HW135806   5.065   5.155   4.787 -2.5977 -0.6401 -0.2548
11730SOL    HW235807   5.076   5.140   4.637 -2.7495 -2.6051 -0.0918
11731SOL     OW35808   3.936   2.621   0.321  0.5649  0.4184 -0.1446
11731SOL    HW135809   4.020   2.666   0.315  0.4294  0.4831 -3.0496
11731SOL    HW235810   3.945   2.544   0.266 -0.3748 -1.2270  1.8894
11732SOL     OW35811   7.128   0.438   4.095 -0.5302  0.4824 -0.5467
11732SOL    HW135812   7.136   0.460   4.002 -1.7154  1.3306 -0.4703
11732SOL    HW235813   7.047   0.481   4.123 -1.4518 -1.6795  0.3282
11733SOL     OW35814   4.214   5.029   3.588  0.0067 -0.2591  0.0258
11733SOL    HW135815   4.301   4.990   3.575  0.4909  0.5345  0.7875
11733SOL    HW235816   4.213   5.104   3.528  0.7041  1.0119  1.5216
11734SOL     OW35817   2.920   5.335   6.852 -0.6028  0.4544 -0.5523
11734SOL    HW135818   2.967   5.298   6.777 -1.4394 -0.5166 -0.6155
11734SOL    HW235819   2.844   5.279   6.862 -0.3535  0.3901  1.2266
11735SOL     OW35820   2.933   0.311   3.466  0.2141  0.1232  0.5426
11735SOL    HW135821   2.886   0.336   3.546 -1.1976 -0.4485 -0.0763
11735SOL    HW235822   2.967   0.224   3.484  1.6622  0.7994  1.2336
11736SOL     OW35823   5.926   5.932   6.603 -0.3219 -0.4471  0.9971
11736SOL    HW135824   5.913   6.000   6.537  1.8660 -0.5446  0.3792
11736SOL    HW235825   5.953   5.979   6.682  1.1540 -0.5417  0.5806
11737SOL     OW35826   4.679   2.330   6.325 -0.0703  0.1871 -0.4367
11737SOL    HW135827   4.698   2.294   6.238  2.0208 -3.0860  1.1748
11737SOL    HW235828   4.763   2.363   6.356 -0.8433  1.5594  0.3191
11738SOL     OW35829   2.919   6.288   5.012 -0.4424  0.5940  0.9146
11738SOL    HW135830   2.915   6.365   5.070 -1.3570  1.7479 -0.6109
11738SOL    HW235831   2.829   6.253   5.013 -0.0639 -0.4147  1.4892
11739SOL     OW35832   6.152   3.439   2.536 -0.2285 -0.0564  0.1941
11739SOL    HW135833   6.159   3.532   2.555 -0.1759 -0.1595  0.6964
11739SOL    HW235834   6.225   3.399   2.583 -0.3901 -0.3801  0.1755
11740SOL     OW35835   6.009   4.348   7.078 -0.2815 -0.4880  0.5637
11740SOL    HW135836   6.062   4.370   7.155  0.2175 -1.5995  0.5481
11740SOL    HW235837   6.041   4.262   7.050 -1.7311 -0.9433  0.2261
11741SOL     OW35838   6.787   2.924   4.564 -0.2500  0.1721 -0.0466
11741SOL    HW135839   6.747   3.010   4.552  1.3314  0.7571 -1.4744
11741SOL    HW235840   6.718   2.872   4.607 -1.3649  2.0121  0.5395
11742SOL     OW35841   6.170   3.658   6.776 -0.1765  0.3755 -0.3931
11742SOL    HW135842   6.238   3.594   6.755 -1.7821 -2.6755  2.7574
11742SOL    HW235843   6.215   3.724   6.829  0.7481 -0.3237 -0.2879
11743SOL     OW35844   4.359   0.401   1.301  0.3344  0.6682  0.0869
11743SOL    HW135845   4.313   0.384   1.219 -1.1978  0.9820  0.8354
11743SOL    HW235846   4.450   0.378   1.283 -0.2795 -1.0120 -1.1563
11744SOL     OW35847   2.194   6.386   6.380  0.4588  0.0629 -0.2270
11744SOL    HW135848   2.118   6.327   6.383  1.6943 -1.6490 -0.9195
11744SOL    HW235849   2.267   6.332   6.410  1.7210  1.0912 -1.3219
11745SOL     OW35850   2.538   3.904   6.519  0.2436  0.0461 -0.1899
11745SOL    HW135851   2.596   3.969   6.479  0.1668 -0.4602 -1.1471
11745SOL    HW235852   2.540   3.925   6.612  1.1555  0.6813 -0.3333
11746SOL     OW35853   2.358   6.902   6.064 -0.0978 -0.6122 -0.1977
11746SOL    HW135854   2.290   6.962   6.095  0.0151 -1.1264  1.1094
11746SOL    HW235855   2.426   6.959   6.028  0.5990  0.1581  2.2074
11747SOL     OW35856   4.345   1.532   6.090 -0.2466  0.1672 -0.4759
11747SOL    HW135857   4.439   1.548   6.083 -0.0174 -1.2133 -0.8753
11747SOL    HW235858   4.329   1.530   6.184  0.2711 -0.3096 -0.3878
11748SOL     OW35859   4.514   6.467   3.467  0.0257 -0.3659 -0.3090
11748SOL    HW135860   4.488   6.390   3.516 -0.2664 -0.4411 -0.5805
11748SOL    HW235861   4.542   6.530   3.534  0.5965 -0.8263 -0.1065
11749SOL     OW35862   6.758   6.036   6.572  0.2252 -0.1512 -0.3255
11749SOL    HW135863   6.799   6.052   6.487  1.6696 -0.1855  0.3447
11749SOL    HW235864   6.705   5.957   6.558 -0.7586  0.6809 -1.5675
11750SOL     OW35865   5.776   6.059   6.046 -0.3655  0.4013 -0.5547
11750SOL    HW135866   5.858   6.083   6.002  0.2139  0.1364  0.3555
11750SOL    HW235867   5.750   6.138   6.094  1.9420 -0.7973  3.0602
11751SOL     OW35868   1.161   0.867   2.180 -0.1537  0.2335  0.0035
11751SOL    HW135869   1.216   0.796   2.211 -1.1707 -1.7478 -2.3856
11751SOL    HW235870   1.222   0.939   2.162  0.9577 -0.1242  2.0455
11752SOL     OW35871   5.635   0.536   6.673  0.2051 -0.5856 -0.2043
11752SOL    HW135872   5.570   0.497   6.615  0.1624 -1.8285  0.6475
11752SOL    HW235873   5.630   0.630   6.656 -0.6858 -0.8201 -1.2895
11753SOL     OW35874   4.530   3.412   6.998 -0.4894  0.6331 -0.4318
11753SOL    HW135875   4.490   3.336   7.041  1.2630  0.2235  0.5650
11753SOL    HW235876   4.457   3.473   6.984 -1.6260 -0.5056  0.3285
11754SOL     OW35877   6.493   0.019   0.059 -0.1476 -0.1742 -0.4231
11754SOL    HW135878   6.398   0.016   0.073 -0.2072  0.0207 -0.7695
11754SOL    HW235879   6.529   0.041   0.144 -0.5018  0.9693 -0.5497
11755SOL     OW35880   1.330   7.050   6.323 -0.4487 -0.3090  0.0569
11755SOL    HW135881   1.345   7.140   6.296 -0.3839 -0.6924 -1.2658
11755SOL    HW235882   1.364   7.046   6.413 -1.3669  1.2077  0.4983
11756SOL     OW35883   3.945   2.647   3.589  0.0244 -0.3838  0.0642
11756SOL    HW135884   4.032   2.633   3.626  0.8202 -1.0673 -1.9766
11756SOL    HW235885   3.891   2.581   3.633  0.4417  0.1938  1.5153
11757SOL     OW35886   3.455   1.152   6.684 -0.2410 -0.0238  0.6353
11757SOL    HW135887   3.363   1.177   6.692 -0.4512  0.0022 -1.3143
11757SOL    HW235888   3.497   1.229   6.646  0.2217 -0.6188 -0.0922
11758SOL     OW35889   4.184   6.350   4.008 -0.8823 -0.0108 -0.5679
11758SOL    HW135890   4.160   6.388   4.092  0.9591  1.3389 -0.5945
11758SOL    HW235891   4.248   6.281   4.029 -0.5317  0.2268 -0.8315
11759SOL     OW35892   3.165   4.818   0.856  0.4892  0.1780  0.0433
11759SOL    HW135893   3.157   4.724   0.874  2.2057  0.4053  2.4762
11759SOL    HW235894   3.131   4.861   0.934  0.4072  1.5873 -0.7236
11760SOL     OW35895   1.090   3.052   6.648  0.3007  0.5056  0.5439
11760SOL    HW135896   1.070   3.132   6.600  0.9691  0.4475  0.1478
11760SOL    HW235897   1.176   3.026   6.615 -0.0282 -0.5190  0.4760
11761SOL     OW35898   3.660   4.421   7.196 -0.5359 -0.1066 -0.1151
11761SOL    HW135899   3.708   4.343   7.224  0.7884  1.7053  3.2566
11761SOL    HW235900   3.716   4.461   7.131  0.3033 -0.4012  0.4073
11762SOL     OW35901   4.832   1.963   6.207  0.0289  0.0770  0.2283
11762SOL    HW135902   4.777   2.023   6.157  0.3497  0.0093 -0.2222
11762SOL    HW235903   4.836   1.884   6.153  0.7277  0.1549  0.1548
11763SOL     OW35904   0.542   2.360   2.554 -0.6194  0.0880 -0.0389
11763SOL    HW135905   0.554   2.385   2.463  0.0527  0.0832  0.0448
11763SOL    HW235906   0.509   2.270   2.550 -0.5318  0.0660 -0.2740
11764SOL     OW35907   6.189   3.573   1.093 -0.3561  0.4746  0.7024
11764SOL    HW135908   6.186   3.512   1.019  1.7570 -0.4444  1.2992
11764SOL    HW235909   6.272   3.554   1.137 -0.4815  2.5502  2.0015
11765SOL     OW35910   3.727   3.844   0.210 -0.0496  0.3905  0.8311
11765SOL    HW135911   3.632   3.838   0.209  0.0132 -1.0801 -0.5009
11765SOL    HW235912   3.747   3.917   0.150 -0.3172  0.5696  0.9570
11766SOL     OW35913   6.973   4.604   4.193 -0.3486 -0.0807  0.0789
11766SOL    HW135914   6.987   4.699   4.198  1.2136 -0.2890  0.1949
11766SOL    HW235915   7.039   4.574   4.131 -0.2863 -1.2054  0.6762
11767SOL     OW35916   0.799   4.227   5.399 -0.4588  0.0960  0.0368
11767SOL    HW135917   0.836   4.232   5.310 -0.0358  1.3231  0.2563
11767SOL    HW235918   0.729   4.163   5.392 -1.5369  1.3754 -1.6047
11768SOL     OW35919   4.594   5.895   2.099 -0.5525 -0.5134 -0.0974
11768SOL    HW135920   4.584   5.986   2.073  0.5136 -0.2917  0.2315
11768SOL    HW235921   4.557   5.891   2.187 -1.0616 -0.5188 -0.3068
11769SOL     OW35922   6.722   3.319   3.926 -0.3678  0.1733  0.2070
11769SOL    HW135923   6.755   3.262   3.995 -0.1492  0.0543  0.0033
11769SOL    HW235924   6.701   3.261   3.854  1.7498  0.5042 -0.7662
11770SOL     OW35925   0.216   1.026   4.699 -0.0053 -0.1704 -0.2291
11770SOL    HW135926   0.226   1.084   4.774  0.6012  2.2025 -2.0352
11770SOL    HW235927   0.165   0.952   4.733  1.1025  0.2582  2.7412
11771SOL     OW35928   2.629   2.215   6.617  0.2423  0.3036  0.1464
11771SOL    HW135929   2.564   2.144   6.622  2.0934 -1.5358 -0.5978
11771SOL    HW235930   2.656   2.230   6.707 -0.2150  0.1199  0.3151
11772SOL     OW35931   5.545   0.792   1.836  0.6090 -0.2323  0.3775
11772SOL    HW135932   5.476   0.761   1.777  0.0987 -0.4335  1.0592
11772SOL    HW235933   5.511   0.874   1.870  0.0129 -1.0441  1.8412
11773SOL     OW35934   5.117   5.344   0.392 -0.2869  0.2582 -0.7954
11773SOL    HW135935   5.173   5.402   0.340  0.4136 -0.7597 -1.2124
11773SOL    HW235936   5.036   5.339   0.341 -0.5169  1.1781 -0.5475
11774SOL     OW35937   4.450   3.765   6.298  0.1160 -0.0620  0.6477
11774SOL    HW135938   4.390   3.699   6.333  1.1999 -0.9716  0.8414
11774SOL    HW235939   4.403   3.803   6.223 -2.2594  1.9024  2.9132
11775SOL     OW35940   3.757   3.037   5.447  0.1851 -0.0574  0.4196
11775SOL    HW135941   3.756   2.952   5.403  0.3843  0.1440  0.0087
11775SOL    HW235942   3.816   3.090   5.393 -2.4059  1.3393 -1.2293
11776SOL     OW35943   5.564   2.882   1.240  0.0657  0.1190 -0.1600
11776SOL    HW135944   5.567   2.787   1.246  1.1626  0.1948  1.0107
11776SOL    HW235945   5.478   2.901   1.202  0.5130 -1.3678 -2.0295
11777SOL     OW35946   3.096   5.201   1.147  0.5163 -0.2870 -0.6267
11777SOL    HW135947   3.180   5.159   1.131  0.7974  0.3385 -0.8230
11777SOL    HW235948   3.105   5.239   1.235 -0.2943 -1.9563  0.2256
11778SOL     OW35949   3.912   6.811   4.248 -0.7580  0.1261  0.1006
11778SOL    HW135950   3.908   6.861   4.330  1.1104  0.8574 -0.1903
11778SOL    HW235951   3.914   6.878   4.180 -3.3242 -0.4765 -0.6820
11779SOL     OW35952   2.391   0.887   2.053 -0.0614 -0.5544 -0.3547
11779SOL    HW135953   2.340   0.951   2.103  0.1810  0.5333 -1.4452
11779SOL    HW235954   2.416   0.821   2.117 -3.0879 -1.3088  0.1908
11780SOL     OW35955   6.625   7.095   0.605  0.2079 -0.5332 -0.7300
11780SOL    HW135956   6.697   7.050   0.561  0.2456 -0.3256 -0.8829
11780SOL    HW235957   6.634   7.072   0.697 -0.8188 -2.3279 -1.0086
11781SOL     OW35958   3.737   2.543   6.284  0.1886  0.0575  0.8210
11781SOL    HW135959   3.829   2.534   6.259 -0.1011  0.4128 -0.4874
11781SOL    HW235960   3.738   2.596   6.363  1.1326 -0.3333  1.0808
11782SOL     OW35961   2.785   5.189   6.520 -0.2136 -0.7485  0.5254
11782SOL    HW135962   2.821   5.166   6.435  1.4451  0.7165  0.7781
11782SOL    HW235963   2.795   5.284   6.526 -1.7894 -0.6021  1.7129
11783SOL     OW35964   4.374   1.076   0.089  0.2190  0.5079 -0.3212
11783SOL    HW135965   4.330   1.068   0.174 -0.1851 -1.0417 -0.6563
11783SOL    HW235966   4.454   1.025   0.099 -0.1676 -0.2665 -1.0832
11784SOL     OW35967   3.297   3.800   4.919 -0.2928 -0.1998 -0.8250
11784SOL    HW135968   3.334   3.740   4.984 -0.8706  0.0653 -0.2376
11784SOL    HW235969   3.365   3.865   4.904 -0.7656  0.7208  0.8117
11785SOL     OW35970   0.696   1.639   5.045 -0.1823  0.0366 -0.4920
11785SOL    HW135971   0.792   1.637   5.040 -0.1965  0.7191 -1.1480
11785SOL    HW235972   0.678   1.695   5.121 -0.0610 -2.2476  1.3168
11786SOL     OW35973   2.195   1.921   6.287  0.3542 -0.1166 -0.3134
11786SOL    HW135974   2.272   1.911   6.230  0.3375  0.6425 -0.4722
11786SOL    HW235975   2.177   2.015   6.288 -1.2648 -0.3815 -1.1985
11787SOL     OW35976   6.233   1.769   6.391 -0.1665 -0.3837 -0.6827
11787SOL    HW135977   6.202   1.681   6.369 -1.1940 -0.3653  0.6154
11787SOL    HW235978   6.176   1.827   6.341 -3.5153 -0.2777  2.7729
11788SOL     OW35979   6.017   6.867   2.863  0.0461 -0.2096 -0.2742
11788SOL    HW135980   5.982   6.779   2.877  0.3599 -0.1567  1.0287
11788SOL    HW235981   6.099   6.868   2.913 -0.0804  0.8931 -0.0567
11789SOL     OW35982   4.698   5.776   5.324 -0.1097 -0.2974 -0.2864
11789SOL    HW135983   4.701   5.686   5.291  1.3108 -0.0647 -0.8565
11789SOL    HW235984   4.780   5.815   5.295 -0.0230  0.7398  1.2433
11790SOL     OW35985   5.369   2.846   5.432  0.1999 -0.2569  0.5746
11790SOL    HW135986   5.452   2.864   5.387 -0.5273 -2.4398 -1.8845
11790SOL    HW235987   5.394   2.794   5.508  1.1709  0.0099  0.4570
11791SOL     OW35988   5.886   1.065   4.047 -0.4468 -0.0743 -0.1291
11791SOL    HW135989   5.917   1.054   3.957 -0.9259 -0.2694 -0.2735
11791SOL    HW235990   5.803   1.018   4.050 -2.0826  2.5552 -0.4861
11792SOL     OW35991   2.577   4.325   5.336  0.0350 -0.0584 -0.0660
11792SOL    HW135992   2.485   4.299   5.334  0.2313 -1.3681  2.9908
11792SOL    HW235993   2.574   4.419   5.354 -0.6202  0.4128 -2.2479
11793SOL     OW35994   1.234   5.092   5.942 -0.1383  0.0690 -0.4614
11793SOL    HW135995   1.144   5.059   5.949 -0.5966  1.4191  0.2623
11793SOL    HW235996   1.288   5.020   5.975 -0.9311 -0.8055 -1.0059
11794SOL     OW35997   6.174   2.120   6.552  0.8941 -0.1021 -0.1348
11794SOL    HW135998   6.114   2.179   6.599  0.8644  0.7660 -1.2088
11794SOL    HW235999   6.154   2.135   6.459  0.4916 -2.2312 -0.4522
11795SOL     OW36000   1.113   2.360   4.503  0.5618  0.2065 -0.0624
11795SOL    HW136001   1.031   2.321   4.472  0.7719 -1.3191  1.1602
11795SOL    HW236002   1.174   2.286   4.509  1.8255  1.1862 -0.2343
11796SOL     OW36003   5.482   2.943   5.913 -0.1750 -0.1429 -0.1352
11796SOL    HW136004   5.449   3.000   5.842  2.1028 -0.2660 -1.3854
11796SOL    HW236005   5.577   2.949   5.906  0.1141 -1.9076  1.5402
11797SOL     OW36006   5.929   2.386   5.468  0.4708 -0.0090  0.0265
11797SOL    HW136007   5.874   2.311   5.490 -0.1210 -0.7019 -3.2654
11797SOL    HW236008   5.980   2.358   5.392  1.2981  2.4454 -0.4363
11798SOL     OW36009   2.754   4.095   0.020  0.4853 -0.2792 -0.3280
11798SOL    HW136010   2.753   4.186   0.051 -1.8213 -0.2010 -0.4787
11798SOL    HW236011   2.784   4.101  -0.071  1.9805  0.0922  0.1522
11799SOL     OW36012   4.424   2.135   1.917 -0.1212 -0.4301  0.0989
11799SOL    HW136013   4.398   2.087   1.838 -0.6246  0.8827 -0.5603
11799SOL    HW236014   4.492   2.196   1.886 -0.8741  0.6362  0.4955
11800SOL     OW36015   1.785   6.264   1.355  0.2192 -0.2375 -0.6163
11800SOL    HW136016   1.842   6.335   1.385 -0.1579 -0.5592  0.9058
11800SOL    HW236017   1.839   6.185   1.364 -0.0584 -0.3946 -0.3323
11801SOL     OW36018   2.453   2.811   1.885  0.5568 -0.1678 -0.2467
11801SOL    HW136019   2.460   2.756   1.963 -2.0727 -0.1783  0.0913
11801SOL    HW236020   2.378   2.776   1.837 -2.1667  3.6839  0.6397
11802SOL     OW36021   5.793   3.764   2.020  0.1043 -0.4881 -0.7648
11802SOL    HW136022   5.859   3.771   2.088  0.7046 -1.1334 -1.2699
11802SOL    HW236023   5.714   3.735   2.066  0.2428  0.0137 -0.2046
11803SOL     OW36024   6.221   5.506   3.248  0.0359 -0.2058 -0.0433
11803SOL    HW136025   6.268   5.476   3.169 -0.6267 -0.7726 -0.2215
11803SOL    HW236026   6.284   5.565   3.291  0.6108 -0.3148 -0.7071
11804SOL     OW36027   2.423   1.539   6.656 -0.4503  0.1412 -0.2798
11804SOL    HW136028   2.398   1.498   6.573 -1.4348  0.8359 -0.3384
11804SOL    HW236029   2.415   1.470   6.721  0.8219 -0.5526 -0.8214
11805SOL     OW36030   7.048   1.262   0.281 -0.0180  0.0288 -0.1555
11805SOL    HW136031   7.068   1.209   0.204 -0.2877  1.0527 -0.9598
11805SOL    HW236032   7.016   1.200   0.346  0.9565 -0.9604 -0.5928
11806SOL     OW36033   4.371   2.515   1.936  0.4283 -0.6608  0.1822
11806SOL    HW136034   4.442   2.576   1.950  0.3421 -0.5095 -0.0433
11806SOL    HW236035   4.389   2.475   1.851 -1.0287  1.1335 -1.0364
11807SOL     OW36036   1.295   2.579   0.504  0.1614  0.6609  0.0116
11807SOL    HW136037   1.293   2.514   0.435  3.1068 -0.2730  0.6460
11807SOL    HW236038   1.378   2.563   0.550  0.1671  3.6945  1.3413
11808SOL     OW36039   2.454   3.399   1.396  0.2270  0.3213 -0.0456
11808SOL    HW136040   2.477   3.474   1.450  0.3725  1.2241 -1.3189
11808SOL    HW236041   2.494   3.324   1.441  0.0357  0.9727  1.2648
11809SOL     OW36042   0.121   6.798   4.798 -0.1323  0.1589 -0.2881
11809SOL    HW136043   0.095   6.833   4.883 -0.3752  0.0534 -0.3180
11809SOL    HW236044   0.196   6.743   4.817 -0.8610 -0.7595  0.0253
11810SOL     OW36045   0.965   1.143   6.276  0.6491 -0.0410  0.0395
11810SOL    HW136046   0.968   1.153   6.372  1.3007 -1.2183  0.1588
11810SOL    HW236047   0.874   1.164   6.253  0.4526  0.1526  0.9357
11811SOL     OW36048   0.831   2.162   2.546  0.0249 -0.3357 -0.1166
11811SOL    HW136049   0.763   2.183   2.482  0.2626  0.6625 -0.0628
11811SOL    HW236050   0.846   2.068   2.536  0.6858 -0.0513 -2.1577
11812SOL     OW36051   1.782   0.857   3.089  0.1750 -0.4845  0.5412
11812SOL    HW136052   1.785   0.887   3.180  1.6653 -2.4911  1.2312
11812SOL    HW236053   1.839   0.919   3.042  0.0888  0.0636  1.1444
11813SOL     OW36054   2.376   6.889   7.061  0.1142 -1.0593 -0.2163
11813SOL    HW136055   2.330   6.811   7.031 -1.9515 -0.2679  0.6901
11813SOL    HW236056   2.323   6.922   7.134  1.6669  0.4311  0.3117
11814SOL     OW36057   4.771   2.802   5.160  0.5751 -0.4922  0.3424
11814SOL    HW136058   4.722   2.872   5.202 -1.4123 -1.5866 -0.0397
11814SOL    HW236059   4.779   2.734   5.227  0.5840 -0.7745  0.0600
11815SOL     OW36060   3.391   7.108   6.441  0.5982  0.4838 -0.2287
11815SOL    HW136061   3.368   7.160   6.364  0.2125  1.8754  0.7884
11815SOL    HW236062   3.453   7.163   6.490 -0.1279  0.1812  1.0762
11816SOL     OW36063   5.067   4.690   1.892  0.3115  0.5979  0.2434
11816SOL    HW136064   5.124   4.735   1.955  0.7069 -1.9180  1.8380
11816SOL    HW236065   5.115   4.610   1.869 -1.9623 -0.9733  0.6442
11817SOL     OW36066   6.301   3.801   3.514 -0.6556  0.1736 -0.7123
11817SOL    HW136067   6.354   3.723   3.495  1.0879  1.9169 -3.9882
11817SOL    HW236068   6.227   3.794   3.454 -1.2880  0.3658  0.0316
11818SOL     OW36069   4.155   4.087   6.083  0.2787 -0.3959 -0.0311
11818SOL    HW136070   4.079   4.140   6.106  1.3605  0.8159  0.8985
11818SOL    HW236071   4.188   4.125   6.002  0.0853 -0.7408 -0.2774
11819SOL     OW36072   0.347   1.181   7.254  0.4833 -0.3951  0.1747
11819SOL    HW136073   0.371   1.159   7.344 -0.9463  4.1099  1.9748
11819SOL    HW236074   0.255   1.154   7.246 -0.2703  1.6456  1.2139
11820SOL     OW36075   4.654   4.979   0.977  0.0913 -0.0864  0.2452
11820SOL    HW136076   4.661   4.971   0.882 -0.5661  1.4023  0.0346
11820SOL    HW236077   4.626   5.070   0.991 -0.9772 -0.6116  1.7971
11821SOL     OW36078   5.766   3.674   1.685 -0.1282 -0.4932  0.1775
11821SOL    HW136079   5.744   3.751   1.737  0.5021 -0.3214  0.1927
11821SOL    HW236080   5.789   3.709   1.599  0.7952 -0.6061  0.3729
11822SOL     OW36081   0.776   0.164   3.025 -0.6895  0.2685  0.2647
11822SOL    HW136082   0.832   0.220   3.078 -1.0936  0.2216  0.7504
11822SOL    HW236083   0.831   0.137   2.952 -0.2929  0.7740  0.3712
11823SOL     OW36084   0.058   0.584   4.444  0.0747 -0.3518  0.8438
11823SOL    HW136085   0.037   0.509   4.388  0.8780 -0.6099  0.8690
11823SOL    HW236086   0.088   0.651   4.382 -0.0744 -0.2636  0.8692
11824SOL     OW36087   4.906   5.258   4.296 -0.2813 -0.4643  0.0864
11824SOL    HW136088   4.875   5.343   4.265  1.2316  0.1612  0.1937
11824SOL    HW236089   4.834   5.198   4.278 -1.2588  0.7741 -0.2831
11825SOL     OW36090   6.879   5.482   5.845 -0.1927 -0.0357  0.3297
11825SOL    HW136091   6.805   5.543   5.845  0.0825  0.3829 -1.5951
11825SOL    HW236092   6.953   5.535   5.816  0.9407 -0.4011  2.4363
11826SOL     OW36093   3.840   1.361   4.062 -0.2018  0.1227 -0.1312
11826SOL    HW136094   3.835   1.443   4.111  0.5502  0.4297 -0.5560
11826SOL    HW236095   3.830   1.388   3.970 -0.0837 -0.2816 -0.2640
11827SOL     OW36096   1.242   1.495   0.008 -0.0719  0.2063  0.1192
11827SOL    HW136097   1.306   1.464   0.073 -0.1672 -2.2394 -0.8474
11827SOL    HW236098   1.259   1.442  -0.069 -3.2147 -0.5256 -0.2084
11828SOL     OW36099   6.625   3.157   0.115 -0.8074 -0.0916  0.7881
11828SOL    HW136100   6.556   3.090   0.112  1.5643 -2.6779 -0.4870
11828SOL    HW236101   6.623   3.196   0.027 -1.5526  0.8432  1.2144
11829SOL     OW36102   2.885   5.868   1.393  0.1186 -0.4563  0.2928
11829SOL    HW136103   2.884   5.963   1.408 -0.2840 -0.6729  1.8100
11829SOL    HW236104   2.883   5.859   1.298  0.1490  1.0540  0.1177
11830SOL     OW36105   2.149   2.405   5.112 -0.4807 -0.1324 -0.1432
11830SOL    HW136106   2.146   2.391   5.206  3.6067 -1.2668  0.0317
11830SOL    HW236107   2.083   2.472   5.095  0.2379  1.8987  3.9028
11831SOL     OW36108   0.919   5.995   3.228 -0.3656 -0.0881  0.4432
11831SOL    HW136109   1.006   5.957   3.243  0.3546  1.1654 -0.3852
11831SOL    HW236110   0.858   5.922   3.241  0.6717 -0.6794  2.4903
11832SOL     OW36111   2.637   3.723   6.881 -0.4169  0.8802  0.0053
11832SOL    HW136112   2.730   3.733   6.862 -0.8685 -0.1363 -3.5393
11832SOL    HW236113   2.634   3.698   6.974  3.0194 -1.1811 -0.2589
11833SOL     OW36114   0.261   3.325   7.062  0.2931 -0.0980 -0.3986
11833SOL    HW136115   0.249   3.233   7.083  1.0670 -0.6552 -2.2021
11833SOL    HW236116   0.293   3.364   7.144  2.3334 -1.9279 -0.2301
11834SOL     OW36117   3.724   0.290   3.897 -0.3404  0.0763  0.1977
11834SOL    HW136118   3.662   0.217   3.896  1.4111 -1.5362 -2.5952
11834SOL    HW236119   3.810   0.248   3.890  0.9712  2.3499  1.5372
11835SOL     OW36120   6.215   0.991   4.646 -0.3690  0.1562 -0.5384
11835SOL    HW136121   6.157   1.014   4.717  1.3962  2.9844  0.1472
11835SOL    HW236122   6.160   0.943   4.584 -2.4729 -0.4475  1.6430
11836SOL     OW36123   2.900   3.857   3.537  0.0517 -0.2246  0.1231
11836SOL    HW136124   2.919   3.950   3.541  1.0389 -0.2683 -2.2554
11836SOL    HW236125   2.869   3.841   3.448  0.1539 -2.2014  0.3778
11837SOL     OW36126   2.012   5.455   6.642  0.1624  0.0218  0.5912
11837SOL    HW136127   2.018   5.423   6.732 -0.3161  2.6420  1.6514
11837SOL    HW236128   2.094   5.502   6.629  0.4252 -0.7243 -0.5457
11838SOL     OW36129   0.892   1.433   4.820  0.0769  0.2484  0.4826
11838SOL    HW136130   0.923   1.488   4.892 -1.8467  1.6202  0.3544
11838SOL    HW236131   0.826   1.377   4.859 -0.5417  0.5706 -0.0713
11839SOL     OW36132   2.583   3.998   6.796 -0.9216  0.0507  0.8937
11839SOL    HW136133   2.546   4.028   6.879 -0.6322 -0.9648  1.4077
11839SOL    HW236134   2.597   3.904   6.809  0.1304  0.0773  0.0709
11840SOL     OW36135   0.129   2.002   5.184 -0.1821 -0.2281  0.0701
11840SOL    HW136136   0.185   1.945   5.237 -1.7814 -0.8605  1.1450
11840SOL    HW236137   0.068   2.041   5.246  0.9314  2.8489 -0.6190
11841SOL     OW36138   0.000   5.373   3.394  0.0510  0.6305 -0.2604
11841SOL    HW136139   0.021   5.403   3.482  0.9007  1.7920 -0.8250
11841SOL    HW236140   0.070   5.311   3.373 -1.5650 -1.6849  0.8096
11842SOL     OW36141   4.370   3.618   1.362  0.2308  0.1152 -0.2808
11842SOL    HW136142   4.276   3.626   1.349  0.5666  1.5952 -2.4116
11842SOL    HW236143   4.408   3.637   1.276  2.4959 -0.1650  0.5751
11843SOL     OW36144   4.818   1.455   6.011 -0.6057  0.2737  0.6639
11843SOL    HW136145   4.768   1.374   6.025  0.0132 -0.2821 -0.2387
11843SOL    HW236146   4.826   1.461   5.915  1.3051  0.1888  0.7884
11844SOL     OW36147   5.075   1.247   1.623 -0.2482 -0.0835  0.1737
11844SOL    HW136148   5.034   1.174   1.575  0.4951 -0.2274 -0.2714
11844SOL    HW236149   5.003   1.292   1.665 -0.6623 -1.5612  1.1344
11845SOL     OW36150   4.037   1.001   1.101  0.4490 -0.1031 -0.2384
11845SOL    HW136151   4.047   1.086   1.060 -2.9072  1.0250  0.9628
11845SOL    HW236152   4.000   0.945   1.033  1.7627 -0.3610 -0.7574
11846SOL     OW36153   3.450   1.526   3.576  0.3025  0.7180  0.4124
11846SOL    HW136154   3.436   1.621   3.575  0.3259  0.7245 -1.2958
11846SOL    HW236155   3.362   1.489   3.575  0.2949  0.7119  0.9838
11847SOL     OW36156   5.432   3.484   0.179 -0.0035 -0.1206  0.1772
11847SOL    HW136157   5.488   3.408   0.161 -0.1163 -0.4025  0.9826
11847SOL    HW236158   5.470   3.555   0.126  1.7527 -0.0422  1.4376
11848SOL     OW36159   0.701   3.588   6.914  0.6136 -0.7542  0.2094
11848SOL    HW136160   0.737   3.599   6.826 -0.8927  0.0367 -0.3473
11848SOL    HW236161   0.619   3.541   6.901 -1.6091  2.6080  0.6330
11849SOL     OW36162   1.972   0.438   1.577  0.0356 -0.2698  0.1086
11849SOL    HW136163   1.949   0.517   1.626  2.0510  0.5441 -0.1247
11849SOL    HW236164   2.031   0.390   1.634  0.8045 -0.3231 -0.6961
11850SOL     OW36165   2.418   3.840   0.673  0.5249  0.0709  0.2198
11850SOL    HW136166   2.480   3.913   0.665  0.7867  0.2453  2.8844
11850SOL    HW236167   2.334   3.878   0.646  0.8067  1.1240  0.7725
11851SOL     OW36168   3.984   6.169   4.857  0.2258 -0.0866 -0.1944
11851SOL    HW136169   3.928   6.172   4.934 -1.6384 -2.3131 -1.3459
11851SOL    HW236170   3.971   6.253   4.814 -0.4840  0.2915  0.7417
11852SOL     OW36171   5.269   5.781   1.143  0.5024 -0.5248  0.0636
11852SOL    HW136172   5.225   5.714   1.091  0.6050  0.0865 -0.8405
11852SOL    HW236173   5.360   5.752   1.147  0.6463 -0.2028 -0.7379
11853SOL     OW36174   3.906   4.516   2.142 -0.7324 -0.3401  0.3308
11853SOL    HW136175   3.816   4.543   2.123 -0.9376 -0.4276  1.1507
11853SOL    HW236176   3.899   4.461   2.219  0.0020 -0.5641  0.2469
11854SOL     OW36177   2.333   5.852   1.822 -0.4576  0.7812 -0.4898
11854SOL    HW136178   2.251   5.816   1.856  1.3628 -2.0775  1.3013
11854SOL    HW236179   2.374   5.894   1.898  0.4373  0.7568 -0.9494
11855SOL     OW36180   2.127   1.258   3.773  0.2297  0.0415  0.2630
11855SOL    HW136181   2.218   1.243   3.749  0.2514  1.7427 -0.9042
11855SOL    HW236182   2.131   1.310   3.854  0.2981 -0.0442  0.3141
11856SOL     OW36183   0.636   5.490   5.014  0.6485  0.4233  0.1720
11856SOL    HW136184   0.696   5.442   5.071 -0.5887 -0.9203  0.3835
11856SOL    HW236185   0.669   5.475   4.925 -0.0773 -1.4009  0.1755
11857SOL     OW36186   3.206   2.878   5.632  0.2240  0.3124 -0.4449
11857SOL    HW136187   3.247   2.903   5.715 -2.0856  0.2761  0.7793
11857SOL    HW236188   3.206   2.958   5.580  0.1680  0.7705  0.2479
11858SOL     OW36189   3.830   6.410   1.464 -0.0931 -0.5108  0.2067
11858SOL    HW136190   3.814   6.411   1.370 -1.7994  0.5904  0.4593
11858SOL    HW236191   3.773   6.479   1.499  3.0853  1.6106  1.6740
11859SOL     OW36192   4.759   5.244   2.307 -0.2203  0.1211  0.0446
11859SOL    HW136193   4.832   5.186   2.327 -0.4913  0.1535  1.2424
11859SOL    HW236194   4.702   5.194   2.249 -0.0606 -0.5170  0.4349
11860SOL     OW36195   1.977   2.577   4.978  0.1131  0.0992  0.0535
11860SOL    HW136196   1.993   2.639   5.050 -0.5495 -0.4293  0.6740
11860SOL    HW236197   2.042   2.600   4.912  0.5069  0.8329  0.6749
11861SOL     OW36198   0.583   3.047   5.821 -0.1747  0.4608 -0.0897
11861SOL    HW136199   0.552   3.095   5.898  1.7950  1.1487  0.3398
11861SOL    HW236200   0.515   3.061   5.755 -1.7694  0.1114  1.3938
11862SOL     OW36201   2.663   4.246   5.612 -0.2476  0.0835  0.4293
11862SOL    HW136202   2.610   4.291   5.547 -0.7515 -0.0749  0.7304
11862SOL    HW236203   2.664   4.304   5.688  0.5765  0.4015  0.1953
11863SOL     OW36204   4.638   1.345   7.125 -0.4971  0.4101 -0.7047
11863SOL    HW136205   4.571   1.294   7.080  0.9544 -1.5701 -0.7483
11863SOL    HW236206   4.638   1.311   7.214  1.7103 -1.0323 -1.1885
11864SOL     OW36207   1.323   5.831   0.404 -0.5607 -0.3188  0.1537
11864SOL    HW136208   1.403   5.825   0.456 -0.0362  0.9531 -0.4607
11864SOL    HW236209   1.291   5.741   0.397  0.8819 -0.8574  0.3092
11865SOL     OW36210   2.842   2.437   3.545  0.3680  0.7018  0.1001
11865SOL    HW136211   2.873   2.374   3.479 -0.4685  0.4945 -0.1188
11865SOL    HW236212   2.816   2.382   3.619  3.5939  1.0633  1.6670
11866SOL     OW36213   6.540   6.256   6.122  0.3704 -0.0219  0.5971
11866SOL    HW136214   6.534   6.347   6.094  0.1923 -0.0479  0.5489
11866SOL    HW236215   6.537   6.260   6.218 -0.6877 -0.0439  0.5801
11867SOL     OW36216   4.662   6.238   2.796 -0.2109  0.4912  0.6970
11867SOL    HW136217   4.634   6.249   2.705  0.4483  0.0506  0.4314
11867SOL    HW236218   4.744   6.189   2.790 -0.6010 -0.3023  1.5689
11868SOL     OW36219   5.030   0.699   1.692 -0.5921  0.0052  0.3689
11868SOL    HW136220   5.024   0.678   1.785 -1.2830  0.3103  0.4017
11868SOL    HW236221   4.946   0.741   1.672 -0.3867  0.0785 -0.3551
11869SOL     OW36222   2.474   6.686   4.036  0.7193  0.0225  0.8593
11869SOL    HW136223   2.407   6.751   4.055  0.2826 -1.0189  3.2757
11869SOL    HW236224   2.555   6.736   4.025 -0.0308  1.1214  0.1440
11870SOL     OW36225   6.735   6.082   4.371  0.2600 -0.1439 -0.2758
11870SOL    HW136226   6.653   6.128   4.350 -0.0553 -1.0639 -1.1098
11870SOL    HW236227   6.798   6.152   4.387 -0.3424  0.5895 -1.0062
11871SOL     OW36228   4.624   4.788   6.318  0.4102 -0.4036 -0.4917
11871SOL    HW136229   4.656   4.717   6.261 -0.8746 -1.4646  0.0630
11871SOL    HW236230   4.533   4.766   6.334  1.0052 -0.8466  2.9614
11872SOL     OW36231   6.967   1.409   4.678 -0.0996 -0.0098 -0.7469
11872SOL    HW136232   7.061   1.415   4.665  0.0724 -2.3894 -0.9578
11872SOL    HW236233   6.929   1.450   4.600  0.7638 -0.0245 -1.1788
11873SOL     OW36234   1.734   6.279   0.460  0.4000  0.2992 -0.2012
11873SOL    HW136235   1.706   6.319   0.378 -1.4158 -0.9601 -0.2589
11873SOL    HW236236   1.796   6.211   0.433 -0.0471  0.0172 -0.5454
11874SOL     OW36237   4.178   1.562   1.972 -0.9492  0.0862 -0.7158
11874SOL    HW136238   4.245   1.595   2.032  0.5758  0.6922 -2.6348
11874SOL    HW236239   4.219   1.568   1.885 -2.3392 -2.5420 -1.6544
11875SOL     OW36240   6.396   1.209   6.931  0.1501 -0.0666 -0.6147
11875SOL    HW136241   6.404   1.239   7.021  0.6252 -1.0307 -0.3157
11875SOL    HW236242   6.382   1.289   6.880 -1.1938  0.3929  0.4176
11876SOL     OW36243   1.985   5.078   4.185 -0.1991  0.5641  0.1551
11876SOL    HW136244   1.969   5.107   4.275 -2.4136 -2.2520  0.8571
11876SOL    HW236245   1.996   4.983   4.193  1.4306  0.4488 -2.3917
11877SOL     OW36246   6.973   7.051   6.002 -0.0999  0.0894 -0.1338
11877SOL    HW136247   6.971   6.958   6.023 -0.4123  0.2172  0.4276
11877SOL    HW236248   6.955   7.094   6.085 -2.1476  0.6146 -0.8016
11878SOL     OW36249   4.989   1.598   2.729  0.6239  0.0041 -0.3332
11878SOL    HW136250   4.902   1.569   2.699 -1.1791  1.3902  3.0497
11878SOL    HW236251   5.023   1.524   2.779 -0.3001  0.6492  1.3412
11879SOL     OW36252   3.138   6.724   3.733  0.2140  0.6357 -0.0750
11879SOL    HW136253   3.170   6.640   3.701 -3.7350 -1.0087 -0.2667
11879SOL    HW236254   3.146   6.783   3.658  0.2980 -0.4009 -0.9009
11880SOL     OW36255   5.706   6.278   0.521  0.4274 -0.0374  0.0922
11880SOL    HW136256   5.623   6.258   0.478 -0.0311  0.8946  0.5016
11880SOL    HW236257   5.683   6.290   0.613  0.5819  2.3825 -0.1069
11881SOL     OW36258   7.090   2.919   3.587 -0.3502 -0.4096  0.4905
11881SOL    HW136259   7.095   2.944   3.495  1.1127 -0.1111  0.6271
11881SOL    HW236260   7.147   2.982   3.632  1.0787 -2.1477  1.2401
11882SOL     OW36261   1.938   6.010   1.333 -0.5256  0.0132 -0.7720
11882SOL    HW136262   2.010   6.071   1.346 -0.3647 -0.2265 -0.5028
11882SOL    HW236263   1.957   5.966   1.250 -0.4633  0.0893 -0.7976
11883SOL     OW36264   0.093   3.057   4.841 -0.0548 -0.5155  0.6724
11883SOL    HW136265   0.163   3.112   4.876  1.1304 -0.2998 -1.8051
11883SOL    HW236266   0.013   3.109   4.855  0.5554  0.2105  1.5823
11884SOL     OW36267   2.602   0.727   6.446 -0.0524  0.1664  0.4249
11884SOL    HW136268   2.513   0.724   6.413  0.0752  0.1316  0.0843
11884SOL    HW236269   2.657   0.732   6.368  0.1686  2.1429  0.6406
11885SOL     OW36270   5.432   3.862   3.805 -0.1595 -0.4437  0.2258
11885SOL    HW136271   5.375   3.824   3.738 -1.4038  0.8414  0.5070
11885SOL    HW236272   5.403   3.953   3.812  1.0374 -0.1207  1.3671
11886SOL     OW36273   7.128   6.549   0.429  0.2912 -0.1863 -0.2417
11886SOL    HW136274   7.168   6.616   0.483 -0.7372  2.3330 -2.3744
11886SOL    HW236275   7.052   6.520   0.478  1.0782 -0.2484  0.9753
11887SOL     OW36276   1.053   4.862   2.205  0.1003  0.0942  0.0508
11887SOL    HW136277   1.025   4.775   2.178  0.3145 -0.5688  1.8117
11887SOL    HW236278   0.971   4.908   2.227  0.0922 -0.5563  1.5381
11888SOL     OW36279   4.145   6.210   2.588  0.4563  0.2753 -0.5025
11888SOL    HW136280   4.099   6.243   2.511 -0.0797 -0.8645 -0.6909
11888SOL    HW236281   4.175   6.288   2.634 -2.2192  1.0809 -0.0116
11889SOL     OW36282   1.091   0.823   3.871 -0.5361 -0.7557  0.3231
11889SOL    HW136283   1.105   0.745   3.925  0.5086  0.4868  1.9468
11889SOL    HW236284   1.043   0.883   3.928  0.6122  0.6035 -0.0883
11890SOL     OW36285   0.329   0.327   1.898 -0.1870  0.3447  0.2952
11890SOL    HW136286   0.268   0.377   1.844 -0.7110 -2.3980 -1.8484
11890SOL    HW236287   0.273   0.284   1.963 -0.2079 -0.0536  0.0191
11891SOL     OW36288   0.093   6.351   6.241  0.0109  0.4584  0.2864
11891SOL    HW136289   0.176   6.370   6.285 -1.1271  1.6406  2.0760
11891SOL    HW236290   0.055   6.437   6.225 -1.4738 -0.0839  0.7784
11892SOL     OW36291   6.031   0.840   4.456  0.7979 -0.4487 -0.0792
11892SOL    HW136292   6.000   0.815   4.369  1.2873  0.5605 -0.5564
11892SOL    HW236293   5.952   0.854   4.508  0.4741 -3.1131  0.2875
11893SOL     OW36294   4.393   4.122   1.970  0.0306 -0.9073  0.1700
11893SOL    HW136295   4.405   4.114   1.876 -0.3751 -1.8633  0.1862
11893SOL    HW236296   4.445   4.051   2.007  0.8988 -0.0096  0.7393
11894SOL     OW36297   6.872   3.148   3.286 -0.3587 -0.0067  0.4496
11894SOL    HW136298   6.924   3.156   3.366 -0.5129  2.1563  0.3964
11894SOL    HW236299   6.906   3.070   3.243  0.9204 -0.2275  1.7784
11895SOL     OW36300   1.133   1.343   2.445 -0.4645 -0.4148 -0.1172
11895SOL    HW136301   1.046   1.350   2.484 -0.9804 -0.5492 -1.1959
11895SOL    HW236302   1.167   1.259   2.477 -0.4073 -0.0081  0.9151
11896SOL     OW36303   6.370   5.972   3.076  0.3760  0.0657  0.2599
11896SOL    HW136304   6.377   5.878   3.062 -0.0467  0.3387 -2.4969
11896SOL    HW236305   6.316   5.981   3.155  0.0657 -1.9940  0.3382
11897SOL     OW36306   1.536   2.589   5.114 -0.0302 -0.3471  0.2563
11897SOL    HW136307   1.457   2.643   5.114 -1.1285 -1.8743  0.2883
11897SOL    HW236308   1.587   2.620   5.189 -1.1014  0.0037  0.8578
11898SOL     OW36309   5.846   1.986   6.451 -0.5925 -0.1336 -0.0182
11898SOL    HW136310   5.795   1.979   6.370 -2.7149  1.1907  1.1396
11898SOL    HW236311   5.825   2.072   6.486  0.5032 -0.5602  1.8426
11899SOL     OW36312   2.557   0.992   2.345  0.5011  0.2038  0.7215
11899SOL    HW136313   2.596   0.933   2.410  4.2140  0.6678 -0.8689
11899SOL    HW236314   2.579   0.953   2.261  0.5759  2.3819 -0.3280
11900SOL     OW36315   2.343   2.344   1.734 -0.3323 -0.1382 -0.1214
11900SOL    HW136316   2.401   2.418   1.751  0.9959 -1.5267  1.8565
11900SOL    HW236317   2.255   2.381   1.734  0.3926  1.7159 -1.2284
11901SOL     OW36318   4.256   2.340   2.171 -0.0866  0.3038  0.2706
11901SOL    HW136319   4.274   2.411   2.232  4.6599  0.2229 -0.6827
11901SOL    HW236320   4.282   2.374   2.086 -2.4433 -1.0315 -1.0700
11902SOL     OW36321   5.523   4.935   3.011 -0.0486 -0.2161 -0.0310
11902SOL    HW136322   5.455   4.995   2.979 -2.4230 -1.4355  2.3080
11902SOL    HW236323   5.513   4.857   2.957  1.1000  0.4035 -1.1839
11903SOL     OW36324   5.622   3.674   6.503  0.1762 -0.6701  0.1831
11903SOL    HW136325   5.576   3.702   6.423  1.9279 -0.4425 -0.8010
11903SOL    HW236326   5.585   3.588   6.523 -3.5363  1.0734  1.8288
11904SOL     OW36327   3.251   6.888   5.766 -0.3133  0.3135 -0.1193
11904SOL    HW136328   3.201   6.810   5.788 -0.4024  0.4343  0.1040
11904SOL    HW236329   3.319   6.893   5.832 -0.3685  0.4811 -0.0744
11905SOL     OW36330   5.989   6.295   5.635  0.0168  0.1979  0.0805
11905SOL    HW136331   5.921   6.226   5.635 -0.7812  0.9410 -0.9432
11905SOL    HW236332   6.060   6.259   5.687 -0.5673 -1.2299 -0.0631
11906SOL     OW36333   3.782   6.063   5.501 -0.0803 -0.0441 -0.0154
11906SOL    HW136334   3.803   6.134   5.561  0.9433  0.4670 -0.9395
11906SOL    HW236335   3.784   5.984   5.555  2.6665  0.1631  0.3412
11907SOL     OW36336   2.812   2.125   1.366  0.2992 -0.5872 -0.3403
11907SOL    HW136337   2.779   2.209   1.397 -0.1550  0.2691 -2.9185
11907SOL    HW236338   2.763   2.060   1.416  0.0006  0.6607  1.0418
11908SOL     OW36339   3.045   5.916   0.276  0.1592  0.5062 -0.1579
11908SOL    HW136340   3.042   5.837   0.222 -0.9107  0.4850 -0.0877
11908SOL    HW236341   3.083   5.983   0.218  1.9734 -0.2505  0.0752
11909SOL     OW36342   6.060   5.513   6.993  0.1435  0.5954  0.4861
11909SOL    HW136343   6.105   5.450   7.049 -0.1615 -0.5623 -0.5267
11909SOL    HW236344   6.006   5.564   7.053  1.2504  0.6576  1.4671
11910SOL     OW36345   4.171   4.882   4.601  0.7399 -0.2866  0.7082
11910SOL    HW136346   4.099   4.846   4.549  1.2289 -0.9890  0.4910
11910SOL    HW236347   4.129   4.932   4.671  0.0131 -1.6643  1.2881
11911SOL     OW36348   0.586   7.096   6.145  0.0130  1.1821  0.1656
11911SOL    HW136349   0.597   7.007   6.180 -2.0418  0.6090 -0.4713
11911SOL    HW236350   0.672   7.119   6.110 -0.1037 -1.9749 -2.7362
11912SOL     OW36351   5.772   4.852   3.060 -0.7378 -0.1735  0.2760
11912SOL    HW136352   5.785   4.761   3.032 -1.2139  0.0385 -0.6747
11912SOL    HW236353   5.679   4.869   3.045 -0.6971  0.4089  0.6421
11913SOL     OW36354   5.185   5.436   1.904 -0.0557 -0.2726 -0.7168
11913SOL    HW136355   5.112   5.375   1.903  0.2241 -0.6124 -0.6498
11913SOL    HW236356   5.210   5.444   1.996  0.9691 -1.3519 -0.8767
11914SOL     OW36357   5.639   2.949   4.092  0.2200  0.0638 -0.2553
11914SOL    HW136358   5.662   2.856   4.101 -1.1703 -0.2283  0.6605
11914SOL    HW236359   5.709   2.986   4.039  0.2539 -1.7346 -1.5470
11915SOL     OW36360   5.886   4.794   7.030 -0.4686 -0.1517 -0.1374
11915SOL    HW136361   5.893   4.869   6.972  1.4123 -1.7501 -2.1166
11915SOL    HW236362   5.920   4.720   6.979  1.4723 -1.6427  3.0205
11916SOL     OW36363   2.546   3.467   6.647  0.0747  0.0166 -1.0027
11916SOL    HW136364   2.629   3.462   6.694 -0.3722  1.2887 -0.0057
11916SOL    HW236365   2.558   3.536   6.582 -0.5900  1.2118  0.0817
11917SOL     OW36366   2.669   3.750   0.385  0.3343 -0.0005  0.0672
11917SOL    HW136367   2.636   3.839   0.392 -0.5275 -0.0510 -2.4101
11917SOL    HW236368   2.763   3.758   0.399  0.0017  0.9188  2.1027
11918SOL     OW36369   7.189   5.925   3.844  0.0453 -0.6820  0.5559
11918SOL    HW136370   7.204   6.012   3.881  1.8376 -0.0663 -1.4719
11918SOL    HW236371   7.107   5.934   3.795  1.1887  0.4782 -1.2419
11919SOL     OW36372   2.012   0.185   6.774  0.1346  0.1020  0.8227
11919SOL    HW136373   2.082   0.132   6.735 -0.3520 -1.0876  1.4873
11919SOL    HW236374   1.975   0.234   6.701  0.5646 -0.5268  0.1655
11920SOL     OW36375   0.593   6.244   5.037 -0.2631 -0.2921 -0.2643
11920SOL    HW136376   0.526   6.210   4.979  0.6220 -2.3310 -0.1553
11920SOL    HW236377   0.571   6.337   5.046 -1.4549 -0.2931 -2.3973
11921SOL     OW36378   2.158   1.428   2.431 -0.0866  0.2854  0.4129
11921SOL    HW136379   2.107   1.436   2.511 -1.4129  1.4264 -0.5140
11921SOL    HW236380   2.191   1.516   2.414  0.2423  0.0420 -0.2566
11922SOL     OW36381   6.167   3.293   4.183  0.3077  0.0476 -0.7121
11922SOL    HW136382   6.180   3.319   4.274 -0.0350  0.1527 -0.6906
11922SOL    HW236383   6.249   3.316   4.139  0.6212 -0.3758 -0.3478
11923SOL     OW36384   3.348   5.559   6.773  0.5070 -0.5059 -0.3285
11923SOL    HW136385   3.287   5.587   6.704 -1.3173 -1.8607  0.6480
11923SOL    HW236386   3.363   5.467   6.755  0.4015 -0.7525  0.7678
11924SOL     OW36387   0.984   4.075   3.508 -0.3050  0.1656 -0.1733
11924SOL    HW136388   1.068   4.107   3.475 -1.1186  1.2357 -1.2941
11924SOL    HW236389   0.963   4.001   3.451  0.3553 -0.7984  0.7904
11925SOL     OW36390   1.780   4.856   4.195 -0.2477 -0.1394  0.0448
11925SOL    HW136391   1.706   4.900   4.235  0.3714  0.1786  0.8779
11925SOL    HW236392   1.805   4.912   4.122 -0.0939  0.3784  0.4869
11926SOL     OW36393   6.988   6.012   3.522  0.4523  0.2885 -0.2971
11926SOL    HW136394   6.997   5.917   3.517 -1.2781  0.1156 -3.9639
11926SOL    HW236395   7.074   6.046   3.497  0.4322 -0.4045 -1.3566
11927SOL     OW36396   1.262   7.086   0.881  0.9735 -0.2147 -0.1037
11927SOL    HW136397   1.297   7.164   0.838 -0.8245  0.1915 -0.9090
11927SOL    HW236398   1.316   7.014   0.848  1.4050  0.4529 -0.8781
11928SOL     OW36399   6.756   4.312   5.600  0.0714  0.7810  0.3738
11928SOL    HW136400   6.823   4.244   5.594 -1.2846 -0.5501 -0.8354
11928SOL    HW236401   6.708   4.291   5.680 -0.8256 -0.2365 -0.3857
11929SOL     OW36402   3.527   6.661   5.035  1.0172 -0.4788 -0.5520
11929SOL    HW136403   3.549   6.748   5.001 -0.7644  1.0888  1.9390
11929SOL    HW236404   3.515   6.675   5.129 -1.1750 -2.9952 -0.3468
11930SOL     OW36405   1.114   4.550   7.187 -0.1783 -0.5918  0.0636
11930SOL    HW136406   1.085   4.555   7.278 -0.6247  1.8510 -0.1728
11930SOL    HW236407   1.202   4.587   7.188 -1.0591  1.6563 -0.8160
11931SOL     OW36408   5.363   1.760   1.261 -0.1023  0.1290 -0.2462
11931SOL    HW136409   5.359   1.835   1.201  1.4220 -0.1239 -0.6947
11931SOL    HW236410   5.363   1.684   1.204 -0.6210 -0.1952  0.1760
11932SOL     OW36411   3.013   6.706   2.418  0.4015  0.0075  0.2773
11932SOL    HW136412   3.056   6.624   2.393  0.3391 -0.3543  1.2934
11932SOL    HW236413   3.080   6.773   2.408  1.2409 -0.5567  1.8688
11933SOL     OW36414   2.209   0.297   4.592  0.7333 -0.5202  0.4889
11933SOL    HW136415   2.265   0.332   4.522 -0.0710  0.0048  0.0847
11933SOL    HW236416   2.243   0.335   4.672  0.1533  0.8851  0.1017
11934SOL     OW36417   1.345   5.852   3.600 -0.4760 -0.0943 -0.0793
11934SOL    HW136418   1.364   5.944   3.584 -1.2984 -0.0786 -1.1030
11934SOL    HW236419   1.397   5.805   3.535 -1.3028 -0.2405 -0.6507
11935SOL     OW36420   0.771   3.143   3.763  0.5021  0.2143 -0.8624
11935SOL    HW136421   0.794   3.235   3.752  0.4358  0.0543 -2.6121
11935SOL    HW236422   0.843   3.095   3.722  0.8982 -0.5705  0.6622
11936SOL     OW36423   4.162   0.152   4.523  0.2992  0.1992 -0.5662
11936SOL    HW136424   4.078   0.196   4.507 -0.6283 -1.8218 -1.5002
11936SOL    HW236425   4.157   0.124   4.614  0.6157  1.3571 -0.1687
11937SOL     OW36426   6.779   3.770   0.249  0.5262 -0.0511 -0.3175
11937SOL    HW136427   6.684   3.757   0.251  0.6114 -0.7783 -0.7666
11937SOL    HW236428   6.792   3.845   0.192  0.3470 -1.2811 -2.0333
11938SOL     OW36429   3.714   0.763   1.078  0.5977  0.1922  0.2021
11938SOL    HW136430   3.743   0.733   0.991  0.6200 -0.9691  0.5824
11938SOL    HW236431   3.791   0.750   1.133  0.2020 -0.3037  0.6505
11939SOL     OW36432   4.676   6.335   5.198 -0.0249 -0.3949 -0.0824
11939SOL    HW136433   4.762   6.297   5.214 -0.5171 -0.6037  2.6277
11939SOL    HW236434   4.630   6.270   5.145  1.5667 -0.0531 -2.0214
11940SOL     OW36435   3.556   4.078   7.046  0.0782 -0.5090  0.1841
11940SOL    HW136436   3.535   3.990   7.077  0.6200 -0.3879  0.9418
11940SOL    HW236437   3.481   4.105   6.993  0.6376 -2.0914 -1.5123
11941SOL     OW36438   1.660   2.964   6.379 -0.1508 -0.0463 -0.5321
11941SOL    HW136439   1.695   3.051   6.398  0.6398 -0.1562 -1.4341
11941SOL    HW236440   1.658   2.959   6.284  0.0592 -1.1169 -0.4890
11942SOL     OW36441   0.298   6.040   4.062  0.1992 -0.2673 -0.1332
11942SOL    HW136442   0.300   6.045   4.158  1.7788 -0.8257 -0.1016
11942SOL    HW236443   0.241   6.112   4.036 -0.8985 -0.5944  1.2424
11943SOL     OW36444   6.509   5.318   1.558 -0.3545 -0.1360  0.0652
11943SOL    HW136445   6.526   5.307   1.652  1.6647 -1.1538 -0.3787
11943SOL    HW236446   6.543   5.239   1.518 -1.1603  0.3008 -1.5544
11944SOL     OW36447   7.170   2.686   3.434 -0.0771  0.8782  0.0619
11944SOL    HW136448   7.265   2.697   3.434 -0.2025  2.1840 -1.3044
11944SOL    HW236449   7.136   2.767   3.472 -0.6401 -0.1174  1.7967
11945SOL     OW36450   6.179   1.538   2.969 -0.1228  0.4362  0.4447
11945SOL    HW136451   6.271   1.515   2.960  0.1845  0.8947  2.0863
11945SOL    HW236452   6.153   1.499   3.053 -1.2875  0.7485  0.2472
11946SOL     OW36453   1.691   1.408   1.769  0.1168  0.2679 -0.1999
11946SOL    HW136454   1.667   1.496   1.738 -1.0268  0.1077  0.1639
11946SOL    HW236455   1.660   1.406   1.860 -0.9784 -0.9218 -0.5742
11947SOL     OW36456   6.421   6.057   6.434  0.4340  0.5740 -0.2873
11947SOL    HW136457   6.448   5.972   6.469  0.4841  0.8185  0.2759
11947SOL    HW236458   6.361   6.035   6.363  0.9226  0.0564 -0.5459
11948SOL     OW36459   3.527   5.347   2.045  0.0472 -0.0591  0.2817
11948SOL    HW136460   3.468   5.418   2.070  0.2686 -0.3682  1.8144
11948SOL    HW236461   3.610   5.390   2.026 -0.0316  0.1582  0.4357
11949SOL     OW36462   3.112   5.991   0.991  0.2197  0.7413  0.0187
11949SOL    HW136463   3.074   5.999   0.904 -1.9879  0.4569  0.9008
11949SOL    HW236464   3.130   6.081   1.018 -0.4019  0.9298 -0.1882
11950SOL     OW36465   6.386   5.863   3.520  0.9259  0.2650  0.3663
11950SOL    HW136466   6.382   5.932   3.587 -0.3446  0.0974  0.5050
11950SOL    HW236467   6.356   5.784   3.566 -2.8513  0.6854 -0.9665
11951SOL     OW36468   3.627   4.631   6.589 -0.0286 -0.5440 -0.0084
11951SOL    HW136469   3.672   4.607   6.508 -1.1302  0.9706 -1.1335
11951SOL    HW236470   3.618   4.726   6.584  1.0967 -0.2115  2.5829
11952SOL     OW36471   3.165   3.646   0.987  0.2855 -0.3204  0.0493
11952SOL    HW136472   3.096   3.602   1.037  0.2860 -0.7173 -0.2939
11952SOL    HW236473   3.198   3.713   1.046 -0.3628 -0.1570  0.2327
11953SOL     OW36474   7.068   3.781   1.428 -0.1200  0.1176  0.0914
11953SOL    HW136475   7.118   3.758   1.507 -0.2972  2.3544  0.9366
11953SOL    HW236476   7.124   3.843   1.382  0.7932 -2.5016 -2.6267
11954SOL     OW36477   4.490   6.303   5.407 -0.1729 -0.1054 -0.1091
11954SOL    HW136478   4.564   6.288   5.348 -0.7390  1.1319 -1.1877
11954SOL    HW236479   4.415   6.267   5.361 -0.6157  0.8362 -0.1423
11955SOL     OW36480   1.876   0.469   6.271 -0.0436  0.0392  0.1316
11955SOL    HW136481   1.968   0.454   6.247  0.1653  1.4691 -0.0589
11955SOL    HW236482   1.827   0.432   6.198  0.2719 -2.2170  0.9849
11956SOL     OW36483   1.389   2.791   0.737 -0.6514 -0.4863 -0.0293
11956SOL    HW136484   1.422   2.742   0.813  3.2057 -1.7410 -2.2598
11956SOL    HW236485   1.296   2.766   0.731 -0.6582 -1.7159  3.1705
11957SOL     OW36486   0.090   0.233   4.652 -0.1484 -0.5281  0.0423
11957SOL    HW136487   0.079   0.142   4.676 -1.3919 -0.5806 -0.6141
11957SOL    HW236488   0.124   0.276   4.731 -1.5691 -1.1689  1.0380
11958SOL     OW36489   2.338   7.003   6.383  0.0989  0.5164 -0.0254
11958SOL    HW136490   2.354   7.080   6.328  0.9215  1.8114  1.9452
11958SOL    HW236491   2.405   6.940   6.356  0.1557  0.9133 -0.8517
11959SOL     OW36492   5.405   2.806   6.147 -0.3052 -0.2642  0.1284
11959SOL    HW136493   5.415   2.855   6.065 -0.0001  0.1696  0.4166
11959SOL    HW236494   5.492   2.770   6.163  0.1105  1.1143  1.1586
11960SOL     OW36495   0.462   5.831   4.638 -0.6129  0.0799 -0.0680
11960SOL    HW136496   0.472   5.759   4.576  1.2896  0.1049  0.1443
11960SOL    HW236497   0.443   5.789   4.722  0.9221 -0.2554  0.1477
11961SOL     OW36498   0.218   0.887   4.349 -0.7644  0.2831  0.3487
11961SOL    HW136499   0.194   0.965   4.399  0.4876  1.6541 -1.0835
11961SOL    HW236500   0.136   0.857   4.310 -1.3910  0.3972  1.5208
11962SOL     OW36501   4.510   5.985   5.979  0.4660  0.0639 -0.2145
11962SOL    HW136502   4.515   5.953   5.889  1.5928  0.1967 -0.2125
11962SOL    HW236503   4.555   5.918   6.031  1.3341  0.8042  0.0139
11963SOL     OW36504   5.741   5.551   1.968 -0.0674 -0.2438 -0.0704
11963SOL    HW136505   5.691   5.572   1.889  1.2869  0.5459 -0.7540
11963SOL    HW236506   5.692   5.480   2.009 -0.6120 -0.9248 -1.8118
11964SOL     OW36507   3.797   5.152   3.550  0.2178 -0.1120 -0.3840
11964SOL    HW136508   3.754   5.113   3.474  0.9507  0.2819 -1.0179
11964SOL    HW236509   3.777   5.094   3.623 -1.4005  0.0750 -0.6557
11965SOL     OW36510   4.133   1.921   6.010 -0.2853 -0.2998  0.2139
11965SOL    HW136511   4.198   1.904   6.078 -0.7075 -0.1825  0.6499
11965SOL    HW236512   4.050   1.927   6.057 -0.8377 -1.8874 -0.4674
11966SOL     OW36513   5.584   0.241   6.256  0.3436  0.2699  0.1960
11966SOL    HW136514   5.679   0.229   6.251  0.5101  0.0294  2.5418
11966SOL    HW236515   5.570   0.334   6.242  0.7935  0.1378 -1.2472
11967SOL     OW36516   3.350   1.078   2.285  0.1170 -0.1649 -0.3951
11967SOL    HW136517   3.426   1.022   2.266 -0.0246 -0.7982  0.8022
11967SOL    HW236518   3.366   1.111   2.373 -1.0913 -0.4830 -0.0412
11968SOL     OW36519   0.734   4.550   6.494 -0.0507 -0.0375 -0.2697
11968SOL    HW136520   0.719   4.636   6.532 -1.8161 -0.8254  1.0036
11968SOL    HW236521   0.821   4.554   6.456 -0.3751  2.5111 -0.8772
11969SOL     OW36522   6.438   5.024   5.200  0.3893  0.4064 -0.1784
11969SOL    HW136523   6.488   5.062   5.273 -0.3964 -0.9672  1.1344
11969SOL    HW236524   6.347   5.043   5.222  0.2029  1.1549 -1.5279
11970SOL     OW36525   4.547   6.164   0.272  0.1819  0.2653 -0.0548
11970SOL    HW136526   4.614   6.208   0.219  0.1647  1.5153  0.9128
11970SOL    HW236527   4.525   6.228   0.340 -0.4141 -0.9709  0.9451
11971SOL     OW36528   5.898   0.561   5.950  0.8210 -0.4776 -0.0452
11971SOL    HW136529   5.971   0.514   5.991  0.6017 -0.2954  0.5643
11971SOL    HW236530   5.866   0.620   6.019 -0.4591 -1.1876 -0.0085
11972SOL     OW36531   6.134   0.541   6.423  0.0540 -0.3269 -0.2033
11972SOL    HW136532   6.219   0.575   6.393 -0.3810  0.3224 -0.7204
11972SOL    HW236533   6.157   0.482   6.495  1.1147 -1.7502 -1.6226
11973SOL     OW36534   1.930   2.781   2.069  0.7063  0.2469 -0.1493
11973SOL    HW136535   1.953   2.857   2.123  0.6822  0.7791 -0.8861
11973SOL    HW236536   1.915   2.711   2.133  0.8766  0.8151  0.5293
11974SOL     OW36537   2.075   3.573   0.520  0.1962 -0.4087  0.2016
11974SOL    HW136538   2.037   3.660   0.528  0.3939 -0.4572  1.9529
11974SOL    HW236539   2.169   3.589   0.510  0.3803 -0.4209  1.7090
11975SOL     OW36540   6.154   1.133   2.490 -0.4857  0.0387  0.0608
11975SOL    HW136541   6.067   1.128   2.531  0.0194 -1.1852  1.0795
11975SOL    HW236542   6.142   1.189   2.414 -1.7898  1.3065  1.1397
11976SOL     OW36543   6.315   6.880   1.697 -0.3167  0.1303 -0.3428
11976SOL    HW136544   6.273   6.956   1.655  0.3067  0.6385 -0.0645
11976SOL    HW236545   6.267   6.870   1.780 -0.3864  0.2391 -0.3694
11977SOL     OW36546   1.153   0.204   2.934  0.4196  0.4299 -0.4128
11977SOL    HW136547   1.171   0.133   2.997  1.7561  0.5595 -0.6188
11977SOL    HW236548   1.234   0.255   2.932  0.4163  0.4351 -2.2350
11978SOL     OW36549   7.151   1.199   3.456 -0.1649  0.5792  0.6316
11978SOL    HW136550   7.098   1.213   3.378  0.8207 -2.6931 -0.7924
11978SOL    HW236551   7.241   1.201   3.425  0.2318 -1.2944  1.5421
11979SOL     OW36552   3.620   6.732   5.323 -0.8032 -0.2542  0.2820
11979SOL    HW136553   3.640   6.641   5.343 -1.8301 -0.7316 -0.7609
11979SOL    HW236554   3.560   6.760   5.392  0.0256 -0.1398  0.9771
11980SOL     OW36555   3.394   5.980   1.611  0.1426 -0.1614 -0.3650
11980SOL    HW136556   3.447   5.988   1.531 -0.8783 -0.3955 -1.0723
11980SOL    HW236557   3.330   6.051   1.604  1.3881  1.2153  1.3122
11981SOL     OW36558   4.660   1.572   3.248 -0.1218  0.3794  0.2813
11981SOL    HW136559   4.702   1.506   3.304  0.6422 -0.0955 -0.8264
11981SOL    HW236560   4.573   1.537   3.231 -0.6923  0.9384  1.8519
11982SOL     OW36561   5.676   4.910   4.268 -0.1128  0.1778 -0.0923
11982SOL    HW136562   5.647   4.819   4.276  2.4531 -0.6083  2.0298
11982SOL    HW236563   5.660   4.948   4.354  2.4320  0.4381  0.3614
11983SOL     OW36564   4.562   5.276   5.412  0.0580  0.1624 -0.1639
11983SOL    HW136565   4.624   5.226   5.464 -0.3376  0.9012  1.0688
11983SOL    HW236566   4.495   5.304   5.475 -2.3750 -1.8545 -1.6761
11984SOL     OW36567   6.487   4.897   7.185 -0.6667 -0.1901  0.0552
11984SOL    HW136568   6.543   4.963   7.226  1.0251 -2.5296  1.7688
11984SOL    HW236569   6.414   4.888   7.246 -0.9543  0.1251 -0.2346
11985SOL     OW36570   4.226   4.522   3.132  0.0627 -0.1005 -0.3335
11985SOL    HW136571   4.194   4.610   3.113  1.6827  0.5171 -0.4002
11985SOL    HW236572   4.269   4.530   3.217  0.2955 -0.8116 -0.3727
11986SOL     OW36573   6.256   6.590   2.782 -0.1498  0.4940  0.4656
11986SOL    HW136574   6.274   6.663   2.842  0.9923  0.1007  0.6341
11986SOL    HW236575   6.339   6.542   2.778 -0.2303  0.4232 -1.3022
11987SOL     OW36576   2.847   3.304   1.753 -0.0050  0.1422  0.0173
11987SOL    HW136577   2.843   3.350   1.669  1.1616  1.3229  0.5849
11987SOL    HW236578   2.834   3.373   1.818  0.9149 -0.4744  0.8670
11988SOL     OW36579   1.923   3.492   0.784  0.1229 -0.0245 -0.5247
11988SOL    HW136580   1.980   3.543   0.727  0.0385 -0.3829 -0.9381
11988SOL    HW236581   1.891   3.421   0.728  0.1975 -0.4998  0.0245
11989SOL     OW36582   3.846   7.003   4.420  0.4817  0.4480  0.4888
11989SOL    HW136583   3.843   7.096   4.399 -2.1132  0.3455  0.0292
11989SOL    HW236584   3.895   6.997   4.501 -0.0279  2.3210  0.9636
11990SOL     OW36585   7.214   5.852   0.553  0.2332  0.2091 -0.4960
11990SOL    HW136586   7.182   5.942   0.562 -0.5491 -0.2002  1.1076
11990SOL    HW236587   7.174   5.821   0.471 -1.5082  0.5422  0.1736
11991SOL     OW36588   4.635   4.951   5.038 -0.0027 -0.0278 -0.6831
11991SOL    HW136589   4.574   5.004   5.091  0.1388  0.2329 -0.7808
11991SOL    HW236590   4.578   4.895   4.986 -0.2819  1.9235 -2.6089
11992SOL     OW36591   3.495   6.995   0.862 -0.7156  0.0678 -0.2276
11992SOL    HW136592   3.432   6.961   0.798  1.4681 -1.7929 -1.5600
11992SOL    HW236593   3.500   7.088   0.842 -0.7115 -0.3088 -2.3036
11993SOL     OW36594   4.542   1.164   6.876 -0.3883 -0.3963 -0.0939
11993SOL    HW136595   4.513   1.087   6.924  0.7396 -0.8914 -0.1883
11993SOL    HW236596   4.512   1.149   6.786  0.7126 -1.2272 -0.3409
11994SOL     OW36597   1.670   5.114   3.807  0.8027 -0.2472 -0.1185
11994SOL    HW136598   1.707   5.036   3.767  0.6383  0.0267 -0.8105
11994SOL    HW236599   1.611   5.149   3.741 -0.4654 -0.5050  0.8353
11995SOL     OW36600   0.779   3.590   1.787 -0.7410  0.2762 -0.0244
11995SOL    HW136601   0.685   3.579   1.802 -0.3279  0.4925  3.7456
11995SOL    HW236602   0.802   3.670   1.834  0.8819  2.2812 -3.7845
11996SOL     OW36603   3.123   2.992   1.927 -0.1076  0.3099  0.0159
11996SOL    HW136604   3.037   3.028   1.910  0.1050  0.8108 -0.0020
11996SOL    HW236605   3.181   3.036   1.865  0.3208  0.6765  0.6680
11997SOL     OW36606   6.027   1.607   1.193 -0.0860 -0.2381  0.2582
11997SOL    HW136607   6.048   1.692   1.154 -0.7439  0.6204  1.6748
11997SOL    HW236608   5.987   1.557   1.122 -1.5891  1.3840 -0.0936
11998SOL     OW36609   3.093   6.306   6.902  0.2358 -0.2383  0.4962
11998SOL    HW136610   3.185   6.281   6.913  0.2679  0.0434  0.9031
11998SOL    HW236611   3.097   6.395   6.867  0.1338  0.4028  2.0185
11999SOL     OW36612   1.279   1.455   4.021 -0.6790  0.1982 -0.2334
11999SOL    HW136613   1.294   1.542   4.060 -0.7810 -0.4033  1.2284
11999SOL    HW236614   1.269   1.472   3.928 -0.0662  1.6889 -0.0586
12000SOL     OW36615   2.533   2.246   3.918 -0.6024 -0.2128 -0.6685
12000SOL    HW136616   2.469   2.308   3.882 -0.3984  0.8630  0.7409
12000SOL    HW236617   2.531   2.261   4.013  2.2378  0.3867 -0.6098
12001SOL     OW36618   1.729   2.682   5.295  0.0777  0.0330  0.0029
12001SOL    HW136619   1.724   2.771   5.261  0.3711  1.1544  2.6269
12001SOL    HW236620   1.819   2.655   5.277 -0.1177  0.1018 -1.1338
12002SOL     OW36621   0.105   1.882   4.803 -0.1851  0.0579  0.0183
12002SOL    HW136622   0.058   1.801   4.823 -1.5488  0.4573 -1.3101
12002SOL    HW236623   0.173   1.856   4.742 -0.2714 -0.1785  0.0234
12003SOL     OW36624   6.841   4.702   2.807 -0.1042  0.1029  0.2167
12003SOL    HW136625   6.812   4.621   2.849  1.9570  0.5663  2.7447
12003SOL    HW236626   6.892   4.672   2.732 -0.0764 -0.9202  0.6227
12004SOL     OW36627   4.567   3.352   4.088  0.7011  0.2526  0.1938
12004SOL    HW136628   4.594   3.346   4.180  1.1154 -0.6272  0.0326
12004SOL    HW236629   4.478   3.316   4.087  0.6890  0.2813  0.2590
12005SOL     OW36630   1.952   6.702   3.981  0.3228 -0.5300 -0.7887
12005SOL    HW136631   2.022   6.754   3.940  0.9449  0.3570  1.2808
12005SOL    HW236632   1.925   6.753   4.057  0.9093 -3.1572  1.3293
12006SOL     OW36633   4.442   6.026   7.088  0.1729  0.2130 -0.0318
12006SOL    HW136634   4.382   5.954   7.069  0.3723  0.2352 -0.7880
12006SOL    HW236635   4.445   6.031   7.183 -0.7813  0.0142  0.0112
12007SOL     OW36636   6.852   0.537   5.926 -0.5321  0.5341 -0.0931
12007SOL    HW136637   6.881   0.587   5.850  0.7109 -1.6288 -1.1146
12007SOL    HW236638   6.786   0.477   5.892  0.8553 -1.2641  0.2134
12008SOL     OW36639   3.825   0.647   0.106 -0.0757  0.1857 -0.2487
12008SOL    HW136640   3.843   0.732   0.066 -0.8810  0.4423 -0.0840
12008SOL    HW236641   3.790   0.594   0.034  3.7228 -1.2111 -1.2790
12009SOL     OW36642   2.918   2.446   1.931 -0.1433  0.1109 -0.3016
12009SOL    HW136643   3.001   2.413   1.898 -0.4891  0.1975 -1.3117
12009SOL    HW236644   2.898   2.390   2.006 -0.2132 -1.3341 -1.3535
12010SOL     OW36645   4.871   3.444   1.927  0.2201 -0.2643  0.2943
12010SOL    HW136646   4.943   3.499   1.896  0.3947 -0.8643 -0.3977
12010SOL    HW236647   4.814   3.435   1.851 -0.3063 -0.2503  0.6806
12011SOL     OW36648   5.900   2.340   1.887 -0.5855  0.0943 -0.0756
12011SOL    HW136649   5.812   2.303   1.885 -0.6592  0.2438 -2.6535
12011SOL    HW236650   5.957   2.263   1.893 -0.8267 -0.3573 -2.5749
12012SOL     OW36651   0.689   2.183   5.512 -0.1644  0.1804  0.2840
12012SOL    HW136652   0.760   2.164   5.573  0.2560  0.0833 -0.2339
12012SOL    HW236653   0.695   2.115   5.445 -0.4675  0.4327 -0.0033
12013SOL     OW36654   5.849   3.551   5.424  0.3864  0.2390 -0.2312
12013SOL    HW136655   5.810   3.568   5.510  0.8411  1.6883 -0.2962
12013SOL    HW236656   5.871   3.637   5.390  0.3133 -0.3255 -1.7729
12014SOL     OW36657   0.761   1.382   7.214 -0.3583 -0.1458 -0.0179
12014SOL    HW136658   0.828   1.420   7.157  0.1731  0.2287  0.8310
12014SOL    HW236659   0.771   1.429   7.297  0.3200 -2.1315  1.0855
12015SOL     OW36660   3.199   5.632   1.005 -0.0628 -0.1439  0.2849
12015SOL    HW136661   3.185   5.581   1.085 -0.7314 -0.2814  0.0811
12015SOL    HW236662   3.169   5.576   0.934  2.8010 -1.0530 -0.3626
12016SOL     OW36663   3.574   3.297   5.085 -0.1829 -0.1509 -0.5440
12016SOL    HW136664   3.496   3.262   5.041  1.2880 -2.5539 -1.4717
12016SOL    HW236665   3.560   3.278   5.178 -1.1819  0.5180 -0.5384
12017SOL     OW36666   0.909   0.083   2.219  0.4420 -0.3522 -0.1901
12017SOL    HW136667   0.844   0.014   2.216  0.1288 -0.0389 -1.4286
12017SOL    HW236668   0.867   0.154   2.267  0.8267 -1.0610  1.2276
12018SOL     OW36669   5.477   6.768   1.712 -0.3459  0.0964 -0.1880
12018SOL    HW136670   5.424   6.848   1.707 -0.8714 -0.2836 -0.6825
12018SOL    HW236671   5.567   6.800   1.720 -0.4770  0.7436 -1.1538
12019SOL     OW36672   5.955   5.264   3.714  0.2689  0.0116  0.3293
12019SOL    HW136673   6.035   5.223   3.681  0.0180  0.2840 -0.6466
12019SOL    HW236674   5.978   5.357   3.723 -0.6522  0.6203 -2.5219
12020SOL     OW36675   0.500   1.652   6.676  0.3470 -0.2965 -0.1154
12020SOL    HW136676   0.471   1.738   6.708 -1.6291 -1.1829  0.6745
12020SOL    HW236677   0.457   1.590   6.734  1.1966 -1.8539 -1.0888
12021SOL     OW36678   3.162   0.779   0.057  0.0538  0.0618  0.1425
12021SOL    HW136679   3.210   0.862   0.045 -0.5179  0.8778  2.7300
12021SOL    HW236680   3.083   0.789   0.004 -0.2084  1.3988  0.7239
12022SOL     OW36681   6.710   0.461   3.796  1.1114 -0.2039 -0.1611
12022SOL    HW136682   6.640   0.438   3.735 -0.3182  1.4600  0.7904
12022SOL    HW236683   6.781   0.400   3.775 -0.4829 -1.7198 -1.3781
12023SOL     OW36684   4.460   6.201   3.279 -0.2128  0.1606 -0.0139
12023SOL    HW136685   4.469   6.175   3.188  2.0223 -2.1115  0.7045
12023SOL    HW236686   4.550   6.215   3.309 -0.8400  0.3558  1.9519
12024SOL     OW36687   7.043   3.274   0.392  0.0619  0.5255 -0.1658
12024SOL    HW136688   7.061   3.179   0.394  0.4163  0.5164 -2.1842
12024SOL    HW236689   6.957   3.283   0.433  0.4780 -0.5386  1.0117
12025SOL     OW36690   4.441   0.096   2.621  0.3615  0.3230  0.1324
12025SOL    HW136691   4.383   0.119   2.694  0.4189 -1.1824  0.6880
12025SOL    HW236692   4.490   0.020   2.652  2.1630  1.1251 -0.5856
12026SOL     OW36693   5.827   0.332   6.155 -0.1554 -0.1234  0.2526
12026SOL    HW136694   5.915   0.361   6.134 -0.3424  0.2646 -0.0182
12026SOL    HW236695   5.781   0.333   6.071 -0.2014 -1.1049  0.2545
12027SOL     OW36696   1.152   7.134   3.359  0.2504  0.4202  0.1608
12027SOL    HW136697   1.069   7.109   3.318 -0.6219  0.6312  1.7476
12027SOL    HW236698   1.207   7.056   3.349 -0.9963 -0.6564  1.2609
12028SOL     OW36699   3.606   1.938   1.106 -0.0201  0.3118 -0.3263
12028SOL    HW136700   3.529   1.882   1.109  0.6377 -0.6168 -0.3709
12028SOL    HW236701   3.575   2.023   1.136 -0.4073 -0.8318  2.9962
12029SOL     OW36702   2.652   6.668   4.774 -0.2713 -0.3120  0.1748
12029SOL    HW136703   2.557   6.674   4.768 -0.2329  2.4377  0.7028
12029SOL    HW236704   2.682   6.759   4.767  2.2298 -0.9601  1.2613
12030SOL     OW36705   1.745   4.919   2.401  0.2013 -0.3110  0.3500
12030SOL    HW136706   1.663   4.922   2.353  0.3782  0.7201  0.0825
12030SOL    HW236707   1.765   5.010   2.421  1.2873 -0.5370  0.3942
12031SOL     OW36708   0.654   5.312   5.796  0.0374 -0.1517 -0.6168
12031SOL    HW136709   0.691   5.294   5.709  0.2210 -0.3827 -0.4951
12031SOL    HW236710   0.571   5.265   5.797 -0.9189  1.4374 -1.3685
12032SOL     OW36711   4.405   4.778   5.721 -0.0218  0.2785 -0.3170
12032SOL    HW136712   4.434   4.725   5.795 -0.4841  1.0932  0.4694
12032SOL    HW236713   4.481   4.831   5.697 -0.4627  1.5743  0.9947
12033SOL     OW36714   6.782   0.281   0.618 -0.1955 -0.3589 -0.2190
12033SOL    HW136715   6.709   0.222   0.601 -1.5380  1.0721  0.3051
12033SOL    HW236716   6.785   0.339   0.541  0.1140 -0.1394 -0.0466
12034SOL     OW36717   7.188   3.768   3.907 -0.0641  0.7106  0.1688
12034SOL    HW136718   7.178   3.699   3.973 -0.1809  0.7098  0.1509
12034SOL    HW236719   7.202   3.721   3.825 -1.8722  0.6588 -0.1445
12035SOL     OW36720   4.852   3.549   1.413  0.0507  0.1608 -0.7516
12035SOL    HW136721   4.947   3.539   1.411  0.0428 -0.1667  0.1448
12035SOL    HW236722   4.829   3.574   1.324  0.8623 -0.8817 -1.2829
12036SOL     OW36723   3.890   1.606   7.238 -0.5865 -0.2251  0.1546
12036SOL    HW136724   3.856   1.560   7.315 -0.4578  1.5654  1.3601
12036SOL    HW236725   3.985   1.597   7.245 -0.5256  0.7032  0.7604
12037SOL     OW36726   2.293   0.813   3.957  0.4694  0.2028 -0.5004
12037SOL    HW136727   2.365   0.757   3.926  0.5573 -1.3288  2.1542
12037SOL    HW236728   2.227   0.806   3.889  1.9854 -0.0452 -2.0244
12038SOL     OW36729   3.106   6.956   1.283 -0.3314  0.4538  0.2123
12038SOL    HW136730   3.017   6.955   1.250 -0.2674 -0.0562  0.0466
12038SOL    HW236731   3.161   6.953   1.205 -0.1775 -2.0214  0.3295
12039SOL     OW36732   2.465   7.107   0.311  0.0064  0.0942 -0.5068
12039SOL    HW136733   2.556   7.080   0.326  0.6565  1.8318 -1.0961
12039SOL    HW236734   2.462   7.132   0.218 -1.2165 -0.3904 -0.6227
12040SOL     OW36735   5.137   0.882   6.109 -0.3474 -0.1871  0.0384
12040SOL    HW136736   5.224   0.918   6.094 -0.5343 -0.0990 -0.8772
12040SOL    HW236737   5.148   0.788   6.101 -0.0565 -0.2952  1.4294
12041SOL     OW36738   0.353   3.328   1.329 -0.5059 -0.2886  0.3175
12041SOL    HW136739   0.331   3.419   1.346 -0.8433  0.0497 -1.6525
12041SOL    HW236740   0.449   3.325   1.331 -0.4934  0.1274  0.3247
12042SOL     OW36741   5.737   0.873   3.882  1.0334 -0.7832 -0.1544
12042SOL    HW136742   5.716   0.840   3.970  1.4108 -1.5858 -0.3609
12042SOL    HW236743   5.678   0.825   3.824  0.5058  0.0359 -0.3102
12043SOL     OW36744   5.753   3.188   3.412 -0.5701  0.3924  0.4858
12043SOL    HW136745   5.725   3.148   3.330  2.1648  0.0906 -0.4148
12043SOL    HW236746   5.762   3.281   3.392  0.8582  0.2027  0.1745
12044SOL     OW36747   6.385   6.912   6.903 -0.1133  0.1663 -0.2907
12044SOL    HW136748   6.442   6.987   6.920  0.4067  0.3949 -2.6904
12044SOL    HW236749   6.337   6.899   6.985  1.8378  1.3031  1.1113
12045SOL     OW36750   5.211   7.091   0.956 -0.2048  0.5454 -0.6072
12045SOL    HW136751   5.219   7.124   1.045  0.0072 -1.9789  0.4077
12045SOL    HW236752   5.297   7.105   0.916 -0.0257  0.8869 -0.0999
12046SOL     OW36753   4.334   2.459   4.707 -0.6773  0.1761  1.0361
12046SOL    HW136754   4.266   2.525   4.718 -1.7262 -0.4646 -1.1428
12046SOL    HW236755   4.289   2.383   4.670  1.3703  0.2835 -2.0830
12047SOL     OW36756   0.048   3.451   0.989  0.1300 -0.3845  0.0045
12047SOL    HW136757  -0.005   3.508   1.045 -0.1924  0.1469 -0.8165
12047SOL    HW236758   0.053   3.368   1.036 -1.9626 -0.6486 -0.1657
12048SOL     OW36759   4.395   5.805   1.732  0.0458  0.3089 -0.2909
12048SOL    HW136760   4.357   5.882   1.689  0.1375  0.5492  0.0584
12048SOL    HW236761   4.490   5.819   1.726  0.0569  0.7422  0.6958
12049SOL     OW36762   7.082   2.377   4.466 -0.2101  0.2497 -0.1074
12049SOL    HW136763   7.063   2.327   4.387  0.1877  0.4359 -0.3252
12049SOL    HW236764   7.173   2.406   4.455 -0.1972  0.3961  0.3515
12050SOL     OW36765   2.952   1.201   0.597  0.3842  0.1178 -0.2182
12050SOL    HW136766   3.023   1.262   0.617 -0.7496  1.5434 -0.4013
12050SOL    HW236767   2.922   1.171   0.683 -1.1879  2.4019  0.1442
12051SOL     OW36768   4.070   0.552   0.268  0.2632  0.0534  0.1412
12051SOL    HW136769   4.014   0.508   0.332  1.0357 -0.4804  0.4645
12051SOL    HW236770   4.009   0.593   0.207 -0.5239 -2.3208 -0.7835
12052SOL     OW36771   1.999   1.122   4.033 -0.3638  0.6543  0.2747
12052SOL    HW136772   1.969   1.042   4.076 -1.9844  0.7930 -0.5454
12052SOL    HW236773   2.093   1.125   4.052 -0.4646 -0.8910  1.1879
12053SOL     OW36774   2.728   4.228   6.712 -0.5236 -0.0612  0.3086
12053SOL    HW136775   2.682   4.151   6.745  0.6102 -0.9231 -0.0634
12053SOL    HW236776   2.810   4.230   6.761 -0.4992  0.8675  0.2488
12054SOL     OW36777   5.763   1.248   3.568 -0.3794 -0.0589  0.2713
12054SOL    HW136778   5.799   1.168   3.607 -1.4630  0.2565  2.0429
12054SOL    HW236779   5.701   1.281   3.634 -0.1528  2.1104 -0.5225
12055SOL     OW36780   2.046   6.993   4.136 -0.1101  0.2095  0.7701
12055SOL    HW136781   1.970   7.041   4.104 -0.0642  0.1726  0.6015
12055SOL    HW236782   2.038   6.994   4.231 -2.0169 -2.4291  0.7744
12056SOL     OW36783   2.691   4.498   3.156 -0.1999 -0.0686  0.0722
12056SOL    HW136784   2.625   4.441   3.196  0.4076 -0.4930  0.4898
12056SOL    HW236785   2.657   4.516   3.068 -1.7694  1.2200  0.8734
12057SOL     OW36786   6.365   0.659   1.565 -0.8394  0.4308 -0.1290
12057SOL    HW136787   6.283   0.693   1.599 -0.3436  2.3130 -0.6754
12057SOL    HW236788   6.428   0.673   1.635 -1.2764 -2.7527  1.0351
12058SOL     OW36789   2.981   5.468   5.652 -0.4078  0.1194  0.4981
12058SOL    HW136790   3.023   5.487   5.568 -0.3053 -1.8531  0.0344
12058SOL    HW236791   2.941   5.382   5.639 -0.8093 -0.0123  2.3320
12059SOL     OW36792   5.165   6.643   1.028 -0.0251 -0.5696  0.1341
12059SOL    HW136793   5.174   6.727   1.073 -1.1998  0.1843 -0.9643
12059SOL    HW236794   5.213   6.654   0.946  1.1598 -1.5521  0.6508
12060SOL     OW36795   5.131   0.453   0.857 -0.0867  0.0837 -0.1715
12060SOL    HW136796   5.198   0.521   0.843  0.9339 -1.0669 -1.1106
12060SOL    HW236797   5.101   0.431   0.769  0.7027 -1.7390 -0.0318
12061SOL     OW36798   2.095   0.510   1.307  0.2346 -0.0059 -0.1510
12061SOL    HW136799   2.184   0.476   1.301  0.4899  0.3895  1.0595
12061SOL    HW236800   2.071   0.500   1.400 -1.0459 -0.2640 -0.4829
12062SOL     OW36801   4.759   5.246   0.935  0.3709  0.3273  0.3024
12062SOL    HW136802   4.840   5.230   0.885  0.2731  2.9832 -0.9121
12062SOL    HW236803   4.788   5.298   1.010 -0.0265 -0.1017  0.7552
12063SOL     OW36804   1.162   4.438   2.238 -0.3106 -0.5034 -0.0003
12063SOL    HW136805   1.243   4.481   2.211  0.3413 -1.9190 -0.3962
12063SOL    HW236806   1.171   4.348   2.206 -1.8709 -0.7934  0.2972
12064SOL     OW36807   2.849   0.599   3.821  0.4426  0.0951 -0.2777
12064SOL    HW136808   2.926   0.554   3.785 -0.3075 -1.2441 -0.2951
12064SOL    HW236809   2.807   0.533   3.875  0.2445  1.3535  1.1603
12065SOL     OW36810   6.950   0.882   6.902 -0.2140  0.0353 -0.1922
12065SOL    HW136811   6.963   0.898   6.995 -1.2142  1.5372 -0.2755
12065SOL    HW236812   6.856   0.895   6.888 -0.0324  0.1534 -1.4491
12066SOL     OW36813   3.515   1.793   3.872  0.3700 -0.3555  0.2808
12066SOL    HW136814   3.485   1.785   3.782  1.3853 -1.8366  0.0274
12066SOL    HW236815   3.558   1.709   3.891  1.7244  0.5506  1.5573
12067SOL     OW36816   6.713   5.437   0.369 -0.0610  0.1078  0.1868
12067SOL    HW136817   6.671   5.439   0.283 -0.4134 -0.1050  0.3502
12067SOL    HW236818   6.770   5.513   0.370  0.2815 -0.1348 -0.4024
12068SOL     OW36819   5.196   2.682   5.690  0.1110 -0.4419 -0.1373
12068SOL    HW136820   5.142   2.694   5.612 -0.5248  1.7716  0.5671
12068SOL    HW236821   5.253   2.608   5.669 -1.9168 -1.6816 -1.6170
12069SOL     OW36822   1.977   4.679   3.950 -0.7072  0.5727 -0.0910
12069SOL    HW136823   2.062   4.641   3.928 -0.6554  0.0294  1.0112
12069SOL    HW236824   1.925   4.670   3.870 -0.1956 -0.4179 -0.3221
12070SOL     OW36825   0.198   1.415   5.571  0.0738 -0.6080 -0.0948
12070SOL    HW136826   0.104   1.414   5.587  0.1324 -1.9686  0.3166
12070SOL    HW236827   0.209   1.365   5.490  0.4503 -0.5863 -0.0602
12071SOL     OW36828   3.792   5.859   1.334  0.4651 -0.2486  0.0193
12071SOL    HW136829   3.787   5.799   1.408 -0.0460 -0.5026 -0.2180
12071SOL    HW236830   3.807   5.803   1.258  1.4584  0.0427 -0.0227
12072SOL     OW36831   2.108   0.724   1.142  0.5155  0.1656 -0.3350
12072SOL    HW136832   2.040   0.791   1.152 -0.4044 -0.6310 -1.0703
12072SOL    HW236833   2.096   0.665   1.216 -0.7508 -0.9361 -1.3602
12073SOL     OW36834   6.705   1.323   3.932  0.4244 -0.0693 -0.5929
12073SOL    HW136835   6.773   1.295   3.993 -1.6668  0.0614  1.9772
12073SOL    HW236836   6.680   1.411   3.962  0.1427  0.5365 -2.4421
12074SOL     OW36837   0.838   2.551   1.133  0.0243  0.6297 -0.1669
12074SOL    HW136838   0.902   2.482   1.146 -0.3034  0.1666 -0.9313
12074SOL    HW236839   0.754   2.505   1.123 -0.3069  1.1757  0.0370
12075SOL     OW36840   3.533   6.177   1.895  0.0534  0.1784  0.1787
12075SOL    HW136841   3.584   6.102   1.924  1.0452  1.0369  0.6914
12075SOL    HW236842   3.523   6.232   1.973 -3.4919 -0.9185  0.6995
12076SOL     OW36843   4.051   0.160   5.102 -0.5010 -0.1702  0.6731
12076SOL    HW136844   4.103   0.239   5.115 -0.0861 -0.2251 -0.5076
12076SOL    HW236845   4.113   0.088   5.114 -0.7928 -0.3108  1.3686
12077SOL     OW36846   0.855   6.568   1.135 -0.3633  0.7633 -0.7962
12077SOL    HW136847   0.863   6.476   1.160  0.0100  1.0741  0.2900
12077SOL    HW236848   0.780   6.571   1.076 -0.8858 -0.1219 -0.1975
12078SOL     OW36849   4.765   5.409   6.598  0.2516 -0.2918 -0.4258
12078SOL    HW136850   4.841   5.414   6.657 -0.1338 -1.3062  0.1832
12078SOL    HW236851   4.759   5.316   6.576 -1.2139 -0.3391  0.0750
12079SOL     OW36852   4.272   2.953   1.052 -0.4989  0.8904 -0.3257
12079SOL    HW136853   4.363   2.968   1.081 -1.2364  1.3360  1.9591
12079SOL    HW236854   4.281   2.912   0.967  1.9206 -1.2059  0.8031
12080SOL     OW36855   4.534   6.214   5.650 -0.1412  0.2699  0.1170
12080SOL    HW136856   4.525   6.120   5.634  1.7915  0.1622 -0.5753
12080SOL    HW236857   4.528   6.253   5.563 -0.5414  0.7666  0.3619
12081SOL     OW36858   1.120   6.177   3.394  0.1360  0.0533  0.1391
12081SOL    HW136859   1.097   6.122   3.469  0.7703 -0.5996 -0.1289
12081SOL    HW236860   1.047   6.239   3.385 -0.6172 -0.7754  0.4257
12082SOL     OW36861   2.029   5.183   7.214  0.0130  0.2402  0.3042
12082SOL    HW136862   2.032   5.160   7.306  1.2235  2.1864  0.8056
12082SOL    HW236863   1.983   5.267   7.211  0.5801  0.5353 -0.7711
12083SOL     OW36864   1.110   1.098   0.114  0.3336  0.6938  0.1804
12083SOL    HW136865   1.086   1.187   0.140  0.2828  0.4236  1.1135
12083SOL    HW236866   1.028   1.049   0.118  0.8599 -0.1675  3.0893
12084SOL     OW36867   7.126   7.239   5.173 -0.1832 -0.3824 -0.1335
12084SOL    HW136868   7.217   7.243   5.199 -0.8233  0.0654  2.2595
12084SOL    HW236869   7.102   7.147   5.184 -1.0539  0.1270  3.5094
12085SOL     OW36870   7.135   2.122   3.688 -0.1755 -0.3534  0.3002
12085SOL    HW136871   7.161   2.060   3.620  1.5646 -0.3873  0.9590
12085SOL    HW236872   7.135   2.207   3.644  1.3439 -0.3206  0.3333
12086SOL     OW36873   6.471   2.697   1.207  0.6595 -0.1191 -0.2544
12086SOL    HW136874   6.541   2.691   1.272  1.7527  0.5674 -1.3167
12086SOL    HW236875   6.471   2.612   1.164  1.7821  0.2767 -1.1228
12087SOL     OW36876   2.973   6.529   5.806 -0.0120 -0.5343  0.0458
12087SOL    HW136877   3.061   6.516   5.770  0.0510  0.4203 -0.1865
12087SOL    HW236878   2.988   6.575   5.889 -0.2332 -1.5260  0.6535
12088SOL     OW36879   3.022   1.763   1.151 -0.7506  0.0179  0.2890
12088SOL    HW136880   2.974   1.843   1.132 -0.8518  0.4901  2.3022
12088SOL    HW236881   2.961   1.710   1.203  0.6734  0.4527  2.5534
12089SOL     OW36882   6.005   2.894   1.880 -0.7707  0.5282 -0.4883
12089SOL    HW136883   6.054   2.839   1.941 -1.5858  0.3923  0.0537
12089SOL    HW236884   6.039   2.982   1.896 -0.9756  0.4962  0.1765
12090SOL     OW36885   5.450   0.459   4.812 -0.5473 -0.5198 -0.1912
12090SOL    HW136886   5.525   0.482   4.868 -0.3629 -0.9355 -0.2602
12090SOL    HW236887   5.459   0.516   4.736 -1.3271  0.7088  0.6195
12091SOL     OW36888   6.572   2.645   1.459  0.0085 -0.2071  0.4938
12091SOL    HW136889   6.505   2.697   1.503  1.2325  1.0541  0.9532
12091SOL    HW236890   6.602   2.583   1.525 -0.3287 -0.4071  0.4586
12092SOL     OW36891   5.435   2.770   2.544  0.2903 -0.3069  0.2840
12092SOL    HW136892   5.510   2.712   2.535  0.0308 -0.5402 -0.4533
12092SOL    HW236893   5.364   2.714   2.575  0.6577  0.1082  1.9942
12093SOL     OW36894   4.770   3.236   3.681 -0.0716  0.2278 -0.2763
12093SOL    HW136895   4.839   3.195   3.628  1.9074  2.6244  0.1970
12093SOL    HW236896   4.721   3.163   3.719  1.5966 -1.5994 -1.4409
12094SOL     OW36897   0.279   3.469   4.273  0.4239  0.8108  0.0121
12094SOL    HW136898   0.316   3.384   4.295 -1.0911 -0.1869 -1.0551
12094SOL    HW236899   0.323   3.530   4.331  2.1383 -0.5761  0.2540
12095SOL     OW36900   5.146   1.456   4.606 -0.0630  0.3126 -0.6354
12095SOL    HW136901   5.183   1.540   4.580  0.8038  0.1050 -0.1022
12095SOL    HW236902   5.075   1.440   4.543 -0.8581  1.8737 -0.1789
12096SOL     OW36903   0.901   0.810   4.607 -0.0954 -0.4886 -0.1539
12096SOL    HW136904   0.851   0.891   4.610 -0.8604 -0.9456 -0.3699
12096SOL    HW236905   0.970   0.827   4.542 -0.9991 -0.4215 -1.1093
12097SOL     OW36906   0.993   1.223   5.992 -0.1393  0.3292  0.2505
12097SOL    HW136907   0.990   1.199   6.084  0.2532  1.9746  0.7192
12097SOL    HW236908   0.966   1.315   5.989 -0.2276  0.2919 -1.2817
12098SOL     OW36909   0.213   1.961   2.575  0.2016  0.0278 -0.0607
12098SOL    HW136910   0.167   1.984   2.494  0.2111 -1.8555 -0.6523
12098SOL    HW236911   0.240   1.870   2.562  4.5464  1.0610  0.0266
12099SOL     OW36912   4.551   4.727   2.384 -0.3053 -0.2810  0.4232
12099SOL    HW136913   4.534   4.702   2.293 -1.1105  1.2799  0.1171
12099SOL    HW236914   4.625   4.787   2.379 -1.2343  0.9011  0.6284
12100SOL     OW36915   1.529   5.486   3.683  0.6617  0.7857 -0.1829
12100SOL    HW136916   1.600   5.486   3.619  1.0907 -1.8689  0.1943
12100SOL    HW236917   1.466   5.423   3.650  0.3874  0.1442  1.4697
12101SOL     OW36918   3.692   6.542   0.691 -0.0342 -0.4162  0.0815
12101SOL    HW136919   3.688   6.513   0.782 -0.1610  0.0396  0.2273
12101SOL    HW236920   3.666   6.465   0.640  0.2341 -0.7336  0.4168
12102SOL     OW36921   1.400   6.542   5.273 -0.1475  0.2927 -0.2294
12102SOL    HW136922   1.372   6.574   5.187 -0.5272 -0.1221 -0.2684
12102SOL    HW236923   1.460   6.470   5.253  1.3397  1.4713 -0.1457
12103SOL     OW36924   5.767   6.237   2.613 -0.1706 -0.6001 -0.1237
12103SOL    HW136925   5.729   6.206   2.695 -0.7007 -0.1787 -0.2052
12103SOL    HW236926   5.699   6.221   2.548 -0.2437  0.2143 -0.2590
12104SOL     OW36927   0.084   2.446   0.479  0.0563 -0.1046 -0.3155
12104SOL    HW136928   0.159   2.503   0.460 -0.3292  0.4608 -0.1363
12104SOL    HW236929   0.087   2.432   0.573  0.4511 -0.8170 -0.4183
12105SOL     OW36930   1.464   0.816   1.201 -0.6694 -0.6914 -0.0103
12105SOL    HW136931   1.424   0.889   1.248  0.1395 -0.4626  0.3444
12105SOL    HW236932   1.422   0.738   1.237 -3.1291 -0.3554 -1.9174
12106SOL     OW36933   1.708   7.162   1.741  0.6038  0.2442  0.1065
12106SOL    HW136934   1.738   7.233   1.684 -2.4612 -0.0702 -2.1458
12106SOL    HW236935   1.721   7.196   1.829  0.0209  3.3666 -0.8535
12107SOL     OW36936   3.118   4.863   3.007 -0.4497 -0.2118  0.4220
12107SOL    HW136937   3.068   4.845   3.086 -1.6568 -0.5376 -0.3866
12107SOL    HW236938   3.104   4.787   2.951 -0.7501  0.6162 -0.6562
12108SOL     OW36939   4.018   4.065   3.983  0.2362 -0.2022  0.2469
12108SOL    HW136940   3.992   4.001   3.917  0.8939  0.9429 -1.1774
12108SOL    HW236941   4.078   4.124   3.937  0.7765  0.5972  1.8980
12109SOL     OW36942   2.787   1.375   2.930  0.1315  0.7178 -0.1691
12109SOL    HW136943   2.802   1.283   2.951  1.3803 -0.5546 -5.2437
12109SOL    HW236944   2.727   1.373   2.855  3.2700  3.5717 -3.0773
12110SOL     OW36945   0.544   5.126   6.463 -0.0181  0.0975  0.6857
12110SOL    HW136946   0.476   5.160   6.521 -0.1276  0.3393  0.4156
12110SOL    HW236947   0.496   5.077   6.396  0.1066 -0.1563  0.7798
12111SOL     OW36948   4.450   3.696   2.785 -0.4908  0.4850 -0.5036
12111SOL    HW136949   4.443   3.724   2.877 -2.1723 -0.1144 -0.4227
12111SOL    HW236950   4.466   3.602   2.790 -0.6119  0.4466 -0.8295
12112SOL     OW36951   4.966   0.002   3.456  0.2514 -0.0198 -0.3334
12112SOL    HW136952   4.913  -0.023   3.532  2.8751 -0.5574  1.4406
12112SOL    HW236953   4.979  -0.080   3.408  2.0646 -0.5834  1.0149
12113SOL     OW36954   0.356   7.133   3.675  0.3458  0.2111 -0.5969
12113SOL    HW136955   0.305   7.162   3.751  1.2039  1.9279 -0.6344
12113SOL    HW236956   0.392   7.213   3.637  3.5287 -0.8650 -0.2437
12114SOL     OW36957   0.631   2.019   5.742 -0.7732  0.5250  0.2464
12114SOL    HW136958   0.697   2.066   5.792 -1.5313  0.7756  1.0377
12114SOL    HW236959   0.556   2.012   5.801 -1.6832  0.8077 -0.8348
12115SOL     OW36960   7.247   7.138   6.095 -0.5457 -0.2455 -0.5279
12115SOL    HW136961   7.282   7.096   6.173 -0.1482 -0.6523 -0.9259
12115SOL    HW236962   7.209   7.067   6.043 -1.0894  0.0617 -0.5645
12116SOL     OW36963   5.038   1.133   4.335  0.9388 -0.2090 -0.2196
12116SOL    HW136964   5.025   1.222   4.369 -1.0961 -0.1775 -0.9850
12116SOL    HW236965   5.041   1.078   4.413 -0.8359  0.1954  0.1656
12117SOL     OW36966   2.472   2.523   6.673 -0.0347  1.0325  0.1537
12117SOL    HW136967   2.422   2.502   6.752  2.8873 -0.7467  1.7353
12117SOL    HW236968   2.410   2.512   6.601 -2.2558  0.4907  2.0156
12118SOL     OW36969   0.829   5.256   0.674 -0.1286 -0.4586 -0.3539
12118SOL    HW136970   0.849   5.328   0.615 -2.3224  1.0309  0.5655
12118SOL    HW236971   0.738   5.233   0.653 -0.0944 -1.6498  0.6871
12119SOL     OW36972   2.803   2.787   0.405  0.1131 -0.4816 -0.1958
12119SOL    HW136973   2.896   2.790   0.427  0.3767 -1.3807 -1.0866
12119SOL    HW236974   2.758   2.806   0.487  1.0732  2.3408 -0.2271
12120SOL     OW36975   0.904   1.645   1.993  0.2263  0.0694 -0.1408
12120SOL    HW136976   0.867   1.615   2.077  1.3512 -1.1208 -0.0412
12120SOL    HW236977   0.869   1.584   1.928 -2.0666  2.0219 -0.8910
12121SOL     OW36978   5.397   0.725   4.998 -0.2157 -0.1503  0.1510
12121SOL    HW136979   5.384   0.663   4.926  2.6800 -0.6545 -0.0487
12121SOL    HW236980   5.388   0.811   4.958  3.3837 -0.3574 -1.4555
12122SOL     OW36981   6.616   6.510   2.468 -0.5810 -0.4452  0.3143
12122SOL    HW136982   6.656   6.424   2.477 -0.7456 -0.4613  0.9106
12122SOL    HW236983   6.559   6.501   2.391 -0.1703 -0.6961  0.0327
12123SOL     OW36984   4.114   3.971   6.603 -0.6071 -0.2757 -0.1363
12123SOL    HW136985   4.056   4.043   6.626 -1.2598 -0.9485  0.3853
12123SOL    HW236986   4.098   3.955   6.510 -1.9783 -1.0734  0.2103
12124SOL     OW36987   6.378   4.922   4.963 -0.0354  0.1657  0.0769
12124SOL    HW136988   6.454   4.882   4.921  1.3713  0.8187  1.8351
12124SOL    HW236989   6.415   4.968   5.039 -1.9766  2.0282 -0.0218
12125SOL     OW36990   4.402   1.131   0.756  0.1699  0.6938 -0.3905
12125SOL    HW136991   4.327   1.078   0.784  1.2353  0.3550  2.0898
12125SOL    HW236992   4.476   1.071   0.759  0.9244  1.6008 -0.4952
12126SOL     OW36993   1.379   1.725   1.139 -0.1030  0.1846  0.4795
12126SOL    HW136994   1.412   1.733   1.049 -1.8516  0.0110 -0.2288
12126SOL    HW236995   1.344   1.812   1.159 -1.1246 -0.1740  0.3604
12127SOL     OW36996   5.453   5.732   1.986  0.1447 -0.0769  0.3656
12127SOL    HW136997   5.517   5.773   2.043  0.2961 -0.2355  0.3107
12127SOL    HW236998   5.505   5.686   1.921 -0.0273  0.4196 -0.1301
12128SOL     OW36999   6.661   0.593   2.881 -0.2213  0.3683 -0.5441
12128SOL    HW137000   6.691   0.608   2.970  0.8352 -1.4171 -0.5379
12128SOL    HW237001   6.659   0.679   2.840  0.4090  1.0692  0.8614
12129SOL     OW37002   4.222   6.614   4.440  0.6739  0.2891 -0.2298
12129SOL    HW137003   4.201   6.614   4.534 -1.1564  0.7755 -0.6106
12129SOL    HW237004   4.295   6.675   4.432 -0.7653  2.2163  0.5765
12130SOL     OW37005   0.137   2.660   2.810 -0.1763  0.0780  0.5148
12130SOL    HW137006   0.197   2.598   2.768 -0.1135 -0.5470  1.5005
12130SOL    HW237007   0.158   2.654   2.903 -0.5531  1.1827  0.6810
12131SOL     OW37008   2.765   0.977   6.115  0.4153 -0.0132 -0.3693
12131SOL    HW137009   2.713   0.939   6.045 -0.7138  0.0632  0.4105
12131SOL    HW237010   2.774   0.907   6.180 -1.2046  0.8073  0.8180
12132SOL     OW37011   2.882   0.941   3.221 -0.0067  1.1855  0.6616
12132SOL    HW137012   2.954   0.972   3.166  0.5533  0.0410  0.7160
12132SOL    HW237013   2.827   1.018   3.236  0.6491  1.8404 -0.2455
12133SOL     OW37014   4.853   1.516   1.142 -0.4882 -0.3106  0.2626
12133SOL    HW137015   4.901   1.527   1.223 -0.9459 -0.5375  0.5705
12133SOL    HW237016   4.793   1.591   1.139 -2.9787 -2.0507  1.9198
12134SOL     OW37017   2.534   0.978   6.869 -0.0437 -0.6311  0.5212
12134SOL    HW137018   2.491   0.971   6.784  1.4605  0.1047 -0.3373
12134SOL    HW237019   2.559   0.888   6.890  2.5328 -0.4826 -1.4589
12135SOL     OW37020   2.450   6.907   1.815 -0.2756  0.5215  0.3364
12135SOL    HW137021   2.476   6.996   1.794  1.3312  0.3722  1.5246
12135SOL    HW237022   2.532   6.861   1.832 -1.1815 -0.6015  1.9115
12136SOL     OW37023   0.107   4.015   7.108 -0.0804  0.4317  0.3230
12136SOL    HW137024   0.141   3.931   7.140 -0.0995  1.3370  2.9131
12136SOL    HW237025   0.185   4.069   7.097 -0.0983  0.2182 -1.0510
12137SOL     OW37026   6.036   2.887   1.606  0.7317  0.8272 -0.1156
12137SOL    HW137027   6.044   2.897   1.701  0.9478  0.5813 -0.1071
12137SOL    HW237028   6.112   2.933   1.571 -0.7224  3.2314 -0.3137
12138SOL     OW37029   1.495   0.971   6.194  0.3575  0.5340  0.4736
12138SOL    HW137030   1.572   1.013   6.154  0.1774  0.8081  0.4132
12138SOL    HW237031   1.527   0.938   6.278  0.5993  0.4412  0.3473
12139SOL     OW37032   7.019   5.304   6.943 -0.4669 -0.0548 -0.1682
12139SOL    HW137033   7.087   5.251   6.983  0.2032  1.1707  0.3642
12139SOL    HW237034   6.942   5.247   6.941  0.1090 -0.8875  0.7698
12140SOL     OW37035   1.450   3.273   3.791 -0.0464  0.4276 -0.2969
12140SOL    HW137036   1.408   3.223   3.861  0.4521  1.1165  0.5180
12140SOL    HW237037   1.541   3.244   3.792 -0.3107 -0.5685 -1.6095
12141SOL     OW37038   6.134   1.135   0.122 -0.7680 -0.1112 -0.0586
12141SOL    HW137039   6.155   1.092   0.206 -0.7255 -0.2974 -0.1642
12141SOL    HW237040   6.053   1.183   0.140 -0.7084 -0.0738  0.1158
12142SOL     OW37041   0.640   7.168   6.577 -0.0692 -0.0364 -0.3565
12142SOL    HW137042   0.634   7.254   6.618  0.3736 -0.9605  1.7472
12142SOL    HW237043   0.588   7.176   6.497 -0.4831  2.0074  0.0705
12143SOL     OW37044   3.267   3.274   2.425 -0.3412  0.3986  0.4227
12143SOL    HW137045   3.228   3.283   2.338  1.1792  0.4994 -0.2733
12143SOL    HW237046   3.347   3.224   2.410 -0.0894  0.3745  1.7829
12144SOL     OW37047   0.161   3.841   3.613  0.2427  0.8406  0.2624
12144SOL    HW137048   0.162   3.835   3.709 -3.0173  1.3236  0.4560
12144SOL    HW237049   0.176   3.933   3.594 -1.2004  1.1553  0.5041
12145SOL     OW37050   0.260   4.270   4.097  0.1916  0.4198  0.3092
12145SOL    HW137051   0.334   4.303   4.148 -0.6136  1.6853  0.7024
12145SOL    HW237052   0.232   4.344   4.044  1.0332 -0.8645 -2.0780
12146SOL     OW37053   1.490   1.188   1.141 -0.5659 -0.2846 -0.1533
12146SOL    HW137054   1.425   1.232   1.196  0.7505  0.3670  0.9514
12146SOL    HW237055   1.469   1.095   1.148 -0.5637 -0.1957  1.2916
12147SOL     OW37056   4.075   4.531   7.164  0.1338  0.3302 -0.1067
12147SOL    HW137057   4.081   4.436   7.155  0.9249  0.0899  2.1486
12147SOL    HW237058   3.999   4.556   7.112 -0.5396 -1.6280 -0.1352
12148SOL     OW37059   7.183   0.521   6.834 -0.3072 -0.6319 -0.4114
12148SOL    HW137060   7.244   0.454   6.866 -0.4829 -0.2687  0.7429
12148SOL    HW237061   7.216   0.545   6.748  0.7556 -0.9615 -0.1043
12149SOL     OW37062   4.798   6.928   5.408  0.0125  0.0099 -0.0116
12149SOL    HW137063   4.875   6.937   5.465 -0.9743  2.4216  1.0706
12149SOL    HW237064   4.797   7.009   5.357 -1.1874 -0.5115 -0.8590
12150SOL     OW37065   4.567   3.633   6.802  0.2392 -0.2903  0.2913
12150SOL    HW137066   4.556   3.559   6.861 -0.2114  0.1010  0.7111
12150SOL    HW237067   4.504   3.698   6.834  1.8528  0.9735  1.0571
12151SOL     OW37068   7.099   0.200   5.349  0.0186  0.3321  0.5805
12151SOL    HW137069   7.157   0.168   5.418  2.1808  1.1384 -0.7616
12151SOL    HW237070   7.122   0.147   5.273  0.1733  1.7487 -0.3978
12152SOL     OW37071   3.307   1.308   1.404  0.4371 -0.3648  0.3551
12152SOL    HW137072   3.283   1.399   1.386  0.9368 -0.5570 -1.5202
12152SOL    HW237073   3.382   1.314   1.464 -0.2433  0.3945  1.1607
12153SOL     OW37074   4.866   0.467   0.895 -0.2671 -0.2382 -0.1285
12153SOL    HW137075   4.881   0.439   0.985  0.5518  1.0441  0.1440
12153SOL    HW237076   4.953   0.483   0.860 -0.6502  0.5897 -0.7201
12154SOL     OW37077   4.225   3.533   1.745  0.2403 -0.4105  0.4601
12154SOL    HW137078   4.251   3.555   1.834 -0.7830  2.7031  0.1217
12154SOL    HW237079   4.154   3.470   1.756  0.1556 -0.1068  1.8710
12155SOL     OW37080   1.496   0.001   0.340  0.0707  0.1566 -0.1983
12155SOL    HW137081   1.504  -0.077   0.396  0.5892  0.1183 -0.3194
12155SOL    HW237082   1.402   0.018   0.336 -0.2249 -1.5180 -1.6108
12156SOL     OW37083   2.625   4.685   4.248 -0.7530  0.3613 -0.4248
12156SOL    HW137084   2.640   4.673   4.341  2.3848 -1.1518 -1.0015
12156SOL    HW237085   2.680   4.760   4.224  0.6621 -0.9506 -1.4653
12157SOL     OW37086   4.243   0.247   5.989 -0.5306  0.1488 -0.1807
12157SOL    HW137087   4.166   0.283   5.944 -0.2985  1.6485  0.5604
12157SOL    HW237088   4.316   0.264   5.929 -0.7578 -1.3962 -0.9448
12158SOL     OW37089   3.592   1.227   4.957  0.2720 -0.6607  0.4214
12158SOL    HW137090   3.637   1.186   4.884  0.1097  1.3571 -0.8794
12158SOL    HW237091   3.499   1.228   4.932  0.0170 -1.1839  1.2876
12159SOL     OW37092   3.543   4.217   6.595 -0.2244 -0.7564  0.3556
12159SOL    HW137093   3.546   4.140   6.538 -0.1428  1.6784 -3.2961
12159SOL    HW237094   3.528   4.290   6.535  1.2597  2.2936  3.3587
12160SOL     OW37095   2.013   6.709   6.258 -0.0954 -0.2790 -0.0984
12160SOL    HW137096   2.031   6.783   6.200 -0.4722  0.2389  0.4331
12160SOL    HW237097   2.032   6.632   6.205  1.0931  0.2028 -0.4065
12161SOL     OW37098   0.483   2.680   0.222 -0.2196  0.2242 -0.8992
12161SOL    HW137099   0.543   2.651   0.291 -1.2147  0.3768  0.0529
12161SOL    HW237100   0.429   2.604   0.203 -0.5086  0.4290 -0.9053
12162SOL     OW37101   3.992   4.008   7.245 -0.5841 -0.4109  0.2810
12162SOL    HW137102   3.932   4.079   7.221  1.2349  0.9791 -0.4255
12162SOL    HW237103   4.006   3.960   7.164 -0.1806 -0.2642  0.2592
12163SOL     OW37104   4.213   3.468   3.955  0.3155 -0.2291  0.1142
12163SOL    HW137105   4.153   3.449   3.883 -0.2874  0.1291  0.5051
12163SOL    HW237106   4.278   3.528   3.918 -0.8001  1.0907  0.2014
12164SOL     OW37107   6.288   4.029   0.759  0.4829 -0.4481  0.0735
12164SOL    HW137108   6.291   3.997   0.669 -0.1230 -2.4215  0.7051
12164SOL    HW237109   6.195   4.044   0.776  0.3881 -1.7574  0.8753
12165SOL     OW37110   2.675   6.045   1.715  1.0333  0.1258  0.1301
12165SOL    HW137111   2.692   6.059   1.808  1.1574  0.5916  0.0369
12165SOL    HW237112   2.619   6.119   1.690 -1.1571 -1.3306  0.4305
12166SOL     OW37113   2.084   3.028   4.624 -0.2569 -0.0487  0.4828
12166SOL    HW137114   2.024   3.063   4.690 -0.4314 -0.8027  0.7368
12166SOL    HW237115   2.028   3.010   4.548 -0.1335  0.4039  0.2841
12167SOL     OW37116   5.092   5.811   1.415 -0.1052  0.1793 -0.3507
12167SOL    HW137117   5.139   5.866   1.352 -0.7374  0.9755 -0.1428
12167SOL    HW237118   5.128   5.835   1.500  1.4651 -1.6066 -0.4263
12168SOL     OW37119   5.031   1.225   3.732  0.0145  0.0600  0.2604
12168SOL    HW137120   5.061   1.251   3.819  0.1939  0.0944  0.1897
12168SOL    HW237121   5.058   1.134   3.723  1.2103  0.4402 -0.2774
12169SOL     OW37122   1.530   2.547   1.547 -0.2205 -0.0645 -0.1399
12169SOL    HW137123   1.518   2.639   1.523 -1.3890  0.3532  1.7883
12169SOL    HW237124   1.500   2.542   1.638 -0.3441 -2.3987 -0.2461
12170SOL     OW37125   4.416   1.070   6.638  0.0331  0.4341 -0.1016
12170SOL    HW137126   4.442   1.071   6.546  1.9949 -1.3190  0.3576
12170SOL    HW237127   4.334   1.020   6.639 -2.2061  3.7775 -1.2646
12171SOL     OW37128   2.701   2.608   1.443 -0.2578  0.1223  0.3262
12171SOL    HW137129   2.699   2.666   1.520  0.7042 -0.4317  0.7819
12171SOL    HW237130   2.624   2.634   1.392 -1.4298 -0.1034  1.9055
12172SOL     OW37131   2.826   5.245   5.035  0.5222  0.2556  0.2576
12172SOL    HW137132   2.801   5.182   4.967  1.6329  1.6375 -1.5596
12172SOL    HW237133   2.817   5.330   4.992  2.0112  1.1388  1.6079
12173SOL     OW37134   4.667   6.875   3.983 -0.2534  0.0184 -0.0881
12173SOL    HW137135   4.588   6.821   3.984 -0.8313  0.8412  0.7497
12173SOL    HW237136   4.648   6.944   3.919  0.1873 -0.3385 -0.6114
12174SOL     OW37137   0.840   0.762   0.382  0.2765  0.5914 -0.2615
12174SOL    HW137138   0.839   0.676   0.424  1.2190 -0.5000 -2.2786
12174SOL    HW237139   0.933   0.780   0.368  0.0674  1.7741 -0.1993
12175SOL     OW37140   0.998   6.916   5.333  0.3257 -0.2178 -0.6803
12175SOL    HW137141   0.923   6.953   5.378  0.6645  0.2858 -0.5215
12175SOL    HW237142   0.992   6.949   5.243  0.3098 -0.2489 -0.6904
12176SOL     OW37143   5.401   4.117   3.535 -0.4616 -0.1530  0.4731
12176SOL    HW137144   5.377   4.115   3.628  0.4348  1.5740  0.7816
12176SOL    HW237145   5.318   4.136   3.490 -1.1664 -2.2914  0.7457
12177SOL     OW37146   6.451   0.945   6.966  0.2694  0.1089  0.2959
12177SOL    HW137147   6.422   1.035   6.948  0.0174  0.4034  1.9337
12177SOL    HW237148   6.397   0.890   6.910  0.6364  0.9841 -0.9604
12178SOL     OW37149   0.780   6.611   7.065 -0.1037  1.2521 -0.3748
12178SOL    HW137150   0.781   6.518   7.089  0.8908  1.2088 -0.5597
12178SOL    HW237151   0.837   6.653   7.128 -0.6826  1.7775 -0.1898
12179SOL     OW37152   7.193   3.870   4.311 -0.2068  0.1146 -0.6673
12179SOL    HW137153   7.145   3.891   4.231  2.7709  0.0818 -2.6135
12179SOL    HW237154   7.218   3.778   4.300  0.7618  0.2857  0.0191
12180SOL     OW37155   3.496   0.262   5.564  0.2852 -0.1996 -0.1435
12180SOL    HW137156   3.443   0.203   5.511 -0.5097  0.6143 -0.2713
12180SOL    HW237157   3.584   0.256   5.526  0.5895 -2.4307  0.7951
12181SOL     OW37158   1.739   6.099   6.063 -0.1772  0.3118  0.2655
12181SOL    HW137159   1.767   6.071   5.975 -0.0701 -0.1436  0.4409
12181SOL    HW237160   1.673   6.166   6.046 -0.4905 -0.0967 -0.1776
12182SOL     OW37161   4.837   5.978   6.924  0.4993 -0.1557 -0.1203
12182SOL    HW137162   4.835   5.896   6.973  0.4904  0.3422  0.7260
12182SOL    HW237163   4.753   5.981   6.879 -0.1844  0.1530  1.1315
12183SOL     OW37164   0.187   1.623   7.154  0.3151  0.1965  0.0080
12183SOL    HW137165   0.150   1.703   7.192 -2.0061 -0.1528 -1.3387
12183SOL    HW237166   0.156   1.623   7.063  2.6987 -0.7940 -0.8938
12184SOL     OW37167   2.487   6.859   5.253  1.0042  0.0889 -0.0809
12184SOL    HW137168   2.416   6.920   5.274 -1.1840 -1.4356 -2.4327
12184SOL    HW237169   2.560   6.914   5.227 -0.0203  1.7285  0.4119
12185SOL     OW37170   2.683   7.141   2.368  0.2199  0.0200 -0.4769
12185SOL    HW137171   2.772   7.115   2.341  0.3158  0.4695 -0.6067
12185SOL    HW237172   2.675   7.232   2.338 -0.0779  0.1671  0.0402
12186SOL     OW37173   2.940   1.933   0.020  0.2808  0.4566 -0.1396
12186SOL    HW137174   2.950   1.887  -0.063  0.3749 -0.1484  0.2061
12186SOL    HW237175   3.024   1.976   0.034  0.8561 -0.7988  0.4495
12187SOL     OW37176   3.156   0.798   3.677  0.1821  0.0647 -0.1686
12187SOL    HW137177   3.102   0.816   3.755 -0.8443  2.1419 -1.2733
12187SOL    HW237178   3.245   0.793   3.711 -0.1823  1.3731  1.1166
12188SOL     OW37179   4.061   4.422   1.036  0.3543  0.2324 -0.7084
12188SOL    HW137180   4.049   4.378   1.120 -0.4762 -0.2205 -1.0532
12188SOL    HW237181   4.132   4.373   0.993  2.7269  2.1034  0.7925
12189SOL     OW37182   1.551   4.939   4.314  0.5181  0.2602  0.5950
12189SOL    HW137183   1.544   4.893   4.398  0.6473  0.6912  0.8478
12189SOL    HW237184   1.479   5.002   4.315 -1.6174 -2.0248 -1.1103
12190SOL     OW37185   0.255   7.205   4.183 -0.9267 -0.1296  0.2535
12190SOL    HW137186   0.257   7.135   4.248  0.6731 -0.2704  0.0868
12190SOL    HW237187   0.307   7.275   4.222 -1.7908  0.6462  0.0429
12191SOL     OW37188   2.557   6.472   3.050 -0.8097 -0.1342  0.4201
12191SOL    HW137189   2.491   6.403   3.043 -1.0000 -0.0177  1.0398
12191SOL    HW237190   2.526   6.540   2.991  0.0660 -1.1017 -1.2409
12192SOL     OW37191   2.959   3.054   1.725  0.5617 -0.4541 -0.4024
12192SOL    HW137192   2.997   3.040   1.638  0.8630  0.2829 -0.3957
12192SOL    HW237193   2.939   3.147   1.727 -1.7531 -0.8812 -0.6084
12193SOL     OW37194   4.040   5.154   4.017  0.2244  0.4493  0.4108
12193SOL    HW137195   3.979   5.148   4.091  0.1154  0.6517  0.3367
12193SOL    HW237196   4.125   5.131   4.055 -0.3109 -2.8268 -0.0661
12194SOL     OW37197   5.015   5.964   2.104  0.0861 -0.9435  0.1159
12194SOL    HW137198   5.059   6.001   2.180  1.5327 -2.2105 -0.0509
12194SOL    HW237199   5.069   5.889   2.079 -0.3819 -0.6086 -2.1231
12195SOL     OW37200   2.523   7.148   3.025  0.8263 -0.3285  0.5302
12195SOL    HW137201   2.474   7.200   3.088 -0.7764 -1.8427  0.6073
12195SOL    HW237202   2.532   7.206   2.949 -1.4084 -0.0719  0.3882
12196SOL     OW37203   2.105   4.820   4.158  0.3993 -0.5164 -0.6253
12196SOL    HW137204   2.057   4.753   4.108 -0.7961 -1.2420  1.4005
12196SOL    HW237205   2.112   4.783   4.246  2.3951  0.7494 -0.2031
12197SOL     OW37206   4.507   6.639   5.791 -0.2174 -0.1828 -0.0163
12197SOL    HW137207   4.495   6.689   5.710 -2.0328  1.9643  1.4417
12197SOL    HW237208   4.527   6.705   5.858  0.2605 -1.7687  1.4978
12198SOL     OW37209   0.415   5.756   0.624  0.1264  0.3420  0.5965
12198SOL    HW137210   0.327   5.748   0.587 -0.3704  0.0271  1.7790
12198SOL    HW237211   0.474   5.730   0.553 -0.7382  0.3633 -0.1488
12199SOL     OW37212   2.591   4.956   0.683 -1.0289  0.4367 -0.1006
12199SOL    HW137213   2.618   4.938   0.773 -3.5126  0.4060  0.7320
12199SOL    HW237214   2.635   4.889   0.631  2.8880  2.2615  0.5296
12200SOL     OW37215   5.212   5.560   6.671  0.5234 -0.0627  0.3410
12200SOL    HW137216   5.249   5.567   6.583  0.1939  0.2689  0.2271
12200SOL    HW237217   5.255   5.630   6.720  0.0382  0.3382  0.2023
12201SOL     OW37218   1.722   3.087   1.370 -0.3133 -0.0983  0.2975
12201SOL    HW137219   1.638   3.057   1.405 -0.5734  0.9398  0.5848
12201SOL    HW237220   1.709   3.092   1.275 -0.4791 -0.2388  0.3135
12202SOL     OW37221   7.233   1.583   4.830 -0.2508 -0.4445  0.3737
12202SOL    HW137222   7.243   1.522   4.757  0.0613 -0.0278  0.0664
12202SOL    HW237223   7.138   1.591   4.841 -0.3005 -0.2561 -0.1970
12203SOL     OW37224   6.530   0.478   4.737  0.1504  0.1777  0.1041
12203SOL    HW137225   6.455   0.458   4.793  1.0132 -1.0885  0.8380
12203SOL    HW237226   6.508   0.563   4.698 -0.7780  0.7851  1.8343
12204SOL     OW37227   0.517   5.994   1.055  0.7415 -0.4400 -0.8043
12204SOL    HW137228   0.607   6.021   1.073  0.5397  1.0048 -1.7881
12204SOL    HW237229   0.505   6.012   0.962 -1.1323  1.2248 -0.3144
12205SOL     OW37230   4.042   1.674   2.834  0.4844  0.3484 -0.4949
12205SOL    HW137231   4.038   1.599   2.894  0.7748  1.3311  0.7992
12205SOL    HW237232   4.070   1.637   2.751 -0.0498 -1.0808 -0.0679
12206SOL     OW37233   4.461   2.823   5.119  0.2006 -0.9536 -0.3619
12206SOL    HW137234   4.401   2.853   5.187 -0.2200 -1.8884 -0.3058
12206SOL    HW237235   4.541   2.873   5.134  0.4868 -1.8992  1.4754
12207SOL     OW37236   3.344   0.358   2.244  0.0556 -0.6611 -0.4900
12207SOL    HW137237   3.397   0.336   2.168 -0.0325 -0.4047 -0.6231
12207SOL    HW237238   3.254   0.342   2.216  0.0055 -0.3345 -0.5190
12208SOL     OW37239   0.426   4.080   5.695 -0.0513 -0.4894  0.1650
12208SOL    HW137240   0.361   4.127   5.643 -0.4734  0.5657  1.5971
12208SOL    HW237241   0.454   4.143   5.761  0.8883 -1.6133  0.8754
12209SOL     OW37242   4.845   6.967   4.164  0.2808 -0.2497 -0.2230
12209SOL    HW137243   4.791   6.910   4.110 -0.3059  0.6466 -0.6107
12209SOL    HW237244   4.893   7.021   4.101  0.2639  0.2006  0.1470
12210SOL     OW37245   1.215   3.570   2.880 -0.2063 -0.3073 -0.5961
12210SOL    HW137246   1.300   3.557   2.837 -0.0641 -0.1486 -0.3630
12210SOL    HW237247   1.177   3.482   2.886  0.2272 -0.4657 -0.1095
12211SOL     OW37248   2.844   2.204   5.375  0.2536  0.4556 -0.3231
12211SOL    HW137249   2.927   2.173   5.410  0.1324 -2.7282 -2.4210
12211SOL    HW237250   2.866   2.237   5.287 -0.8427 -3.4777 -2.3341
12212SOL     OW37251   3.648   1.858   2.976 -0.0157  0.7556  0.5118
12212SOL    HW137252   3.644   1.826   2.886 -3.1185 -3.6591  1.8880
12212SOL    HW237253   3.740   1.850   3.001  0.4760 -0.4594 -1.5268
12213SOL     OW37254   7.182   0.180   3.328  0.5458  0.2653  0.0500
12213SOL    HW137255   7.091   0.197   3.302  0.8109 -0.5251 -1.4713
12213SOL    HW237256   7.226   0.264   3.317  0.1422  0.5022  0.2069
12214SOL     OW37257   1.672   6.643   5.040 -0.1588 -0.2048  0.5441
12214SOL    HW137258   1.674   6.613   4.949 -0.4212  0.1134  0.4300
12214SOL    HW237259   1.752   6.607   5.079 -0.1944 -0.5883  0.2683
12215SOL     OW37260   7.173   5.415   4.987 -0.1166  0.1182  0.5909
12215SOL    HW137261   7.087   5.456   4.990 -0.4364 -0.5712  2.3424
12215SOL    HW237262   7.197   5.414   4.895 -1.7366  0.8218  0.1397
12216SOL     OW37263   5.271   1.660   5.961  0.0376 -0.1902  0.5247
12216SOL    HW137264   5.329   1.733   5.941 -1.2348  0.4630 -0.9916
12216SOL    HW237265   5.229   1.685   6.043  0.0784  0.4765  0.3484
12217SOL     OW37266   6.496   0.852   3.917 -0.8936 -0.3374 -0.4337
12217SOL    HW137267   6.440   0.880   3.989  0.8544  0.1382  0.7908
12217SOL    HW237268   6.532   0.933   3.882 -0.8537 -0.6418 -1.1143
12218SOL     OW37269   0.801   6.246   4.856 -0.3789 -0.2404 -0.3620
12218SOL    HW137270   0.879   6.266   4.908 -0.0073 -2.1871 -0.0942
12218SOL    HW237271   0.727   6.266   4.913 -0.0519  0.3685 -0.1441
12219SOL     OW37272   3.752   0.543   6.926 -0.2068 -0.2026  1.2177
12219SOL    HW137273   3.713   0.461   6.895 -1.4757  1.1803 -1.1243
12219SOL    HW237274   3.760   0.597   6.847  4.8608  0.3738  1.7858
12220SOL     OW37275   4.903   0.732   2.954  0.0035  0.2204 -0.2972
12220SOL    HW137276   4.923   0.819   2.988  0.4088  0.4607 -1.1330
12220SOL    HW237277   4.913   0.674   3.030 -0.9570  0.9803  0.4337
12221SOL     OW37278   0.189   0.196   2.125  0.0117  0.1995  0.4948
12221SOL    HW137279   0.101   0.193   2.088 -0.1247  1.0052  0.7258
12221SOL    HW237280   0.203   0.289   2.147  1.1362  0.1962 -0.0809
12222SOL     OW37281   2.946   3.087   4.734  0.9211  0.1746  0.3062
12222SOL    HW137282   2.931   3.061   4.825 -0.0454  1.0667  0.4262
12222SOL    HW237283   2.998   3.167   4.740  0.6002  0.4014  0.0901
12223SOL     OW37284   2.040   1.996   0.822 -0.4930  0.2755  0.4820
12223SOL    HW137285   2.048   1.926   0.887 -0.4853 -0.3257 -0.1431
12223SOL    HW237286   1.946   2.000   0.803 -0.2612 -1.3961 -1.3770
12224SOL     OW37287   2.244   1.677   4.468  0.0473  0.1628 -0.3943
12224SOL    HW137288   2.184   1.603   4.473  0.3314 -0.0082  0.9252
12224SOL    HW237289   2.226   1.718   4.383  0.3585 -1.8032 -1.4527
12225SOL     OW37290   4.828   2.653   3.190  0.0281 -0.0435 -0.1904
12225SOL    HW137291   4.838   2.574   3.137 -3.7810  0.1277 -1.4662
12225SOL    HW237292   4.826   2.725   3.126  0.2816  0.7406  0.6607
12226SOL     OW37293   0.779   0.625   1.408  0.1444 -0.2583  0.3952
12226SOL    HW137294   0.731   0.706   1.396  2.6540  1.2434 -0.3608
12226SOL    HW237295   0.855   0.650   1.462  0.4158 -2.3564  1.0952
12227SOL     OW37296   0.727   4.022   2.792  0.5367 -0.0133  0.0448
12227SOL    HW137297   0.674   4.065   2.859 -1.5170 -0.3109 -1.3259
12227SOL    HW237298   0.737   4.087   2.723 -1.0776 -1.0580 -1.2483
12228SOL     OW37299   4.418   5.452   4.304  0.6660  0.3316  0.4722
12228SOL    HW137300   4.487   5.518   4.311  1.3920 -0.1264 -1.4958
12228SOL    HW237301   4.459   5.380   4.256 -0.8177 -0.5061  0.4044
12229SOL     OW37302   5.830   0.058   4.007 -0.4582  0.1827  0.1265
12229SOL    HW137303   5.889   0.107   4.064 -0.5186 -0.1517  0.4760
12229SOL    HW237304   5.813  -0.024   4.054 -0.9066  0.1200 -0.1394
12230SOL     OW37305   2.201   4.588   1.882  0.7835  0.0469  0.1290
12230SOL    HW137306   2.118   4.557   1.918  0.5205 -1.1251 -1.3724
12230SOL    HW237307   2.198   4.683   1.893 -1.4132  0.1989 -1.1321
12231SOL     OW37308   6.211   5.616   1.970  0.2299  0.6713 -0.5785
12231SOL    HW137309   6.238   5.652   1.885 -0.9555 -0.2089 -1.3524
12231SOL    HW237310   6.274   5.547   1.988  2.4121  2.8651  0.8270
12232SOL     OW37311   1.569   1.846   5.828  0.6182  0.5754 -0.1953
12232SOL    HW137312   1.528   1.793   5.759 -0.3920 -0.0894  0.8762
12232SOL    HW237313   1.662   1.844   5.806  0.5434 -1.1265 -0.5651
12233SOL     OW37314   1.815   3.740   6.216 -0.0158 -0.1260 -0.3182
12233SOL    HW137315   1.830   3.655   6.174  0.4836  0.6153 -1.6918
12233SOL    HW237316   1.734   3.728   6.266  0.9835 -1.9234  0.9698
12234SOL     OW37317   4.620   3.025   6.449 -0.4832 -0.3434  0.0084
12234SOL    HW137318   4.677   3.099   6.426  1.2769 -1.3242  1.0195
12234SOL    HW237319   4.660   2.988   6.527 -0.8233 -2.8680 -0.9235
12235SOL     OW37320   5.606   1.612   2.215 -0.7150  0.0196  0.3878
12235SOL    HW137321   5.571   1.643   2.131  0.6464 -0.6700 -0.4742
12235SOL    HW237322   5.618   1.691   2.267 -1.1995  0.4976 -0.2109
12236SOL     OW37323   1.595   1.904   4.952  0.5333  0.0349  0.1851
12236SOL    HW137324   1.527   1.966   4.976  0.3801 -0.5527  1.3188
12236SOL    HW237325   1.676   1.944   4.983  0.3398 -0.7062  1.7219
12237SOL     OW37326   1.769   7.118   2.866 -0.3617 -0.8741 -0.4045
12237SOL    HW137327   1.863   7.109   2.881 -0.2961 -0.2082 -0.3919
12237SOL    HW237328   1.730   7.043   2.911  0.0552 -0.4170  0.7588
12238SOL     OW37329   2.328   1.982   3.943 -0.1780 -0.0294  0.3015
12238SOL    HW137330   2.345   2.022   4.028  1.4303  0.4048 -0.1829
12238SOL    HW237331   2.383   1.903   3.942 -2.8654 -2.0494  1.0180
12239SOL     OW37332   4.400   2.435   2.797 -0.4049 -0.0168 -0.3739
12239SOL    HW137333   4.429   2.351   2.832 -1.2466 -0.2524 -0.2208
12239SOL    HW237334   4.395   2.493   2.873  1.1401  0.4811 -0.6101
12240SOL     OW37335   4.321   5.427   1.085 -0.3218 -0.0798  0.5989
12240SOL    HW137336   4.253   5.401   1.022  0.2812  0.9676 -0.5404
12240SOL    HW237337   4.399   5.380   1.055  0.3458  1.5597 -0.4260
12241SOL     OW37338   6.562   0.125   0.606 -0.4119 -0.2532  0.4647
12241SOL    HW137339   6.533   0.137   0.515  3.7289  2.7036 -0.7522
12241SOL    HW237340   6.593   0.035   0.610 -1.2106 -0.6184 -0.8503
12242SOL     OW37341   3.283   7.054   4.070 -0.2538  0.0596 -0.0793
12242SOL    HW137342   3.304   7.145   4.087  1.7237 -0.5459  1.0979
12242SOL    HW237343   3.281   7.046   3.975 -1.2692  1.4670 -0.1998
12243SOL     OW37344   4.308   1.900   6.233  0.4618  0.1484  0.2226
12243SOL    HW137345   4.256   1.934   6.306  0.6638 -1.2142  1.0291
12243SOL    HW237346   4.333   1.812   6.260  0.3539 -0.4824 -1.5895
12244SOL     OW37347   3.451   0.717   7.243 -0.0114  0.2430 -0.4560
12244SOL    HW137348   3.426   0.808   7.228  0.7700  0.5312 -0.0389
12244SOL    HW237349   3.368   0.671   7.257 -0.3551  1.0885  0.3825
12245SOL     OW37350   0.542   0.226   2.042 -0.0555 -0.4754 -0.0646
12245SOL    HW137351   0.610   0.203   1.978 -0.4662  1.5386 -1.3012
12245SOL    HW237352   0.469   0.259   1.989 -0.5986  0.8313  1.4184
12246SOL     OW37353   4.021   4.403   3.363 -0.1226 -0.1811  0.0097
12246SOL    HW137354   4.008   4.461   3.288  1.3226 -1.2679 -1.1439
12246SOL    HW237355   3.942   4.349   3.365 -1.2113  1.3657  0.7365
12247SOL     OW37356   4.901   6.373   5.523  0.3276  0.3166 -0.1387
12247SOL    HW137357   4.892   6.453   5.575  1.5298  1.3547 -1.4850
12247SOL    HW237358   4.903   6.402   5.432 -0.2618 -1.3488 -0.7303
12248SOL     OW37359   0.268   4.642   7.194  0.5348  0.1091  0.2487
12248SOL    HW137360   0.239   4.722   7.151 -0.2100 -0.5844 -0.5789
12248SOL    HW237361   0.358   4.630   7.165 -0.2882 -0.9543 -2.1370
12249SOL     OW37362   5.486   6.537   0.379 -0.0074  0.0467 -0.6969
12249SOL    HW137363   5.430   6.606   0.342  1.0151  0.4444 -1.5857
12249SOL    HW237364   5.539   6.507   0.305  0.8313 -0.4253  0.0676
12250SOL     OW37365   2.842   1.508   6.210  0.1369 -0.2526  0.0969
12250SOL    HW137366   2.825   1.415   6.222  0.2265 -0.1517  1.0704
12250SOL    HW237367   2.756   1.549   6.219  0.3665 -0.0639  1.6599
12251SOL     OW37368   2.795   3.229   6.284  0.0589 -0.8046  0.3140
12251SOL    HW137369   2.774   3.322   6.273  0.6777 -0.6721  0.2055
12251SOL    HW237370   2.803   3.195   6.195 -0.8531 -1.1318  0.3459
12252SOL     OW37371   6.417   1.174   5.869 -0.4042 -0.5301  0.3180
12252SOL    HW137372   6.387   1.091   5.905  0.6711 -1.3446 -0.6080
12252SOL    HW237373   6.500   1.192   5.914 -0.3183 -0.2822  0.0691
12253SOL     OW37374   0.681   2.188   2.333 -0.9428 -0.3529  0.1445
12253SOL    HW137375   0.615   2.130   2.295 -0.7274  0.0382 -0.8642
12253SOL    HW237376   0.690   2.259   2.269 -0.1162  0.0063  0.6438
12254SOL     OW37377   1.226   6.014   2.978 -0.2148 -0.1064 -0.3274
12254SOL    HW137378   1.254   6.008   3.069 -2.0167  0.6493  0.3309
12254SOL    HW237379   1.156   5.950   2.970  0.1279 -0.3785 -1.2705
12255SOL     OW37380   6.148   5.294   4.042 -0.0837  0.6877 -0.5418
12255SOL    HW137381   6.140   5.356   3.969 -1.1821  1.5936  0.2992
12255SOL    HW237382   6.103   5.338   4.115  0.7371 -0.3126  0.5996
12256SOL     OW37383   4.963   5.095   2.349 -0.2068  0.1048  0.3956
12256SOL    HW137384   5.028   5.057   2.289 -1.4234 -0.3483 -0.6804
12256SOL    HW237385   5.008   5.099   2.433  0.8977 -1.1207 -0.0987
12257SOL     OW37386   3.606   6.605   5.747  0.4599  0.0410 -0.0942
12257SOL    HW137387   3.563   6.586   5.830  0.6408 -0.6902 -0.1667
12257SOL    HW237388   3.649   6.524   5.722  0.4690  0.2709 -0.8712
12258SOL     OW37389   3.245   1.614   2.867 -0.0223 -0.0482  0.1123
12258SOL    HW137390   3.209   1.528   2.890 -1.3516  0.4947  0.1686
12258SOL    HW237391   3.227   1.625   2.774  0.1780  0.1523  0.0943
12259SOL     OW37392   6.784   2.123   3.327 -0.1554  0.0452  0.2564
12259SOL    HW137393   6.838   2.123   3.248  0.8250  1.4085  0.8913
12259SOL    HW237394   6.705   2.172   3.303  0.4378  1.0381  0.3029
12260SOL     OW37395   3.114   6.460   2.975 -0.4303 -0.7443 -0.1808
12260SOL    HW137396   3.195   6.465   3.026 -0.2323 -2.0600 -0.3287
12260SOL    HW237397   3.049   6.503   3.030 -0.0203 -1.2896  0.7624
12261SOL     OW37398   1.261   2.074   3.066 -0.4134 -0.2293 -0.1140
12261SOL    HW137399   1.258   2.145   3.130 -0.9500 -0.4713  0.1358
12261SOL    HW237400   1.327   2.102   3.003  1.0339 -0.5638  1.1981
12262SOL     OW37401   0.439   3.574   1.126  0.5085 -0.1563 -0.2384
12262SOL    HW137402   0.475   3.487   1.106 -0.4585 -0.6288  0.0083
12262SOL    HW237403   0.491   3.604   1.201 -0.7811 -1.6568  1.3536
12263SOL     OW37404   3.104   0.826   0.626  0.1553  0.5841  0.5386
12263SOL    HW137405   3.113   0.731   0.630 -1.0781  0.4523  0.6125
12263SOL    HW237406   3.068   0.851   0.711 -0.4048  0.9870  0.1975
12264SOL     OW37407   1.698   4.399   6.986 -0.1246 -0.5549  0.0204
12264SOL    HW137408   1.659   4.486   7.000  0.1188 -0.6095  1.2295
12264SOL    HW237409   1.626   4.345   6.955  0.2344  0.6236 -3.2660
12265SOL     OW37410   3.069   2.068   0.368  0.2356  0.0464 -0.1065
12265SOL    HW137411   3.135   2.102   0.308  2.0873 -1.6645  0.8176
12265SOL    HW237412   3.113   2.065   0.453 -1.8171  0.9861  1.0835
12266SOL     OW37413   0.590   5.727   4.881 -0.8424 -0.8048  0.1963
12266SOL    HW137414   0.605   5.662   4.948  1.9458 -0.4245  0.0516
12266SOL    HW237415   0.627   5.808   4.916  3.0895 -1.1194 -2.5979
12267SOL     OW37416   0.212   4.453   6.445 -0.1052  0.2630 -0.6493
12267SOL    HW137417   0.188   4.467   6.353  0.8844  1.0758 -0.8023
12267SOL    HW237418   0.288   4.509   6.459  0.1654 -0.3541  0.4940
12268SOL     OW37419   7.248   0.151   6.061 -0.2047  0.4370 -0.5233
12268SOL    HW137420   7.235   0.066   6.103 -0.9129  1.5043  1.5046
12268SOL    HW237421   7.163   0.194   6.065  0.6636  2.1610  0.6660
12269SOL     OW37422   1.533   1.580   0.776  0.3217 -0.3427 -0.3615
12269SOL    HW137423   1.461   1.616   0.724  0.6550  1.4563  0.3636
12269SOL    HW237424   1.494   1.505   0.822 -0.6670 -0.3384 -1.1530
12270SOL     OW37425   3.787   3.170   6.763  0.3402  0.0264 -0.7494
12270SOL    HW137426   3.775   3.186   6.857  0.2725 -2.0666 -0.3563
12270SOL    HW237427   3.699   3.171   6.727  0.2971 -0.0080 -0.6463
12271SOL     OW37428   7.126   2.624   6.494 -0.0150  0.2916  0.6060
12271SOL    HW137429   7.041   2.648   6.458 -0.3011 -0.8736  0.4956
12271SOL    HW237430   7.186   2.633   6.420  0.0693  1.5769  0.7969
12272SOL     OW37431   6.836   5.152   5.078  0.5183  0.6374  0.0782
12272SOL    HW137432   6.790   5.098   5.014 -0.1766 -0.8994  1.7742
12272SOL    HW237433   6.782   5.230   5.088 -1.0106 -0.4838  0.9545
12273SOL     OW37434   7.166   6.769   0.571  0.5997  0.3694  0.1243
12273SOL    HW137435   7.079   6.797   0.602  0.5975 -1.8127  2.4422
12273SOL    HW237436   7.213   6.851   0.554 -1.2433  1.6379  0.8243
12274SOL     OW37437   3.098   4.478   1.505 -0.5482  0.7773 -0.5464
12274SOL    HW137438   3.074   4.459   1.596 -0.6986  1.4873 -0.4359
12274SOL    HW237439   3.135   4.396   1.473  1.6953  1.1363  0.8766
12275SOL     OW37440   6.906   4.010   5.547 -0.0254 -0.5605  0.4558
12275SOL    HW137441   6.825   3.969   5.578 -0.6921 -0.2428 -0.8086
12275SOL    HW237442   6.975   3.966   5.597 -0.9285 -1.2260  1.1596
12276SOL     OW37443   1.214   5.446   1.638 -0.0377 -0.7561 -0.4301
12276SOL    HW137444   1.210   5.451   1.543 -0.2471 -0.5341 -0.4139
12276SOL    HW237445   1.269   5.520   1.664  0.5485 -1.1966 -0.4115
12277SOL     OW37446   4.605   5.003   2.683  0.1008  0.2214  0.5485
12277SOL    HW137447   4.648   4.971   2.604  0.9613 -0.3736  1.2441
12277SOL    HW237448   4.520   4.959   2.684 -0.2038  0.7565 -0.3895
12278SOL     OW37449   4.967   4.624   6.220 -0.5770  0.3507 -0.3476
12278SOL    HW137450   4.914   4.640   6.298 -4.8929 -1.5339 -2.5670
12278SOL    HW237451   4.948   4.697   6.162 -3.2663 -1.6689 -2.2359
12279SOL     OW37452   5.047   3.384   7.103  0.2060  0.0521 -0.4099
12279SOL    HW137453   5.107   3.329   7.154  0.7432  0.0313 -1.0364
12279SOL    HW237454   5.050   3.469   7.146  0.7913  0.0828 -0.4915
12280SOL     OW37455   5.601   4.367   4.170  0.0090 -0.1754 -0.0360
12280SOL    HW137456   5.540   4.320   4.228  0.9711 -0.9133  0.4051
12280SOL    HW237457   5.628   4.302   4.105  1.0882 -0.1655  0.3766
12281SOL     OW37458   1.490   1.887   1.423 -0.2703  0.3687 -0.0487
12281SOL    HW137459   1.402   1.862   1.396 -0.3489 -0.6224  1.0829
12281SOL    HW237460   1.539   1.894   1.341 -0.9773 -0.7241 -0.5797
12282SOL     OW37461   2.618   4.724   1.099 -0.2291 -0.7978  0.4405
12282SOL    HW137462   2.684   4.789   1.076 -2.2028  0.7843 -1.1545
12282SOL    HW237463   2.630   4.654   1.035 -0.8646  0.0796 -0.6697
12283SOL     OW37464   4.403   2.708   0.279 -0.1216  0.0179 -0.3582
12283SOL    HW137465   4.356   2.658   0.213 -0.1085 -2.3263  1.3119
12283SOL    HW237466   4.495   2.697   0.257 -0.1226 -0.6743 -0.0429
12284SOL     OW37467   0.534   5.502   1.453 -0.4234  0.3226 -0.3559
12284SOL    HW137468   0.624   5.513   1.422  0.5116 -0.5390  1.8146
12284SOL    HW237469   0.539   5.523   1.547 -2.2822 -0.6543  0.0017
12285SOL     OW37470   3.441   1.168   2.517  0.5043 -0.3613 -0.3690
12285SOL    HW137471   3.496   1.236   2.478  0.3500 -1.3717 -2.4912
12285SOL    HW237472   3.487   1.142   2.597  1.9066  0.4015 -0.9070
12286SOL     OW37473   3.787   3.168   4.517  0.4007 -0.3505  0.2374
12286SOL    HW137474   3.706   3.219   4.510  0.0950 -0.8472  0.1040
12286SOL    HW237475   3.759   3.085   4.555  0.7921 -0.6645 -0.1579
12287SOL     OW37476   3.396   4.487   6.626  0.7049 -0.0634  0.1228
12287SOL    HW137477   3.482   4.528   6.630  0.9142 -0.5155  0.3053
12287SOL    HW237478   3.369   4.478   6.717  1.3597 -1.7790  0.1795
12288SOL     OW37479   7.143   0.821   6.217 -0.3284 -0.4826 -0.3740
12288SOL    HW137480   7.114   0.827   6.308 -0.2812  1.3305 -0.4499
12288SOL    HW237481   7.110   0.736   6.187 -1.9490 -0.3113  0.7903
12289SOL     OW37482   2.838   6.441   4.708  1.0138  0.0407  0.1235
12289SOL    HW137483   2.862   6.472   4.621  0.4408 -0.3885 -0.2014
12289SOL    HW237484   2.770   6.502   4.738  0.4704 -0.4024 -0.1746
12290SOL     OW37485   3.510   6.062   2.333 -0.1442 -0.1379 -0.6497
12290SOL    HW137486   3.451   6.033   2.403  0.4385 -3.6958 -1.4170
12290SOL    HW237487   3.501   6.157   2.331 -4.2010 -0.3049  0.7171
12291SOL     OW37488   2.331   3.661   0.429  0.5343  0.1172  0.5810
12291SOL    HW137489   2.398   3.714   0.472 -0.2807  2.0289 -0.3359
12291SOL    HW237490   2.380   3.604   0.370  1.4596 -0.1592  1.5927
12292SOL     OW37491   4.715   2.749   4.695  0.1282  0.2821  0.4502
12292SOL    HW137492   4.634   2.722   4.738  0.1429  0.3982  0.5509
12292SOL    HW237493   4.716   2.844   4.703  0.4627  0.2477  0.7844
12293SOL     OW37494   2.321   1.475   3.033 -0.2831  0.4110 -0.1982
12293SOL    HW137495   2.393   1.429   3.076 -1.6278 -0.4198  1.2964
12293SOL    HW237496   2.315   1.559   3.079 -2.3356 -0.8544  2.1056
12294SOL     OW37497   4.350   4.712   7.156  0.9131  0.3815 -0.3034
12294SOL    HW137498   4.370   4.676   7.069  0.9454  0.8198 -0.4823
12294SOL    HW237499   4.266   4.673   7.179  0.7652  0.4865 -0.6606
12295SOL     OW37500   4.683   4.067   3.268  0.0299 -0.1543 -0.3027
12295SOL    HW137501   4.655   4.083   3.358 -3.2663  1.7947 -1.4976
12295SOL    HW237502   4.734   4.145   3.244 -0.1060 -0.1170 -0.4753
12296SOL     OW37503   3.804   1.480   6.283  0.1794  0.1245 -0.1658
12296SOL    HW137504   3.740   1.542   6.246 -1.2655 -0.2057  1.6513
12296SOL    HW237505   3.879   1.535   6.307  0.1093  0.7079 -1.2059
12297SOL     OW37506   2.427   5.273   3.255  0.8124 -0.0031 -0.0002
12297SOL    HW137507   2.423   5.205   3.322 -0.2208 -1.0280 -1.0511
12297SOL    HW237508   2.453   5.227   3.175 -0.0706  0.7813 -0.7653
12298SOL     OW37509   6.510   0.653   0.710 -0.0336  0.0312  0.2683
12298SOL    HW137510   6.581   0.588   0.706 -0.3478 -0.2797 -0.3238
12298SOL    HW237511   6.451   0.619   0.777 -0.9235 -1.0646 -0.9979
12299SOL     OW37512   1.544   1.839   0.889 -0.0627  0.2840 -0.0787
12299SOL    HW137513   1.561   1.753   0.852 -0.4995 -0.6834  1.8071
12299SOL    HW237514   1.523   1.894   0.814 -0.5419 -1.4340 -1.2703
12300SOL     OW37515   4.569   2.132   4.451  0.5028 -0.4577 -0.1368
12300SOL    HW137516   4.642   2.077   4.426  0.5882  0.1498 -1.2764
12300SOL    HW237517   4.593   2.220   4.422  0.3338  0.1960  1.5566
12301SOL     OW37518   5.968   4.891   1.216  0.0384 -0.1914  0.2210
12301SOL    HW137519   5.956   4.851   1.130 -1.5460 -0.4103  0.5205
12301SOL    HW237520   5.916   4.837   1.276 -2.0303  2.1126  0.6775
12302SOL     OW37521   0.323   2.518   3.297 -0.3088 -0.2221  0.3775
12302SOL    HW137522   0.259   2.510   3.368  1.2039 -0.2110  1.8300
12302SOL    HW237523   0.407   2.528   3.343  0.6667  0.3115 -1.4394
12303SOL     OW37524   3.059   6.160   5.878  0.6766  0.1966 -0.6352
12303SOL    HW137525   3.068   6.089   5.815 -0.8287 -0.5195 -0.0759
12303SOL    HW237526   2.981   6.208   5.850 -0.1592 -0.2662  0.7600
12304SOL     OW37527   4.308   1.430   0.835 -0.1355 -0.2996  0.2229
12304SOL    HW137528   4.365   1.421   0.912 -0.5308 -2.4246  0.3445
12304SOL    HW237529   4.248   1.355   0.842 -1.5128  0.6385 -1.0743
12305SOL     OW37530   1.153   4.050   3.156 -0.4758 -0.4712 -0.0191
12305SOL    HW137531   1.205   3.970   3.149 -1.1388 -0.7856 -1.8025
12305SOL    HW237532   1.065   4.020   3.178 -0.9041 -0.3320 -1.4496
12306SOL     OW37533   0.962   3.989   6.683 -0.2086 -0.4632 -0.3495
12306SOL    HW137534   0.898   3.969   6.752 -0.7005 -1.2978 -1.0308
12306SOL    HW237535   0.910   4.028   6.613  0.0256 -1.1077 -0.8930
12307SOL     OW37536   0.268   3.103   6.356  0.7074  0.3420 -0.2906
12307SOL    HW137537   0.208   3.148   6.296 -0.8114  0.5006  1.2470
12307SOL    HW237538   0.290   3.169   6.422 -1.8588 -1.0545  2.2232
12308SOL     OW37539   6.365   6.793   1.420  0.0147  0.5151 -0.2963
12308SOL    HW137540   6.399   6.815   1.507 -0.1964  0.7680 -0.2759
12308SOL    HW237541   6.363   6.877   1.373  3.0912 -0.0099 -1.6332
12309SOL     OW37542   4.841   4.182   4.760 -0.0608 -0.1282 -0.0970
12309SOL    HW137543   4.870   4.092   4.741  0.5456  0.2590 -1.1145
12309SOL    HW237544   4.902   4.213   4.827 -0.4910 -0.5839  0.5176
12310SOL     OW37545   6.390   4.608   4.713  0.4185 -0.0736 -0.4754
12310SOL    HW137546   6.327   4.590   4.643  0.2582  0.7048 -0.5383
12310SOL    HW237547   6.395   4.526   4.762  1.4960 -1.0372 -2.1360
12311SOL     OW37548   2.264   5.230   5.418  0.0093  1.3674  0.5970
12311SOL    HW137549   2.256   5.157   5.480  0.6279 -1.2623 -2.2262
12311SOL    HW237550   2.174   5.264   5.410 -0.6699 -0.3528  0.5585
12312SOL     OW37551   6.447   3.174   6.467  0.5767  0.1196 -0.2537
12312SOL    HW137552   6.508   3.247   6.458 -0.0837  0.8272  0.8080
12312SOL    HW237553   6.500   3.096   6.448  1.7889  0.7264  0.5235
12313SOL     OW37554   1.697   6.595   3.903  0.5500 -0.2097 -0.1160
12313SOL    HW137555   1.693   6.499   3.908  0.1298 -0.1640  0.7387
12313SOL    HW237556   1.777   6.613   3.855  0.8509 -0.9924  0.0702
12314SOL     OW37557   3.581   0.054   7.090 -0.5908  0.0130 -0.5955
12314SOL    HW137558   3.608   0.112   7.162 -0.2750 -0.6552 -0.1656
12314SOL    HW237559   3.542  -0.022   7.134  2.3171 -1.8440 -0.9418
12315SOL     OW37560   0.764   3.267   2.728  0.4058  0.0210  0.3121
12315SOL    HW137561   0.856   3.278   2.705 -0.0209  0.2391 -1.3857
12315SOL    HW237562   0.765   3.206   2.802  1.8940 -0.0751  0.2334
12316SOL     OW37563   6.675   4.166   3.107 -0.0107 -0.2541 -0.6449
12316SOL    HW137564   6.614   4.109   3.060  0.1112 -0.6405 -0.3324
12316SOL    HW237565   6.751   4.112   3.125  0.4432  0.2365 -1.0535
12317SOL     OW37566   4.023   2.661   2.958 -0.3711 -0.1100 -0.4566
12317SOL    HW137567   4.017   2.571   2.926 -1.0407  0.3079 -1.5717
12317SOL    HW237568   4.107   2.692   2.923  0.6410 -0.7812  1.2790
12318SOL     OW37569   5.288   2.946   6.651  0.2160 -0.2344  0.3043
12318SOL    HW137570   5.309   3.016   6.713  0.2809 -0.3186  0.3778
12318SOL    HW237571   5.327   2.867   6.689  2.6573  0.1533 -1.1400
12319SOL     OW37572   2.449   0.229   0.753  0.0278 -0.2265 -0.0922
12319SOL    HW137573   2.414   0.317   0.741  0.9358  0.2092  0.3984
12319SOL    HW237574   2.523   0.225   0.693  1.1540  0.0167  1.2463
12320SOL     OW37575   6.566   1.283   2.457 -0.3876  0.0142  0.2261
12320SOL    HW137576   6.539   1.323   2.540  0.5727 -0.2929  0.6962
12320SOL    HW237577   6.525   1.197   2.457 -0.1592 -0.0953  0.5143
12321SOL     OW37578   5.297   3.069   1.749  0.2081  0.1042  0.0729
12321SOL    HW137579   5.388   3.088   1.770  0.1215 -0.1465  0.6836
12321SOL    HW237580   5.251   3.152   1.760  0.2153  0.0389  0.5854
12322SOL     OW37581   5.241   0.705   2.895  0.2738  0.2571  0.0211
12322SOL    HW137582   5.247   0.797   2.917  1.8206  0.3580 -0.6995
12322SOL    HW237583   5.209   0.663   2.975 -1.5624  1.5273 -0.0023
12323SOL     OW37584   3.057   2.381   4.962  0.0881 -0.4549  0.0027
12323SOL    HW137585   3.105   2.352   4.885  2.2367  1.8679  0.3424
12323SOL    HW237586   3.036   2.301   5.009  0.8237 -1.7562 -1.7960
12324SOL     OW37587   0.035   2.919   7.141 -0.5510  0.5656  0.5522
12324SOL    HW137588   0.061   2.851   7.203 -2.6575  1.1808  2.2296
12324SOL    HW237589   0.036   2.875   7.055  1.4990 -0.5652  1.0763
12325SOL     OW37590   5.325   1.609   1.006 -0.5360 -0.2792 -0.5386
12325SOL    HW137591   5.345   1.665   0.931 -1.0981 -1.0349 -1.2623
12325SOL    HW237592   5.229   1.610   1.012 -0.5211 -0.6969 -0.1952
12326SOL     OW37593   4.154   5.480   4.233  0.1694 -0.0034  0.0981
12326SOL    HW137594   4.249   5.488   4.246  0.4185 -2.1791  0.0135
12326SOL    HW237595   4.116   5.526   4.308  1.3442 -0.2870  0.9119
12327SOL     OW37596   3.200   1.635   4.598 -0.1974  0.2515  1.0349
12327SOL    HW137597   3.220   1.661   4.509  0.4980 -1.1677  0.7455
12327SOL    HW237598   3.271   1.671   4.651 -0.9399  1.6270  1.1337
12328SOL     OW37599   1.759   1.521   0.921  0.7312 -0.0640  0.3608
12328SOL    HW137600   1.687   1.553   0.868 -0.1977 -0.8340  1.1230
12328SOL    HW237601   1.772   1.431   0.890  0.9329 -0.1400  0.6651
12329SOL     OW37602   3.687   2.733   5.368  0.0626  0.3392  0.3608
12329SOL    HW137603   3.700   2.697   5.456  0.5476 -0.1122  0.1070
12329SOL    HW237604   3.677   2.657   5.312 -0.3576  0.6297  0.0331
12330SOL     OW37605   3.402   3.767   2.329 -0.6281  0.1465  0.1713
12330SOL    HW137606   3.332   3.703   2.318 -0.4280  0.1198 -1.0057
12330SOL    HW237607   3.428   3.757   2.421 -2.4558  0.4755  0.7795
12331SOL     OW37608   3.275   3.673   6.262  0.6263 -0.6567  0.0768
12331SOL    HW137609   3.226   3.751   6.237  0.1382 -0.3022  1.9834
12331SOL    HW237610   3.210   3.603   6.261  0.8211 -0.8419 -0.5209
12332SOL     OW37611   6.979   4.042   6.451  0.2857  0.2318 -0.2069
12332SOL    HW137612   6.933   4.040   6.536 -2.3827  0.5942 -1.5330
12332SOL    HW237613   7.034   3.964   6.452 -1.6353 -1.2001  0.8738
12333SOL     OW37614   0.912   2.220   3.402  0.2402 -0.0679 -0.9520
12333SOL    HW137615   0.977   2.172   3.454 -0.6213  0.1739  0.3680
12333SOL    HW237616   0.910   2.173   3.318  0.8573 -1.1340 -0.3931
12334SOL     OW37617   2.212   2.538   5.744 -0.4661  0.5933 -0.4250
12334SOL    HW137618   2.209   2.443   5.751 -2.3230  0.5518 -1.4138
12334SOL    HW237619   2.301   2.561   5.773 -0.3739 -1.3090  1.0047
12335SOL     OW37620   3.131   6.564   6.892 -0.0324  0.4412 -0.3280
12335SOL    HW137621   3.051   6.591   6.847  0.0297 -1.3219 -1.6060
12335SOL    HW237622   3.191   6.637   6.882 -0.2876  0.3952 -2.5093
12336SOL     OW37623   4.476   6.209   2.261  0.5871  0.4925 -0.1920
12336SOL    HW137624   4.425   6.128   2.253 -0.0178  0.8940 -0.4941
12336SOL    HW237625   4.561   6.188   2.222 -0.1547  0.5053 -1.8823
12337SOL     OW37626   3.969   0.941   4.435 -0.8106 -0.6568  0.1129
12337SOL    HW137627   3.972   0.923   4.341 -1.0842 -1.4630  0.2500
12337SOL    HW237628   4.033   1.010   4.448  2.6581 -3.5426 -0.0048
12338SOL     OW37629   2.609   2.220   4.339  0.0868 -0.0217 -0.2923
12338SOL    HW137630   2.645   2.155   4.279 -0.7016  0.2228 -1.0382
12338SOL    HW237631   2.610   2.177   4.424  1.9127 -0.1121 -0.3097
12339SOL     OW37632   1.592   6.577   4.165 -0.8249 -0.6044 -0.4725
12339SOL    HW137633   1.636   6.584   4.080 -1.9611 -0.8189 -1.1114
12339SOL    HW237634   1.584   6.667   4.196 -1.4413 -0.4074 -1.1696
12340SOL     OW37635   5.353   0.858   7.096  0.2220  0.0610  0.2158
12340SOL    HW137636   5.399   0.774   7.099  0.0045 -0.1008 -0.7049
12340SOL    HW237637   5.325   0.873   7.186  1.4458 -0.1832  0.6541
12341SOL     OW37638   0.632   1.603   5.331  0.0563 -0.0169 -0.3677
12341SOL    HW137639   0.651   1.514   5.361  0.2444  1.0844  3.3436
12341SOL    HW237640   0.537   1.606   5.326  0.0903 -0.8342 -2.2034
12342SOL     OW37641   3.825   4.295   5.479 -0.0203 -0.0138  0.5322
12342SOL    HW137642   3.828   4.200   5.466 -2.0177 -0.2834  1.5552
12342SOL    HW237643   3.797   4.330   5.394 -0.1694 -0.4326  0.4091
12343SOL     OW37644   0.329   1.169   2.227 -0.5077 -0.3061  0.4015
12343SOL    HW137645   0.250   1.116   2.227 -0.6013 -0.1887  1.6417
12343SOL    HW237646   0.307   1.245   2.171 -1.2431 -0.3074  0.6786
12344SOL     OW37647   2.487   1.967   5.146 -0.0677 -0.3095 -0.0970
12344SOL    HW137648   2.539   1.944   5.069  0.5987  2.2879 -0.5423
12344SOL    HW237649   2.544   1.948   5.220 -0.5554 -2.4262 -0.1920
12345SOL     OW37650   3.781   6.025   1.577  0.1936  0.5410  0.7465
12345SOL    HW137651   3.844   6.016   1.506 -0.3018  1.7328  0.1329
12345SOL    HW237652   3.796   6.113   1.611 -1.5522  1.0925  0.1698
12346SOL     OW37653   6.896   7.190   1.433 -0.0600  0.2824  0.1828
12346SOL    HW137654   6.977   7.205   1.481 -0.1813  1.9279 -0.0749
12346SOL    HW237655   6.827   7.213   1.495 -0.2413  1.3757 -0.3889
12347SOL     OW37656   2.321   3.380   1.144  0.2214 -0.5726 -0.8945
12347SOL    HW137657   2.354   3.396   1.232 -0.9915 -0.4997 -0.4340
12347SOL    HW237658   2.227   3.398   1.150  0.0078 -1.2145 -2.0433
12348SOL     OW37659   5.431   0.107   0.811  0.2224  0.7930 -0.1288
12348SOL    HW137660   5.527   0.112   0.807  0.2472  0.9566  0.5942
12348SOL    HW237661   5.404   0.187   0.856 -0.1403 -0.0064  1.1274
12349SOL     OW37662   0.416   3.127   6.020  0.0928  0.4777 -0.4280
12349SOL    HW137663   0.406   3.060   6.087  1.0546  1.3340  0.5994
12349SOL    HW237664   0.341   3.186   6.033 -1.8065 -1.2826 -2.4925
12350SOL     OW37665   1.489   3.191   6.666 -0.1461 -0.4941  0.0658
12350SOL    HW137666   1.562   3.225   6.615 -0.0098 -0.3397  0.3639
12350SOL    HW237667   1.490   3.241   6.747 -0.4651 -0.6239  0.1523
12351SOL     OW37668   3.226   4.267   0.571 -0.0952 -0.3039 -0.1391
12351SOL    HW137669   3.168   4.341   0.584  1.1193  1.0865 -2.0945
12351SOL    HW237670   3.261   4.248   0.658 -1.4702  0.5035  0.6213
12352SOL     OW37671   1.766   2.039   3.679 -0.0382 -0.5228  0.4202
12352SOL    HW137672   1.782   1.965   3.737 -2.5412 -1.3358  0.1849
12352SOL    HW237673   1.673   2.033   3.657  0.4320  0.6965 -2.3778
12353SOL     OW37674   1.559   2.194   3.258  0.1038  0.0508  0.2892
12353SOL    HW137675   1.580   2.132   3.188  1.8558  0.3765  0.4823
12353SOL    HW237676   1.586   2.150   3.339 -1.3703 -0.0891  0.7335
12354SOL     OW37677   2.982   5.564   0.636 -0.0331 -0.2926  0.2286
12354SOL    HW137678   2.956   5.481   0.675 -3.0141  0.6740  0.6171
12354SOL    HW237679   2.937   5.565   0.551  0.4281  0.6679 -0.0122
12355SOL     OW37680   4.538   2.990   1.103 -0.5371  0.0066 -0.1761
12355SOL    HW137681   4.612   2.983   1.043 -0.2081 -1.0267  0.3173
12355SOL    HW237682   4.578   2.982   1.190 -1.2248 -0.6864  0.0907
12356SOL     OW37683   0.680   1.102   4.338  0.0746  0.3912  0.0138
12356SOL    HW137684   0.689   1.118   4.432  0.3629 -0.7650  0.2016
12356SOL    HW237685   0.612   1.035   4.332 -0.0216  0.5457 -0.6107
12357SOL     OW37686   5.822   3.435   3.336 -0.2814 -0.0508 -0.2916
12357SOL    HW137687   5.815   3.509   3.396 -0.8178  1.1328 -1.7758
12357SOL    HW237688   5.907   3.446   3.293 -0.4204 -0.2161 -0.6140
12358SOL     OW37689   4.775   2.551   5.030 -0.5691 -0.3418  0.0007
12358SOL    HW137690   4.750   2.642   5.045 -0.5351 -0.1023 -1.2939
12358SOL    HW237691   4.722   2.523   4.956  1.0599 -0.6320 -1.1234
12359SOL     OW37692   0.237   5.424   1.659  0.2387  0.0521 -0.3468
12359SOL    HW137693   0.290   5.394   1.733  0.3296  0.5012 -0.2255
12359SOL    HW237694   0.148   5.398   1.682  0.2432  0.3227  0.0027
12360SOL     OW37695   2.531   5.896   2.388  0.1371 -0.1258 -0.6213
12360SOL    HW137696   2.458   5.883   2.328  0.0718 -0.5568 -0.4547
12360SOL    HW237697   2.533   5.816   2.440  1.5456 -0.6650 -1.4766
12361SOL     OW37698   2.435   2.303   0.821 -0.2310  0.0794  0.2966
12361SOL    HW137699   2.466   2.372   0.878  0.6164  1.6784 -1.9504
12361SOL    HW237700   2.510   2.244   0.810 -0.6248 -0.6513  1.3599
12362SOL     OW37701   2.197   6.646   6.620 -0.1732 -0.6052  0.5413
12362SOL    HW137702   2.290   6.632   6.641  0.7496  1.1398 -2.0108
12362SOL    HW237703   2.185   6.603   6.535 -1.2090  0.7682 -0.0309
12363SOL     OW37704   1.520   3.531   4.427  0.0125  0.1595 -0.1358
12363SOL    HW137705   1.496   3.444   4.398  0.6641 -0.8777  2.2046
12363SOL    HW237706   1.440   3.566   4.466  0.3726 -0.4367  1.1924
12364SOL     OW37707   6.165   7.103   1.600 -0.0317 -0.3037  0.4181
12364SOL    HW137708   6.158   7.168   1.529 -0.4729 -0.4349  0.3363
12364SOL    HW237709   6.188   7.155   1.677  1.7552 -0.3251 -0.0748
12365SOL     OW37710   1.758   0.972   0.164  0.0210  0.0356 -0.5555
12365SOL    HW137711   1.743   0.880   0.184 -0.0013  0.3815  1.1911
12365SOL    HW237712   1.844   0.974   0.121 -0.1595 -0.8309 -0.9689
12366SOL     OW37713   2.213   4.868   1.942  0.3030 -0.2492 -0.1613
12366SOL    HW137714   2.169   4.931   1.884 -0.3703 -1.2524 -0.7867
12366SOL    HW237715   2.305   4.893   1.941  0.0069  0.8750 -0.1874
12367SOL     OW37716   4.015   4.943   3.180 -0.6002  0.2827  0.0861
12367SOL    HW137717   3.998   4.936   3.274  0.8063  0.0924  0.3536
12367SOL    HW237718   3.929   4.958   3.141 -1.3239 -0.4942  1.3123
12368SOL     OW37719   5.031   3.810   6.290  0.0237 -0.1659  0.1766
12368SOL    HW137720   5.057   3.737   6.234  0.8192 -0.1176  0.4725
12368SOL    HW237721   4.947   3.840   6.253  0.0903 -0.7126 -0.4299
12369SOL     OW37722   6.918   3.946   1.950  0.2511  0.0059 -0.0493
12369SOL    HW137723   6.955   3.968   1.865 -1.4235 -2.1213 -1.4358
12369SOL    HW237724   6.823   3.946   1.937 -0.1212  0.7325  2.1449
12370SOL     OW37725   5.913   4.176   4.353 -0.1498  0.3484 -0.1007
12370SOL    HW137726   5.846   4.181   4.420 -0.9213  0.4886 -0.8653
12370SOL    HW237727   5.991   4.215   4.393  0.6281 -3.0385  2.1192
12371SOL     OW37728   2.964   7.174   2.325 -0.4552 -0.7596  0.4103
12371SOL    HW137729   3.036   7.164   2.387  0.6761  0.2080 -0.6780
12371SOL    HW237730   2.976   7.101   2.263 -0.1952 -0.4064  0.0385
12372SOL     OW37731   2.829   3.519   2.824 -0.0391  0.6659 -0.4885
12372SOL    HW137732   2.819   3.427   2.846 -1.5959 -0.0764 -3.6670
12372SOL    HW237733   2.904   3.522   2.765  0.0226  1.4397 -0.3830
12373SOL     OW37734   0.636   4.432   2.289 -0.4316  0.4923  0.0999
12373SOL    HW137735   0.645   4.339   2.269 -4.3205 -0.2069  0.7716
12373SOL    HW237736   0.608   4.434   2.381 -0.1682  2.3905  0.1913
12374SOL     OW37737   4.829   3.788   3.662 -0.3307  0.0351  0.7475
12374SOL    HW137738   4.845   3.826   3.576 -1.7555  0.0752  0.4771
12374SOL    HW237739   4.916   3.782   3.702  0.3045  0.3879 -0.5252
12375SOL     OW37740   6.293   5.796   5.664 -0.3438 -0.1362 -0.0735
12375SOL    HW137741   6.315   5.811   5.572  0.3131  0.7014  0.2139
12375SOL    HW237742   6.235   5.868   5.687 -0.1477 -0.0959  0.2939
12376SOL     OW37743   3.780   3.245   2.675 -0.3656  0.0250  0.2012
12376SOL    HW137744   3.686   3.224   2.679 -0.3745 -0.4668 -1.5666
12376SOL    HW237745   3.788   3.330   2.718 -1.5012 -0.2653  1.0319
12377SOL     OW37746   2.931   1.689   4.595  0.1757  0.0686  0.4275
12377SOL    HW137747   2.916   1.644   4.512 -1.4504  1.8609 -0.3265
12377SOL    HW237748   3.024   1.675   4.613  0.3328 -1.2365 -1.1513
12378SOL     OW37749   4.700   3.795   4.852 -0.1294  0.5271  0.2958
12378SOL    HW137750   4.628   3.823   4.910 -0.1671 -1.6240  1.3934
12378SOL    HW237751   4.773   3.853   4.875 -0.8298  1.2267  0.8322
12379SOL     OW37752   4.429   0.940   2.377 -0.0678  0.2359 -0.2741
12379SOL    HW137753   4.417   1.000   2.303  1.5034 -0.9466 -1.5844
12379SOL    HW237754   4.423   0.853   2.338 -1.9511 -0.5161  1.5225
12380SOL     OW37755   1.054   3.708   6.173 -0.3603  0.0257  0.1208
12380SOL    HW137756   0.965   3.694   6.140 -0.6700 -2.6465  1.7728
12380SOL    HW237757   1.107   3.640   6.130  0.9659  1.6489 -0.9194
12381SOL     OW37758   6.517   5.391   2.458 -0.0921  0.1813  0.0849
12381SOL    HW137759   6.549   5.328   2.523 -0.5029  1.2711  1.3845
12381SOL    HW237760   6.592   5.404   2.400  0.7621  0.1955  1.1402
12382SOL     OW37761   2.095   1.487   5.225 -0.6652  0.7833 -0.0686
12382SOL    HW137762   2.028   1.544   5.186  2.1114  2.2671 -3.0834
12382SOL    HW237763   2.099   1.516   5.316 -2.2305  2.5255 -0.4665
12383SOL     OW37764   1.218   5.656   2.842  0.1161 -0.2577 -0.0014
12383SOL    HW137765   1.161   5.720   2.885  1.9825  1.7133 -0.3211
12383SOL    HW237766   1.195   5.660   2.750  1.5792  1.5431 -0.3465
12384SOL     OW37767   5.190   1.014   6.926  0.0207 -0.3753 -0.0950
12384SOL    HW137768   5.161   1.077   6.992  0.2395  0.3457 -0.6682
12384SOL    HW237769   5.231   0.943   6.976  0.3828  0.2619  0.5291
12385SOL     OW37770   7.254   3.391   2.013  0.6469  0.5054  0.1741
12385SOL    HW137771   7.163   3.388   2.042  0.4396 -0.0796 -0.5120
12385SOL    HW237772   7.271   3.303   1.978  2.9371 -1.2016  4.6787
12386SOL     OW37773   2.879   0.979   4.883  0.3625  0.0098  0.8718
12386SOL    HW137774   2.889   0.890   4.918  1.4634 -0.0990  0.3307
12386SOL    HW237775   2.856   0.965   4.791 -0.3416  0.2944  1.0010
12387SOL     OW37776   6.662   3.101   6.813 -0.1075 -0.0706 -0.7226
12387SOL    HW137777   6.644   3.144   6.896 -1.8801  0.1819 -1.2006
12387SOL    HW237778   6.586   3.044   6.798  1.1346 -1.6877 -1.1961
12388SOL     OW37779   6.684   0.633   4.020 -0.1539 -0.4130  0.6882
12388SOL    HW137780   6.612   0.693   4.000 -0.2830 -0.8011 -0.0680
12388SOL    HW237781   6.676   0.564   3.953 -0.4167 -1.6193  1.9224
12389SOL     OW37782   1.271   2.973   5.291  0.0597  0.0973  0.2738
12389SOL    HW137783   1.315   2.930   5.364 -0.4473  2.5429  2.1679
12389SOL    HW237784   1.320   2.945   5.213  1.6720 -1.3229  1.7208
12390SOL     OW37785   0.540   3.597   2.894 -0.2143  0.1229 -0.1704
12390SOL    HW137786   0.552   3.686   2.860  1.7281 -0.0682 -0.0925
12390SOL    HW237787   0.531   3.543   2.815 -1.2873  0.3466 -0.2206
12391SOL     OW37788   5.942   4.453   4.624 -0.4905 -0.0926  0.3832
12391SOL    HW137789   5.898   4.414   4.699  2.8471  0.5316  2.9029
12391SOL    HW237790   5.871   4.490   4.571 -3.0760 -1.3242  2.7300
12392SOL     OW37791   0.154   7.168   2.984  0.4768 -0.4987 -0.6271
12392SOL    HW137792   0.147   7.217   3.065 -0.0935 -1.0752 -0.3123
12392SOL    HW237793   0.181   7.232   2.918 -1.5863  0.5631 -0.5273
12393SOL     OW37794   5.959   1.970   2.456 -0.4481  0.1824 -0.2430
12393SOL    HW137795   6.045   1.995   2.422  0.3950 -0.0402  1.6320
12393SOL    HW237796   5.912   1.935   2.380  2.4073 -3.1201 -0.7036
12394SOL     OW37797   4.176   6.086   6.919  0.6339  0.2980  0.2583
12394SOL    HW137798   4.252   6.035   6.891 -0.5793 -0.9181 -1.0105
12394SOL    HW237799   4.154   6.052   7.005  0.9880  0.0079  0.2358
12395SOL     OW37800   4.547   1.315   1.672 -0.4220  0.4875  0.3310
12395SOL    HW137801   4.604   1.319   1.748  0.2680  2.0762 -0.2238
12395SOL    HW237802   4.466   1.277   1.705  0.8761 -1.7787  1.1528
12396SOL     OW37803   1.120   4.388   1.356  0.0226  0.1159  0.1089
12396SOL    HW137804   1.061   4.363   1.286 -0.5578 -2.2020  1.3235
12396SOL    HW237805   1.064   4.429   1.422  0.5163  1.9918 -0.5681
12397SOL     OW37806   3.899   6.727   2.941  0.3459 -0.0130  0.4735
12397SOL    HW137807   3.944   6.811   2.950 -0.8642  0.5858  1.2827
12397SOL    HW237808   3.969   6.662   2.941  1.2308  0.8899  1.6150
12398SOL     OW37809   3.973   0.055   0.847 -0.1180  0.2666  0.2908
12398SOL    HW137810   3.967   0.113   0.770  2.0564  0.2047 -0.0155
12398SOL    HW237811   3.984  -0.032   0.810 -3.9749 -0.5916  0.7475
12399SOL     OW37812   6.931   2.908   3.097 -0.3889  0.1825 -0.5010
12399SOL    HW137813   6.976   2.825   3.111  0.1043  0.7757  1.8548
12399SOL    HW237814   6.987   2.956   3.035  0.3361 -0.4644 -0.3611
12400SOL     OW37815   3.133   3.158   3.432 -0.1059  0.0420  0.1158
12400SOL    HW137816   3.216   3.119   3.403 -0.1614 -1.3783  1.7331
12400SOL    HW237817   3.068   3.089   3.417 -0.5595  0.2354  1.1351
12401SOL     OW37818   3.144   5.262   7.251  0.4155 -0.2005 -0.5927
12401SOL    HW137819   3.060   5.216   7.245  0.9662 -1.1503 -1.2430
12401SOL    HW237820   3.150   5.313   7.170  0.0169  0.6867 -0.0821
12402SOL     OW37821   2.253   5.175   6.828  1.1338  0.5418 -0.0505
12402SOL    HW137822   2.242   5.147   6.737  1.5519 -0.8404  0.2990
12402SOL    HW237823   2.283   5.266   6.821  0.3167  0.7397 -1.2581
12403SOL     OW37824   0.054   0.013   6.779 -0.1238 -0.5637 -0.0599
12403SOL    HW137825   0.120  -0.055   6.765 -0.2168 -0.6139 -0.2543
12403SOL    HW237826   0.009  -0.013   6.860 -0.8058 -1.2598 -0.6420
12404SOL     OW37827   5.145   1.503   1.794  0.1016 -0.1011 -0.2734
12404SOL    HW137828   5.059   1.463   1.809  1.1433 -3.1870 -1.5735
12404SOL    HW237829   5.177   1.525   1.882 -0.8146 -1.7691  0.5336
12405SOL     OW37830   4.307   1.392   2.876 -0.3050 -0.2922  0.1281
12405SOL    HW137831   4.320   1.417   2.784 -0.9078  0.9532  0.3567
12405SOL    HW237832   4.241   1.322   2.872  0.8085 -1.3456 -0.4745
12406SOL     OW37833   2.134   1.213   4.799 -0.0558  0.7721 -0.1640
12406SOL    HW137834   2.214   1.228   4.748  0.9731 -0.7904  0.9196
12406SOL    HW237835   2.116   1.120   4.789 -0.3422  0.6088  1.5450
12407SOL     OW37836   5.064   2.970   6.501  0.0873  0.1648 -0.3801
12407SOL    HW137837   5.144   2.949   6.549  1.9486  1.8944 -2.4434
12407SOL    HW237838   5.091   2.968   6.409 -2.5809 -0.3161 -1.2301
12408SOL     OW37839   7.120   1.379   5.939  0.3022  0.2422  0.3377
12408SOL    HW137840   7.145   1.287   5.949 -1.0789 -0.2122 -0.0820
12408SOL    HW237841   7.110   1.411   6.029  3.4592  0.8225  0.5746
12409SOL     OW37842   2.814   7.165   6.178 -0.2793 -0.4610 -0.0478
12409SOL    HW137843   2.735   7.220   6.184 -1.3308 -1.9434  0.1574
12409SOL    HW237844   2.835   7.165   6.085 -0.1113  0.4804 -0.0219
12410SOL     OW37845   3.637   3.463   0.579 -0.1800  0.2364  0.1731
12410SOL    HW137846   3.729   3.462   0.553 -0.0003 -1.9133  0.6856
12410SOL    HW237847   3.639   3.435   0.671 -1.1539  3.0942  1.1789
12411SOL     OW37848   3.352   3.296   6.159 -0.5202 -0.2507  0.2208
12411SOL    HW137849   3.279   3.351   6.189  0.1818 -0.6200  2.7942
12411SOL    HW237850   3.356   3.224   6.223  1.2513 -0.9816 -0.6521
12412SOL     OW37851   3.322   5.577   6.499  0.6116  0.2069  0.3167
12412SOL    HW137852   3.383   5.521   6.452 -0.0850 -0.7448  0.5062
12412SOL    HW237853   3.239   5.529   6.495 -0.2252  1.6418 -0.2793
12413SOL     OW37854   4.373   3.806   5.040 -0.4829  0.4156 -0.2237
12413SOL    HW137855   4.350   3.730   4.988  0.5336  1.1299 -1.7875
12413SOL    HW237856   4.403   3.771   5.124 -0.3939 -0.8678 -0.7840
12414SOL     OW37857   3.445   5.479   2.435 -0.1766 -0.2807 -0.8548
12414SOL    HW137858   3.508   5.408   2.430 -0.0375 -0.5041  2.1963
12414SOL    HW237859   3.407   5.471   2.523 -0.3678  3.2086 -0.4959
12415SOL     OW37860   5.951   5.709   1.950  0.5303  0.8540 -0.0211
12415SOL    HW137861   5.882   5.643   1.960 -0.1868  1.4404 -0.8948
12415SOL    HW237862   6.025   5.674   1.998 -0.3084  0.0984  0.7701
12416SOL     OW37863   3.765   4.503   5.994  0.2025  0.5527 -0.1496
12416SOL    HW137864   3.730   4.414   6.003 -1.8705  1.2540 -0.7916
12416SOL    HW237865   3.775   4.515   5.900  0.4986  1.0136 -0.0612
12417SOL     OW37866   4.811   2.949   6.641  0.1407  0.1512  0.3312
12417SOL    HW137867   4.825   2.983   6.729  0.1753  3.6352 -0.8656
12417SOL    HW237868   4.891   2.972   6.593 -0.9827  0.9448 -1.2749
12418SOL     OW37869   2.701   1.133   1.249 -0.7327 -0.4267  0.2341
12418SOL    HW137870   2.633   1.166   1.308  0.2349 -1.0148  1.7167
12418SOL    HW237871   2.718   1.044   1.279 -0.5391 -0.9165 -1.2482
12419SOL     OW37872   7.031   1.936   5.209 -0.5211  0.2979 -0.2215
12419SOL    HW137873   7.047   1.927   5.115 -1.5203  0.5376 -0.4218
12419SOL    HW237874   7.092   1.874   5.249  0.0389  0.3225 -1.0174
12420SOL     OW37875   4.916   2.519   2.951  0.0146  0.3948 -0.1834
12420SOL    HW137876   4.947   2.443   3.000  0.7785  0.1439 -1.0279
12420SOL    HW237877   4.991   2.578   2.948  0.0660  0.2888 -1.2717
12421SOL     OW37878   1.717   5.579   1.696 -0.2517 -0.2613  0.5234
12421SOL    HW137879   1.768   5.519   1.641 -0.1803  0.3449 -0.0743
12421SOL    HW237880   1.700   5.528   1.776 -0.2801 -1.1155 -0.0108
12422SOL     OW37881   0.570   6.858   1.748 -0.0204 -0.1052  0.0970
12422SOL    HW137882   0.624   6.900   1.682 -1.9359  0.5965 -1.0874
12422SOL    HW237883   0.491   6.830   1.702 -0.5966 -1.3334  1.6985
12423SOL     OW37884   0.879   6.511   0.821 -0.3871  0.3282  0.0718
12423SOL    HW137885   0.935   6.438   0.849 -0.9604 -0.8061 -1.6194
12423SOL    HW237886   0.791   6.482   0.843 -0.7685 -0.2206 -2.0040
12424SOL     OW37887   3.746   3.121   0.554  0.4653  0.4688  0.2973
12424SOL    HW137888   3.751   3.059   0.482 -0.2685 -0.0612  0.6888
12424SOL    HW237889   3.835   3.155   0.564  1.4475 -2.2395  1.5716
12425SOL     OW37890   6.390   0.664   2.934 -0.0021  0.3211 -0.2503
12425SOL    HW137891   6.323   0.597   2.921 -0.2655  0.7364 -1.1191
12425SOL    HW237892   6.472   0.616   2.940 -0.3522 -0.1847  0.6379
12426SOL     OW37893   5.328   4.672   2.057  0.8567  0.3414 -0.0125
12426SOL    HW137894   5.394   4.613   2.021  0.9557 -0.4516  1.4027
12426SOL    HW237895   5.260   4.614   2.092  0.0755  1.1163 -0.1910
12427SOL     OW37896   0.858   5.148   1.196  0.1612  0.8418 -0.2970
12427SOL    HW137897   0.797   5.078   1.175 -0.6255  1.0800  1.0801
12427SOL    HW237898   0.855   5.206   1.119  1.1955 -0.8316 -1.6692
12428SOL     OW37899   3.596   0.959   2.337  0.4109 -0.2207  0.5740
12428SOL    HW137900   3.630   1.002   2.259 -2.0202  1.8152  0.5012
12428SOL    HW237901   3.648   0.994   2.409  0.0348  1.0560  0.2500
12429SOL     OW37902   5.361   0.530   5.406  0.2792  0.4881 -0.0318
12429SOL    HW137903   5.332   0.540   5.497 -2.9923 -0.2869 -0.8463
12429SOL    HW237904   5.336   0.612   5.364 -0.0908  0.0734 -0.6363
12430SOL     OW37905   2.897   6.453   6.150 -0.3178 -0.8326 -0.4965
12430SOL    HW137906   2.968   6.427   6.208  2.1884  0.7420 -2.6359
12430SOL    HW237907   2.920   6.542   6.122 -2.7439 -0.5554 -1.9143
12431SOL     OW37908   6.098   6.669   3.067  0.0651 -0.8319  0.3369
12431SOL    HW137909   6.016   6.627   3.040 -0.4755 -0.9013  2.0119
12431SOL    HW237910   6.146   6.599   3.111  0.4604 -0.4463  0.5133
12432SOL     OW37911   5.386   1.994   6.679 -0.1817 -0.2693  0.4408
12432SOL    HW137912   5.473   1.994   6.719 -0.8323 -1.9070  2.0283
12432SOL    HW237913   5.331   2.043   6.740 -0.4813  0.4358 -0.3650
12433SOL     OW37914   4.726   0.392   0.663  0.1162 -0.0740 -0.2178
12433SOL    HW137915   4.794   0.399   0.595 -1.0797  0.0085 -1.4482
12433SOL    HW237916   4.765   0.432   0.740  1.6641 -0.5072 -0.7383
12434SOL     OW37917   6.561   6.878   5.480 -0.4988 -0.2025  0.0879
12434SOL    HW137918   6.608   6.944   5.532 -1.4855  0.8023 -0.2638
12434SOL    HW237919   6.527   6.926   5.405 -0.2391 -1.3740 -0.8129
12435SOL     OW37920   1.682   3.361   1.915  0.0891 -0.1917 -0.6417
12435SOL    HW137921   1.596   3.321   1.906 -1.7801  3.4866 -1.2183
12435SOL    HW237922   1.685   3.391   2.006 -0.6950  2.3744 -1.3782
12436SOL     OW37923   1.163   6.453   6.212  0.0901 -0.3257 -0.3243
12436SOL    HW137924   1.214   6.522   6.170  0.0823  0.2460  0.6000
12436SOL    HW237925   1.198   6.372   6.174 -0.1470  0.1854 -1.6811
12437SOL     OW37926   2.990   6.805   1.605 -0.1690  0.1516 -0.6144
12437SOL    HW137927   3.062   6.754   1.566  0.3984  0.5385 -0.0914
12437SOL    HW237928   2.987   6.885   1.553  3.8197  3.0095  2.7928
12438SOL     OW37929   3.430   3.904   2.859 -0.1274 -0.9914  0.1377
12438SOL    HW137930   3.398   3.856   2.782  0.2779 -0.9687 -0.0490
12438SOL    HW237931   3.424   3.842   2.931  0.8280 -1.4879 -0.1873
12439SOL     OW37932   2.820   0.791   0.544 -0.1825 -0.3882  0.6026
12439SOL    HW137933   2.762   0.835   0.482  1.8490 -0.4270 -1.4399
12439SOL    HW237934   2.908   0.819   0.520  0.7441 -0.8173  3.1923
12440SOL     OW37935   3.686   0.181   5.368  0.0290  0.0663  0.1144
12440SOL    HW137936   3.764   0.134   5.399  0.4067  0.4289 -0.2776
12440SOL    HW237937   3.720   0.252   5.314 -0.4970  1.3859  1.4593
12441SOL     OW37938   2.502   7.117   1.635  0.3415 -0.4425 -0.3261
12441SOL    HW137939   2.493   7.204   1.594  3.2418  0.2052  0.2291
12441SOL    HW237940   2.529   7.060   1.563  0.2269 -0.4869 -0.3343
12442SOL     OW37941   6.612   1.988   0.460 -0.5864 -0.1466  0.6526
12442SOL    HW137942   6.624   2.051   0.531 -1.2661 -0.1840  0.8057
12442SOL    HW237943   6.664   2.024   0.387  0.4244 -0.3102  1.2733
12443SOL     OW37944   0.119   6.178   4.899 -0.2196 -0.4029  0.5928
12443SOL    HW137945   0.046   6.197   4.957  0.7510 -0.6088  1.9324
12443SOL    HW237946   0.109   6.085   4.877 -0.8651 -0.2037  0.0036
12444SOL     OW37947   1.112   4.967   6.192  0.6105 -0.3083  0.2908
12444SOL    HW137948   1.189   4.935   6.146  0.6254  0.2080 -0.0553
12444SOL    HW237949   1.043   4.906   6.169  1.3209 -1.8742  2.0987
12445SOL     OW37950   4.053   1.309   0.228 -0.9640  0.1947  0.3972
12445SOL    HW137951   4.123   1.305   0.293 -1.0592  0.6416  0.5289
12445SOL    HW237952   4.017   1.220   0.226 -0.5470  0.0218  0.4970
12446SOL     OW37953   1.091   4.996   5.623  0.3960 -0.0053  0.6798
12446SOL    HW137954   1.081   4.926   5.559 -1.1900 -0.0706  0.9496
12446SOL    HW237955   1.153   4.961   5.688  1.9307  0.0234 -0.7066
12447SOL     OW37956   2.089   0.160   2.710 -0.0529  0.2934  0.3515
12447SOL    HW137957   2.131   0.232   2.663 -0.2406 -0.8448 -1.6563
12447SOL    HW237958   2.132   0.159   2.795  2.2051  0.7810 -0.7121
12448SOL     OW37959   1.630   2.009   1.907 -0.3485 -0.7875  0.0910
12448SOL    HW137960   1.701   2.043   1.853  0.4969 -0.4244  1.3780
12448SOL    HW237961   1.582   2.086   1.935  0.6034 -0.7333  1.6978
12449SOL     OW37962   3.812   3.138   0.184 -0.5299  0.3914  0.5671
12449SOL    HW137963   3.879   3.111   0.122 -0.4181  1.1139  0.3680
12449SOL    HW237964   3.817   3.074   0.255  0.3507  0.4289  0.5424
12450SOL     OW37965   5.604   2.639   5.054  0.9303 -0.5467  0.0465
12450SOL    HW137966   5.574   2.554   5.085 -0.3981 -0.0747  0.1311
12450SOL    HW237967   5.670   2.666   5.118 -1.6524  0.3408  2.5608
12451SOL     OW37968   5.980   1.409   0.280 -0.6841  0.1088  0.5541
12451SOL    HW137969   5.956   1.358   0.203 -0.9431  0.4862  0.3834
12451SOL    HW237970   5.897   1.448   0.310 -0.4575  0.5952  0.5597
12452SOL     OW37971   1.976   4.117   5.672 -0.2184 -0.3943 -0.6409
12452SOL    HW137972   1.904   4.110   5.608 -0.8441 -0.3140  0.0428
12452SOL    HW237973   2.037   4.179   5.632 -1.8551  1.7327 -0.0474
12453SOL     OW37974   2.301   3.009   1.773 -0.1418  0.0435  0.3605
12453SOL    HW137975   2.353   2.930   1.786  3.3551  1.9708 -0.5963
12453SOL    HW237976   2.311   3.059   1.854  1.7957  1.5580 -0.7323
12454SOL     OW37977   5.453   0.403   6.527  0.5557  0.2779 -0.2424
12454SOL    HW137978   5.426   0.317   6.559 -2.1400  0.5866 -1.4325
12454SOL    HW237979   5.372   0.447   6.503  1.9845  2.4485 -1.4970
12455SOL     OW37980   2.320   0.135   3.673  0.4171  0.3647 -0.1714
12455SOL    HW137981   2.229   0.161   3.687  0.9084  1.3438  1.4184
12455SOL    HW237982   2.346   0.092   3.755  2.1263  2.4101  0.4816
12456SOL     OW37983   5.536   6.910   0.624 -0.1497 -0.3298 -0.4562
12456SOL    HW137984   5.443   6.910   0.601 -0.3876  1.5295  0.3207
12456SOL    HW237985   5.552   6.822   0.659 -1.7377 -0.5252 -0.1272
12457SOL     OW37986   6.031   0.068   0.111  0.1308  0.1692  0.0767
12457SOL    HW137987   5.984  -0.014   0.092  1.0221  0.2366 -2.9718
12457SOL    HW237988   5.979   0.111   0.179 -0.3505 -2.8839  1.8183
12458SOL     OW37989   5.740   1.212   0.282 -0.3988 -0.1147 -0.0764
12458SOL    HW137990   5.725   1.306   0.278  0.5292  0.1458  1.5482
12458SOL    HW237991   5.791   1.193   0.203 -0.9603  0.6451 -0.6431
12459SOL     OW37992   5.610   3.446   4.350 -0.4803 -0.3172  0.6106
12459SOL    HW137993   5.658   3.507   4.293 -0.7167 -0.6491  0.0492
12459SOL    HW237994   5.564   3.388   4.290 -0.7145 -0.6946  1.1446
12460SOL     OW37995   4.687   1.845   0.646 -0.4070 -0.0067  0.0610
12460SOL    HW137996   4.711   1.756   0.620 -1.4434  0.0504 -1.1830
12460SOL    HW237997   4.760   1.874   0.701 -0.7726 -2.1732  1.8281
12461SOL     OW37998   5.260   6.078   4.484  0.1470 -0.0729 -0.7849
12461SOL    HW137999   5.254   6.118   4.397  1.8436 -0.6110 -1.1778
12461SOL    HW238000   5.240   5.985   4.469 -2.2130  0.2745 -0.1310
12462SOL     OW38001   4.713   7.229   3.596 -0.1230  0.0297  0.6371
12462SOL    HW138002   4.716   7.258   3.687 -0.7026  1.0193  0.3676
12462SOL    HW238003   4.644   7.283   3.557  0.2373 -0.2608 -0.4232
12463SOL     OW38004   6.398   2.555   4.472  0.3770 -0.0449  0.0433
12463SOL    HW138005   6.330   2.491   4.452  0.9554 -0.4938 -0.5284
12463SOL    HW238006   6.478   2.504   4.479  0.6825  0.4992  0.5584
12464SOL     OW38007   2.749   6.765   4.070  0.1085  0.3010 -0.0785
12464SOL    HW138008   2.706   6.843   4.034 -1.0600 -1.1143 -1.9305
12464SOL    HW238009   2.766   6.710   3.994  0.4735 -1.4674  1.2237
12465SOL     OW38010   4.885   4.709   5.859  0.3857 -0.6232  0.0628
12465SOL    HW138011   4.925   4.754   5.934 -1.2602  0.6622  0.2363
12465SOL    HW238012   4.841   4.633   5.896  0.8674 -0.8424  0.1813
12466SOL     OW38013   1.717   5.159   3.248  0.4074  0.2371  0.3171
12466SOL    HW138014   1.780   5.175   3.177  0.4224  1.6988  0.6410
12466SOL    HW238015   1.685   5.245   3.272 -1.9992 -0.4880 -0.0392
12467SOL     OW38016   4.642   4.732   1.145  0.6061 -0.2935 -0.5281
12467SOL    HW138017   4.644   4.811   1.091 -1.6419  0.2047  0.0141
12467SOL    HW238018   4.733   4.703   1.148  1.2463  1.3470 -2.0829
12468SOL     OW38019   0.142   0.455   1.763  0.5478 -0.7322  0.0352
12468SOL    HW138020   0.180   0.540   1.742  1.9942 -1.6215 -1.1693
12468SOL    HW238021   0.047   0.467   1.752  0.7319  0.6992 -0.1199
12469SOL     OW38022   1.572   4.122   3.622 -0.0700  0.0964  0.4998
12469SOL    HW138023   1.492   4.099   3.669  1.0027  0.7238  2.7787
12469SOL    HW238024   1.542   4.153   3.537 -2.1883 -0.3188  1.0402
12470SOL     OW38025   2.962   3.094   5.826 -0.8295  0.3836  1.0863
12470SOL    HW138026   3.041   3.077   5.774 -0.6134  0.2588  1.4512
12470SOL    HW238027   2.890   3.082   5.765 -0.6140 -0.4288  0.9837
12471SOL     OW38028   4.105   1.261   6.988  0.4371 -0.4568  0.2319
12471SOL    HW138029   4.086   1.167   6.981 -0.4007 -0.3331  0.7848
12471SOL    HW238030   4.188   1.265   7.035  0.6670 -0.9270 -0.1216
12472SOL     OW38031   4.450   5.806   1.238 -0.2343 -0.0531  0.6483
12472SOL    HW138032   4.507   5.744   1.285 -0.6471 -0.3272  0.7957
12472SOL    HW238033   4.365   5.763   1.236 -1.0490  1.3550  2.4901
12473SOL     OW38034   5.511   3.788   6.905  0.2717 -0.2532 -0.1183
12473SOL    HW138035   5.482   3.700   6.880  1.3939 -0.4431 -0.8578
12473SOL    HW238036   5.458   3.810   6.981  0.4702 -1.8715  0.5338
12474SOL     OW38037   0.027   6.193   3.851  0.6351  0.2344 -0.2535
12474SOL    HW138038   0.019   6.223   3.761 -0.6956  1.3460  0.2074
12474SOL    HW238039   0.104   6.238   3.885  0.4715  0.6985 -0.4983
12475SOL     OW38040   5.933   4.621   2.071 -0.4378 -0.1800 -0.2381
12475SOL    HW138041   6.007   4.567   2.098  0.3976 -0.6237 -3.0782
12475SOL    HW238042   5.863   4.558   2.054 -1.2955  0.1773  1.6798
12476SOL     OW38043   1.893   0.038   1.095  0.6303  1.1274 -0.1563
12476SOL    HW138044   1.830  -0.016   1.141 -0.1505 -1.0748 -3.4467
12476SOL    HW238045   1.859   0.127   1.104 -2.2022  0.2012 -0.5141
12477SOL     OW38046   4.526   4.657   3.492  0.2938 -0.3951  0.4367
12477SOL    HW138047   4.503   4.581   3.546  0.4093 -1.2327 -0.6655
12477SOL    HW238048   4.618   4.644   3.469  0.3804  0.2052  0.4194
12478SOL     OW38049   2.603   4.999   4.395 -0.2676  0.2671  0.3210
12478SOL    HW138050   2.522   4.969   4.352  0.1249  0.0696 -0.2925
12478SOL    HW238051   2.643   4.919   4.428 -1.4802  0.5745  2.7334
12479SOL     OW38052   2.978   6.113   4.008  0.1812 -0.6361  0.0358
12479SOL    HW138053   2.896   6.132   3.963  0.0647 -0.9961  0.0968
12479SOL    HW238054   2.955   6.050   4.076  0.5666 -1.0181 -0.1802
12480SOL     OW38055   1.849   5.391   7.246  0.5044 -0.5023 -0.1249
12480SOL    HW138056   1.880   5.466   7.195  0.3635 -0.2259  0.1871
12480SOL    HW238057   1.884   5.407   7.334  0.4067 -0.7646 -0.0382
12481SOL     OW38058   6.916   5.579   3.339 -0.1503  0.8193  0.0605
12481SOL    HW138059   6.838   5.629   3.363 -0.9394 -1.4100  2.6149
12481SOL    HW238060   6.885   5.517   3.272 -0.3999  0.4948  0.4702
12482SOL     OW38061   2.957   4.511   1.028 -0.0003  0.0528 -0.4475
12482SOL    HW138062   2.925   4.424   1.004  0.3058 -0.1573 -0.0944
12482SOL    HW238063   2.957   4.512   1.123 -2.0404  1.1990 -0.4140
12483SOL     OW38064   7.236   3.738   6.857  0.0896 -0.9630  0.4150
12483SOL    HW138065   7.176   3.811   6.842  0.9665 -0.6663 -2.3636
12483SOL    HW238066   7.200   3.667   6.805  1.6406 -1.0215 -0.6605
12484SOL     OW38067   6.576   5.599   1.653 -0.1004 -0.1774 -0.7263
12484SOL    HW138068   6.558   5.522   1.599  1.1248 -1.1544  0.1898
12484SOL    HW238069   6.640   5.568   1.718 -0.5773  1.2722  0.4922
12485SOL     OW38070   5.399   4.292   0.136 -0.2161  0.1492  0.7072
12485SOL    HW138071   5.457   4.246   0.196 -0.7650 -0.9365  0.4217
12485SOL    HW238072   5.366   4.224   0.077 -1.0070  0.9103  0.2444
12486SOL     OW38073   6.253   0.873   1.902  0.6535  0.5581  1.0039
12486SOL    HW138074   6.277   0.937   1.835  0.1729  0.6768  0.9384
12486SOL    HW238075   6.225   0.926   1.976  0.7820  0.4245  1.1473
12487SOL     OW38076   1.961   4.464   3.105 -0.0119 -0.0126 -0.2749
12487SOL    HW138077   1.931   4.468   3.014 -0.7993  0.1262 -0.0143
12487SOL    HW238078   1.928   4.545   3.145 -0.3585 -0.4558  0.3442
12488SOL     OW38079   6.011   5.351   5.503  0.3294 -0.5507  0.1650
12488SOL    HW138080   6.035   5.259   5.515  2.1332 -0.1912 -0.4646
12488SOL    HW238081   6.090   5.400   5.526 -0.0961  0.7623 -1.0477
12489SOL     OW38082   0.106   0.331   6.919  0.1295 -0.0097  0.8915
12489SOL    HW138083   0.128   0.299   7.006  0.9243 -1.1564  0.2934
12489SOL    HW238084   0.115   0.254   6.862  0.3093  0.8747 -0.3148
12490SOL     OW38085   3.129   7.094   0.391 -0.2622  0.1926  0.8737
12490SOL    HW138086   3.040   7.068   0.417  0.2024  1.2895  4.0078
12490SOL    HW238087   3.135   7.186   0.416  1.0869  0.7919 -1.3903
12491SOL     OW38088   6.267   5.077   6.893 -0.3250  0.2996 -0.3130
12491SOL    HW138089   6.292   5.087   6.802  2.0299  0.2443  0.2520
12491SOL    HW238090   6.211   4.999   6.894  0.1543 -0.0877 -1.6245
12492SOL     OW38091   2.922   3.441   3.672 -0.2153  0.0987  0.5879
12492SOL    HW138092   3.005   3.485   3.655 -0.5763  0.3875 -0.5302
12492SOL    HW238093   2.861   3.481   3.610 -0.6637 -1.6394 -0.1706
12493SOL     OW38094   5.117   0.073   2.701 -0.4637 -0.0316 -0.0990
12493SOL    HW138095   5.179   0.117   2.642  0.1269  0.9705  1.2240
12493SOL    HW238096   5.106  -0.014   2.663  0.2798  0.4107 -1.4084
12494SOL     OW38097   3.096   0.148   6.129  0.9966  0.5015 -0.2174
12494SOL    HW138098   3.069   0.103   6.209 -0.9830 -0.4182 -1.3229
12494SOL    HW238099   3.190   0.163   6.140  0.9399 -0.3145  1.9005
12495SOL     OW38100   2.990   4.993   2.262  0.4567 -0.9039  0.4758
12495SOL    HW138101   2.895   5.004   2.249  0.5405  0.3498  0.7442
12495SOL    HW238102   3.025   5.081   2.250  1.3005 -0.8828  2.6416
12496SOL     OW38103   0.346   3.904   2.502  0.0432  0.1720 -0.1483
12496SOL    HW138104   0.308   3.840   2.441 -0.4663 -0.3727  0.7233
12496SOL    HW238105   0.387   3.969   2.445 -0.4689 -0.2907 -1.0780
12497SOL     OW38106   6.838   0.352   1.277 -0.1530  0.1873  0.6230
12497SOL    HW138107   6.914   0.387   1.322  0.2756  0.5774 -0.3599
12497SOL    HW238108   6.869   0.273   1.234 -0.3219  0.2890  0.3063
12498SOL     OW38109   5.708   3.235   2.189 -0.4300 -0.5307 -0.6758
12498SOL    HW138110   5.616   3.221   2.167 -0.9159  1.9223 -0.4605
12498SOL    HW238111   5.750   3.251   2.104 -0.4609 -0.3521 -0.6574
12499SOL     OW38112   5.069   0.366   4.181  0.0679  0.8200 -0.2343
12499SOL    HW138113   5.059   0.334   4.270 -0.1943  0.9610 -0.2144
12499SOL    HW238114   5.052   0.290   4.126  1.3796  0.4245 -0.1462
12500SOL     OW38115   6.739   0.874   4.386  0.1249 -0.1926 -0.9829
12500SOL    HW138116   6.800   0.934   4.429 -0.4237 -0.1758 -0.2150
12500SOL    HW238117   6.751   0.891   4.293  0.5323  0.5619 -0.7997
12501SOL     OW38118   2.673   1.446   1.054 -0.5995  0.1346 -0.4356
12501SOL    HW138119   2.586   1.410   1.042  0.3579 -3.2124  1.4211
12501SOL    HW238120   2.730   1.387   1.004  0.9720 -0.5889  2.0302
12502SOL     OW38121   0.461   0.835   3.330  0.0518 -0.1866  0.1230
12502SOL    HW138122   0.468   0.762   3.269 -0.1890  0.6466 -0.9207
12502SOL    HW238123   0.519   0.811   3.403 -0.5842 -1.7355  0.1478
12503SOL     OW38124   2.806   1.709   6.018  0.8381 -0.4373  0.0422
12503SOL    HW138125   2.748   1.635   5.999 -0.3455  0.5217 -0.2140
12503SOL    HW238126   2.841   1.690   6.105  0.8305 -1.4702 -0.1652
12504SOL     OW38127   2.318   4.724   4.465  0.2971 -0.5470  0.4094
12504SOL    HW138128   2.298   4.661   4.396 -0.7782 -0.1826  0.3619
12504SOL    HW238129   2.380   4.680   4.522  1.5100 -0.7270 -0.9880
12505SOL     OW38130   1.550   0.391   4.589  0.7715 -0.4196  0.0309
12505SOL    HW138131   1.521   0.469   4.542 -0.2768  1.6034  3.6730
12505SOL    HW238132   1.645   0.399   4.594  0.5548  1.5785  1.7615
12506NA      NA38133   1.182   5.676   3.923 -0.1909  0.4159  0.3084
12507NA      NA38134   3.711   4.090   3.062  0.1629  0.4211  0.3152
12508NA      NA38135   2.827   3.753   1.105  0.4193 -0.3713  0.4403
12509NA      NA38136   1.182   6.473   4.029  0.0028  0.1527  0.0957
12510NA      NA38137   5.674   3.782   4.448  0.0904 -0.3358  0.0235
12511NA      NA38138   6.040   4.581   1.639  0.1932  0.0397  0.1999
12512NA      NA38139   5.937   6.990   2.361  0.2378  0.3365  0.1979
12513NA      NA38140   5.513   0.142   3.455  0.4818 -0.4159  0.2696
12514NA      NA38141   6.680   2.498   1.816 -0.4492  0.0322  0.3012
12515NA      NA38142   5.949   6.857   0.828 -0.4610  0.2394 -0.5045
12516NA      NA38143   7.145   1.399   3.809  0.1008  0.2928  0.0058
12517NA      NA38144   2.722   3.607   2.642 -0.1172  0.3793  0.4999
12518NA      NA38145   5.260   2.484   6.105 -0.6216  0.4613 -0.1054
12519NA      NA38146   4.563   6.193   0.857  0.4762 -0.1533 -0.3562
12520NA      NA38147   0.192   5.719   2.519 -0.0460  0.2995 -0.4106
12521NA      NA38148   2.184   5.959   3.260  0.0312 -0.2706  0.0227
12522NA      NA38149   3.929   2.393   1.921 -0.1844 -0.3798 -0.1424
12523NA      NA38150   1.385   1.118   3.782  0.7361 -0.1791 -0.2162
12524NA      NA38151   4.358   4.524   2.081 -0.0651  0.6416 -0.0738
12525NA      NA38152   4.005   2.880   2.172 -0.4374  0.5478 -0.0951
12526NA      NA38153   0.667   1.564   1.318 -0.1859 -0.4578 -0.1548
12527NA      NA38154   5.590   1.082   6.304  0.2945 -0.2642 -0.3190
12528NA      NA38155   4.204   0.959   5.006  0.2815 -0.1814 -0.2135
12529NA      NA38156   3.769   5.861   1.965 -0.2971 -0.1678 -0.2276
12530NA      NA38157   0.200   5.771   0.943 -0.6984 -0.0540 -0.7347
12531NA      NA38158   2.126   4.122   3.336  0.2529 -0.0453 -0.3062
12532NA      NA38159   5.630   2.455   3.436 -0.0982 -0.0442  0.3855
12533NA      NA38160   6.780   6.535   4.073  0.7468  1.0196  0.7613
12534NA      NA38161   3.780   6.648   4.287  0.4675  0.3997  0.3517
12535NA      NA38162   1.900   0.098   2.649  0.1424  0.1254 -0.4553
12536NA      NA38163   3.922   1.770   5.606  0.1582  0.2135 -0.3687
12537NA      NA38164   5.122   5.619   6.116  0.0166  0.1681  0.2421
12538NA      NA38165   0.710   2.727   1.886  0.1114  0.0412  0.6269
12539NA      NA38166   3.112   0.686   5.360  0.1325  0.2776 -0.4354
12540NA      NA38167   3.474   5.898   4.396  0.0296  0.1806  0.1562
12541NA      NA38168   5.185   2.698   0.253  0.1696  0.4280 -0.1649
12542CL      CL38169   1.314   5.401   4.249  0.2201  0.2184 -0.0175
12543CL      CL38170   1.844   5.066   1.003  0.3975 -0.2776 -0.0006
12544CL      CL38171   0.871   2.195   6.278  0.2894 -0.2897  0.1898
12545CL      CL38172   0.338   1.001   6.504 -0.5457  0.1350 -0.1683
12546CL      CL38173   4.793   3.025   0.868 -0.2124  0.0786  0.0488
12547CL      CL38174   5.525   0.406   4.287 -0.2179 -0.1040 -0.7577
12548CL      CL38175   0.713   4.255   1.013  0.3826 -0.4414 -0.3949
12549CL      CL38176   1.075   2.297   5.897 -0.2530  0.1247 -0.2930
12550CL      CL38177   3.805   3.707   4.039  0.2309 -0.5658  0.0329
12551CL      CL38178   2.874   5.200   5.602 -0.1820  0.0528  0.4831
12552CL      CL38179   0.927   6.412   3.394  0.0934  0.2745  0.2143
12553CL      CL38180   1.643   5.430   3.359 -0.0605 -0.0159 -0.2205
12554CL      CL38181   3.426   0.813   3.836 -0.1046 -0.3676  0.4004
12555CL      CL38182   4.056   4.460   6.588 -0.4133 -0.1083 -0.2757
12556CL      CL38183   7.189   1.460   4.253 -0.2518  0.0136 -0.2781
12557CL      CL38184   1.962   5.943   4.027  0.1693 -0.0501  0.1116
12558CL      CL38185   1.397   6.684   3.623  0.2774  0.3861  0.0258
12559CL      CL38186   3.699   1.222   0.572 -0.0455 -0.0614  0.0083
12560CL      CL38187   2.615   4.743   5.772  0.5263 -0.2234  0.0842
12561CL      CL38188   6.587   1.217   1.895  0.1092 -0.0982 -0.3890
12562CL      CL38189   6.394   1.237   3.319 -0.2878 -0.4605  0.1814
12563CL      CL38190   5.733   3.867   2.776  0.0021  0.0821  0.5943
12564CL      CL38191   6.690   1.653   5.736  0.1569  0.1286 -0.0160
12565CL      CL38192   4.883   6.839   2.172 -0.0269 -0.1872  0.0889
12566CL      CL38193   2.091   6.853   3.170  0.2744  0.0587  0.0368
12567CL      CL38194   1.441   3.528   2.647  0.0853  0.0837  0.3300
12568CL      CL38195   2.313   3.196   5.121  0.1039  0.4510 -0.1229
12569CL      CL38196   7.145   5.727   1.852 -0.3452 -0.4481  0.0078
12570CL      CL38197   2.545   0.236   5.963 -0.2505  0.2245  0.3809
12571CL      CL38198   2.308   3.964   3.368  0.0113  0.2979 -0.2459
12572CL      CL38199   2.753   4.948   0.964 -0.6362  0.0238  0.1676
12573CL      CL38200   3.164   4.937   6.875 -0.2748 -0.0599 -0.1569
12574CL      CL38201   3.022   4.237   6.821  0.0603 -0.0767  0.0331
12575CL      CL38202   6.729   4.673   2.161  0.0419  0.1082  0.0810
12576CL      CL38203   1.552   2.314   2.020 -0.2247 -0.1889 -0.2342
12577CL      CL38204   3.439   3.970   0.215 -0.0699 -0.2994 -0.2448
12578CL      CL38205   7.055   5.228   0.775  0.2689 -0.1949  0.2854
12579CL      CL38206   2.792   3.534   1.557  0.0241 -0.3922  0.0119
12580CL      CL38207   3.103   0.180   3.950  0.1083 -0.4833  0.3206
12581CL      CL38208   5.313   0.133   1.952 -0.3888 -0.2783 -0.2437
12582CL      CL38209   6.782   3.379   2.331 -0.0561 -0.2244 -0.2288
12583CL      CL38210   6.175   3.885   5.378 -0.4169 -0.3896 -0.3998
12584CL      CL38211   4.911   5.601   5.993 -0.2796 -0.4473 -0.2393
12585CL      CL38212   1.327   4.822   6.029  0.2495  0.1176 -0.0325
12586CL      CL38213   0.731   3.132   1.615 -0.1355 -0.0371  0.2115
12587CL      CL38214   6.498   3.443   7.177 -0.3377  0.0585 -0.2550
12588CL      CL38215   0.368   1.666   0.397 -0.1123  0.0661 -0.3303
12589CL      CL38216   1.506   6.832   4.345  0.3748  0.1788 -0.1199
12590CL      CL38217   2.571   4.158   0.995  0.3641  0.1106  0.0013
12591CL      CL38218   7.021   2.261   2.194 -0.1846  0.4959  0.2417
12592CL      CL38219   2.158   3.987   0.547 -0.0246  0.2696 -0.2899
12593CL      CL38220   4.173   1.158   4.540  0.2072  0.6058 -0.1973
12594CL      CL38221   2.788   5.535   7.215 -0.2784  0.2929 -0.1789
12595CL      CL38222   5.835   4.147   1.838  0.1624  0.2287 -0.3056
12596CL      CL38223   4.326   1.623   2.256  0.2350  0.1847 -0.1811
12597CL      CL38224   0.660   1.910   1.099  0.0301  0.0588  0.1775
12598CL      CL38225   0.724   3.147   0.811  0.5929  0.0349 -0.2154
12599CL      CL38226   3.466   1.135   4.529  0.1836  0.3469  0.6377
   7.25659   7.25659   7.25659
